INSANE! Membrane UpperLeaflet>loPI=1.0 LowerLeaflet>PSPI:POPI:POPS:YOPS:POPE:YOPE:POPC:YOPC:ERGO=6.0:14.0:21.0:9.0:9.0:21.0:12.0:48.0:60.0
49877
    1loPI    C1    1   1.229  14.130   9.866  0.1482  0.0005 -0.0118
    1loPI    C2    2   1.153  14.442  10.105  0.5009 -0.0422  0.1625
    1loPI    C3    3   1.441  14.467   9.829 -0.0176  0.0683 -0.3890
    1loPI   PO4    4   1.015  14.122   9.641 -0.1070  0.1514  0.3023
    1loPI   GL1    5   0.767  13.968   9.216 -0.1775 -0.1923 -0.2798
    1loPI   GL2    6   0.520  13.783   9.312  0.0716  0.3037 -0.0306
    1loPI   C1A    7   0.855  14.261   8.932  0.1870 -0.0183 -0.0075
    1loPI   C2A    8   0.550  14.405   8.598  0.2624  0.2307  0.1548
    1loPI   C3A    9   0.278  14.714   8.462 -0.1724  0.7123  0.3478
    1loPI   C4A   10   0.169  15.119   8.623 -0.0295 -0.1586 -0.1356
    1loPI   C5A   11   0.414  15.342   8.715  0.1059  0.1499 -0.1879
    1loPI   C6A   12   0.739  15.391   8.966 -0.2328  0.0401 -0.0967
    1loPI   C1B   13   0.651  13.533   8.995  0.1056  0.1336  0.1839
    1loPI   C2B   14   0.757  13.403   8.523  0.0575 -0.2355 -0.2331
    1loPI   C3B   15   0.856  13.189   8.113  0.1060 -0.0801 -0.2033
    1loPI   C4B   16   0.785  13.292   7.690  0.2626  0.2243 -0.2027
    2loPI    C1   17  14.650  11.857   9.193 -0.0906 -0.0793  0.1843
    2loPI    C2   18  14.617  12.085   9.520  0.2985  0.0496  0.1392
    2loPI    C3   19  14.399  11.751   9.486 -0.0804  0.2706  0.3246
    2loPI   PO4   20  14.711  11.968   9.009 -0.0884  0.3456 -0.0385
    2loPI   GL1   21  14.784  11.946   8.563  0.5402 -0.1156  0.3242
    2loPI   GL2   22  14.527  12.075   8.541 -0.3134  0.2103  0.0924
    2loPI   C1A   23  14.791  12.100   8.094 -0.0198 -0.0673  0.1037
    2loPI   C2A   24  14.829  12.038   7.665  0.2892 -0.1210  0.1269
    2loPI   C3A   25  15.044  11.943   7.311  0.1175 -0.0121 -0.0942
    2loPI   C4A   26  15.314  11.869   6.973  0.2086  0.1541 -0.1108
    2loPI   C5A   27  15.808  11.756   6.976 -0.1924 -0.2372 -0.5302
    2loPI   C6A   28  16.279  11.840   6.735  0.2004 -0.0318  0.1526
    2loPI   C1B   29  14.202  11.818   8.108  0.1380 -0.0255 -0.0959
    2loPI   C2B   30  14.170  11.680   7.748 -0.0270  0.1818  0.0893
    2loPI   C3B   31  13.998  11.513   7.295 -0.3203 -0.1689  0.0919
    2loPI   C4B   32  13.824  11.278   6.996 -0.1591  0.0628 -0.0811
    3loPI    C1   33  11.700  13.879   9.705 -0.3056 -0.3027 -0.1020
    3loPI    C2   34  12.029  13.654   9.737 -0.0397  0.1092  0.1592
    3loPI    C3   35  11.790  13.705  10.053 -0.1726  0.0847  0.0635
    3loPI   PO4   36  11.470  13.755   9.530 -0.2586  0.1447 -0.0836
    3loPI   GL1   37  11.358  13.926   9.115  0.0224 -0.0609  0.1483
    3loPI   GL2   38  11.140  13.741   8.881 -0.1510 -0.0003  0.3663
    3loPI   C1A   39  11.507  14.087   8.698 -0.1574 -0.0156  0.0571
    3loPI   C2A   40  11.690  14.132   8.258 -0.0502 -0.1723  0.5538
    3loPI   C3A   41  11.628  14.215   7.883  0.3043 -0.0691 -0.0481
    3loPI   C4A   42  11.553  14.257   7.342 -0.2342 -0.1888  0.2972
    3loPI   C5A   43  11.602  14.238   6.874  0.2331  0.3344 -0.1581
    3loPI   C6A   44  11.601  14.467   6.537  0.1174 -0.0483  0.3803
    3loPI   C1B   45  11.301  13.586   8.369  0.0757 -0.0487 -0.0382
    3loPI   C2B   46  11.393  13.769   7.898  0.0104  0.4050 -0.0490
    3loPI   C3B   47  11.269  13.704   7.462 -0.2509  0.1458 -0.0234
    3loPI   C4B   48  11.598  13.826   7.150 -0.0349 -0.0815  0.0791
    4loPI    C1   49   3.293   9.790  10.093 -0.0480  0.0558  0.0975
    4loPI    C2   50   3.350  10.083   9.827  0.0443 -0.0750 -0.0282
    4loPI    C3   51   3.107  10.141  10.140 -0.2110  0.0180 -0.2397
    4loPI   PO4   52   3.262   9.575   9.940  0.0408 -0.2785 -0.1185
    4loPI   GL1   53   3.275   9.652   9.561 -0.2333  0.0510  0.0881
    4loPI   GL2   54   3.088   9.791   9.478 -0.3041 -0.0628 -0.0151
    4loPI   C1A   55   3.508   9.675   9.186 -0.1809  0.3514 -0.1210
    4loPI   C2A   56   3.635   9.473   8.856  0.0054 -0.0838  0.0010
    4loPI   C3A   57   3.690   9.416   8.370 -0.2743  0.0753 -0.1071
    4loPI   C4A   58   3.782   9.319   7.874  0.1383  0.1950  0.3024
    4loPI   C5A   59   3.869   9.655   7.714 -0.0980 -0.1224  0.2164
    4loPI   C6A   60   3.701   9.717   7.252 -0.0428  0.1043  0.3295
    4loPI   C1B   61   3.006   9.646   9.055  0.0236  0.0443  0.0797
    4loPI   C2B   62   3.097   9.592   8.691 -0.0621 -0.1082 -0.2374
    4loPI   C3B   63   3.086   9.469   8.327 -0.1469  0.0018  0.1667
    4loPI   C4B   64   2.928   8.988   8.251 -0.3781  0.0149 -0.2166
    5loPI    C1   65   7.167   9.114   9.779  0.1598  0.1678  0.3564
    5loPI    C2   66   7.244   9.280   9.424 -0.1115 -0.0816  0.1767
    5loPI    C3   67   7.325   9.481   9.760  0.0875  0.1828 -0.0248
    5loPI   PO4   68   6.952   8.966   9.667 -0.2410  0.1712  0.0101
    5loPI   GL1   69   6.917   8.719   9.255  0.2159  0.1556 -0.1215
    5loPI   GL2   70   6.784   8.780   9.117 -0.0342  0.0222  0.2279
    5loPI   C1A   71   7.145   9.083   8.963  0.1496  0.0534 -0.0854
    5loPI   C2A   72   7.365   8.986   8.474  0.0656  0.0048 -0.2024
    5loPI   C3A   73   7.390   8.817   8.170  0.2125  0.3463  0.0050
    5loPI   C4A   74   7.558   8.831   7.683 -0.1671  0.0406 -0.0434
    5loPI   C5A   75   7.529   8.778   7.320 -0.2815 -0.2838  0.0092
    5loPI   C6A   76   7.707   8.806   6.947 -0.1732 -0.0886 -0.3101
    5loPI   C1B   77   7.007   8.613   8.646  0.1723 -0.2333 -0.0210
    5loPI   C2B   78   6.917   8.312   8.270 -0.1298 -0.0873  0.0698
    5loPI   C3B   79   6.837   8.337   7.859 -0.1500 -0.2527 -0.3409
    5loPI   C4B   80   6.686   8.526   7.458 -0.1062 -0.1478  0.1778
    6loPI    C1   81   2.247   3.276   9.194 -0.0614  0.0457 -0.1085
    6loPI    C2   82   2.317   3.446   9.549  0.0348  0.0890 -0.1480
    6loPI    C3   83   2.137   3.655   9.259  0.0862  0.1001 -0.1717
    6loPI   PO4   84   2.057   2.973   9.172 -0.2271 -0.0158 -0.1287
    6loPI   GL1   85   2.162   2.747   8.893  0.2261 -0.1717 -0.0184
    6loPI   GL2   86   2.422   2.893   8.879 -0.2215 -0.2147 -0.0709
    6loPI   C1A   87   2.050   2.737   8.467 -0.0073  0.2911 -0.0089
    6loPI   C2A   88   2.210   2.831   8.116 -0.2918 -0.0511 -0.0421
    6loPI   C3A   89   2.476   2.811   7.779  0.3181 -0.0374  0.0470
    6loPI   C4A   90   2.885   2.732   7.867  0.0764 -0.1412  0.0032
    6loPI   C5A   91   3.302   2.581   7.798 -0.2276  0.0322  0.1218
    6loPI   C6A   92   3.731   2.619   7.538  0.3037  0.1468 -0.1911
    6loPI   C1B   93   2.572   3.039   8.452  0.1282  0.0789  0.2856
    6loPI   C2B   94   2.743   3.193   8.097  0.0867  0.1080  0.1350
    6loPI   C3B   95   2.908   3.115   7.617  0.1039  0.1469 -0.0680
    6loPI   C4B   96   2.978   2.761   7.349  0.1249 -0.0870  0.0577
    7loPI    C1   97   5.214  16.460   9.510  0.1396  0.2537 -0.0640
    7loPI    C2   98   5.047  16.362   9.860  0.1577  0.2681 -0.0514
    7loPI    C3   99   5.439  16.443   9.840  0.2027  0.0433 -0.1160
    7loPI   PO4  100   5.095  16.385   9.275  0.2058  0.1615 -0.2146
    7loPI   GL1  101   4.979  16.348   8.848  0.2901 -0.0466  0.0713
    7loPI   GL2  102   4.603  16.259   8.690 -0.1489 -0.0791 -0.0257
    7loPI   C1A  103   4.902  15.878   8.683  0.1148  0.1162 -0.0358
    7loPI   C2A  104   5.180  15.767   8.342  0.3041  0.0270  0.0112
    7loPI   C3A  105   5.339  15.772   7.993 -0.0585 -0.1056 -0.0285
    7loPI   C4A  106   5.780  15.646   7.791  0.3236  0.5552 -0.1722
    7loPI   C5A  107   6.066  15.769   7.445 -0.1646 -0.0832  0.0927
    7loPI   C6A  108   6.371  16.033   7.162 -0.2464  0.3260 -0.2388
    7loPI   C1B  109   4.801  16.609   8.327  0.0137 -0.3558  0.2293
    7loPI   C2B  110   4.852  16.762   7.962 -0.0291  0.3051 -0.2256
    7loPI   C3B  111   4.735  16.992   7.573 -0.2069  0.1670 -0.0959
    7loPI   C4B  112   4.808  17.212   7.169 -0.0973 -0.0924  0.0580
    8loPI    C1  113  14.552  10.285   9.433  0.0767 -0.0410 -0.3165
    8loPI    C2  114  14.463   9.900   9.377 -0.1301 -0.0409 -0.0149
    8loPI    C3  115  14.783  10.001   9.594 -0.0679 -0.0416 -0.1056
    8loPI   PO4  116  14.414  10.428   9.163  0.0652 -0.0225 -0.2080
    8loPI   GL1  117  14.413  10.606   8.754 -0.1822  0.1551 -0.0242
    8loPI   GL2  118  14.221  10.783   8.516  0.0559  0.4477  0.1522
    8loPI   C1A  119  14.750  10.503   8.388 -0.2912 -0.1667  0.1203
    8loPI   C2A  120  14.791  10.328   7.997  0.1273 -0.0879  0.1304
    8loPI   C3A  121  14.544  10.076   7.710 -0.1333  0.2271 -0.1249
    8loPI   C4A  122  14.306  10.140   7.307 -0.2169  0.0350 -0.1088
    8loPI   C5A  123  14.157  10.338   6.826  0.1014 -0.0156 -0.0945
    8loPI   C6A  124  13.951  10.595   6.500 -0.3157 -0.1485  0.0485
    8loPI   C1B  125  14.271  10.640   8.033 -0.0662  0.1442  0.3856
    8loPI   C2B  126  14.277  10.562   7.563  0.1359  0.1109 -0.3358
    8loPI   C3B  127  14.186  10.716   7.173 -0.2223  0.1614  0.1582
    8loPI   C4B  128  14.175  10.962   6.844  0.0596  0.1795  0.3025
    9loPI    C1  129   9.755  12.436   9.941  0.0757  0.0979 -0.0449
    9loPI    C2  130   9.926  12.215  10.227 -0.1098  0.0195  0.0068
    9loPI    C3  131   9.840  12.600  10.296  0.0961  0.0750 -0.0391
    9loPI   PO4  132   9.978  12.293   9.749  0.2585 -0.0983  0.3644
    9loPI   GL1  133   9.956  12.058   9.341 -0.0157 -0.0016 -0.0871
    9loPI   GL2  134   9.953  11.772   9.239 -0.0331 -0.1524  0.0571
    9loPI   C1A  135  10.254  12.320   9.050 -0.3865 -0.4470 -0.1117
    9loPI   C2A  136  10.312  12.656   8.753  0.0283 -0.0850  0.0396
    9loPI   C3A  137  10.532  12.759   8.332  0.0820  0.1067 -0.0725
    9loPI   C4A  138  10.661  12.925   7.901  0.2120 -0.2787  0.2861
    9loPI   C5A  139  10.521  12.699   7.472  0.0097  0.0415 -0.0599
    9loPI   C6A  140  10.778  12.645   6.998 -0.2193 -0.2221  0.1590
    9loPI   C1B  141   9.884  12.061   8.878 -0.0058  0.0373  0.0648
    9loPI   C2B  142   9.923  12.207   8.540 -0.0062  0.1125  0.2255
    9loPI   C3B  143   9.941  12.612   8.291  0.1364 -0.3214 -0.1304
    9loPI   C4B  144  10.131  12.944   7.984  0.3114  0.1334 -0.2629
   10loPI    C1  145  15.331  13.429   9.699  0.0557 -0.0973  0.1133
   10loPI    C2  146  15.361  13.033   9.752  0.1470 -0.0851  0.1535
   10loPI    C3  147  15.430  13.283  10.058 -0.1024 -0.0450  0.1794
   10loPI   PO4  148  15.486  13.502   9.440 -0.1535  0.0227 -0.0112
   10loPI   GL1  149  15.659  13.342   9.058  0.1904  0.1829  0.1903
   10loPI   GL2  150  15.416  13.480   8.847 -0.1307  0.0281  0.0595
   10loPI   C1A  151  15.793  13.509   8.526  0.1959 -0.0517  0.1309
   10loPI   C2A  152  16.027  13.749   8.172 -0.0220 -0.3997 -0.3644
   10loPI   C3A  153  16.338  13.808   7.975 -0.0804 -0.0057 -0.2827
   10loPI   C4A  154  16.631  13.811   7.708  0.1624  0.1248  0.2335
   10loPI   C5A  155  16.760  14.189   7.566  0.0055  0.0736  0.1440
   10loPI   C6A  156  16.689  14.494   7.326  0.0660 -0.1710  0.0804
   10loPI   C1B  157  15.294  13.415   8.483  0.2873  0.1232  0.1603
   10loPI   C2B  158  15.538  13.476   8.087  0.0078  0.1123  0.1298
   10loPI   C3B  159  15.730  13.435   7.637 -0.2384  0.2046 -0.2417
   10loPI   C4B  160  15.783  13.201   7.221 -0.0865 -0.3139  0.1040
   11loPI    C1  161  17.710  19.304   9.880  0.2469  0.0723  0.0916
   11loPI    C2  162  17.927  19.153  10.181  0.3161 -0.2754 -0.1260
   11loPI    C3  163  17.771  19.521  10.210  0.2576 -0.3327  0.3629
   11loPI   PO4  164  17.773  19.327   9.698 -0.2460  0.2371  0.0015
   11loPI   GL1  165  17.723  19.202   9.264 -0.1115  0.1505 -0.1442
   11loPI   GL2  166  17.442  19.193   9.122 -0.1922  0.0721  0.0579
   11loPI   C1A  167  18.013  19.062   8.909  0.2290 -0.3397 -0.1551
   11loPI   C2A  168  17.986  19.110   8.476 -0.0282  0.1829 -0.0606
   11loPI   C3A  169  17.909  19.322   8.075  0.1246 -0.2122 -0.0332
   11loPI   C4A  170  17.629  19.428   7.860  0.0362  0.0433 -0.1946
   11loPI   C5A  171  17.557  19.589   7.525 -0.0214  0.1099  0.2248
   11loPI   C6A  172  17.359  19.756   7.227 -0.2011 -0.0195  0.3065
   11loPI   C1B  173  17.482  19.037   8.647  0.0867  0.2545 -0.0505
   11loPI   C2B  174  17.559  18.954   8.264  0.0294 -0.1837  0.0381
   11loPI   C3B  175  17.690  18.835   7.918 -0.1238 -0.1209  0.0964
   11loPI   C4B  176  17.388  18.716   7.538 -0.2361  0.2600 -0.2364
   12loPI    C1  177   2.686   8.945   9.814 -0.0708 -0.1051  0.1376
   12loPI    C2  178   2.929   8.641   9.908  0.0441 -0.0531  0.0119
   12loPI    C3  179   2.947   8.983  10.115 -0.1530 -0.1641  0.2169
   12loPI   PO4  180   2.628   8.911   9.553  0.0372  0.0557  0.3161
   12loPI   GL1  181   2.469   9.097   9.239  0.1417  0.1237  0.3294
   12loPI   GL2  182   2.170   8.922   9.272 -0.2245  0.1802 -0.0854
   12loPI   C1A  183   2.580   9.103   8.838  0.0730 -0.0769 -0.0833
   12loPI   C2A  184   2.403   9.272   8.420  0.1284  0.2804 -0.1910
   12loPI   C3A  185   2.245   9.244   8.147 -0.0252 -0.1459 -0.1596
   12loPI   C4A  186   1.900   9.386   7.886 -0.0549 -0.1994 -0.3198
   12loPI   C5A  187   1.930   9.609   7.513 -0.1301  0.3630  0.0664
   12loPI   C6A  188   2.011  10.024   7.513 -0.1181  0.0820  0.0076
   12loPI   C1B  189   2.108   8.932   8.840  0.3814 -0.1538 -0.2166
   12loPI   C2B  190   1.896   9.167   8.481  0.3146 -0.1362 -0.2985
   12loPI   C3B  191   1.625   9.166   8.243 -0.1349  0.0111  0.3334
   12loPI   C4B  192   1.464   9.155   7.785 -0.1498 -0.2223  0.1093
   13loPI    C1  193  14.295  12.185   9.176 -0.1062 -0.0739  0.0485
   13loPI    C2  194  13.956  12.207   9.387 -0.1235  0.2226 -0.0057
   13loPI    C3  195  14.266  12.439   9.483 -0.0688  0.2296 -0.1943
   13loPI   PO4  196  14.204  12.141   8.950 -0.1906 -0.0346 -0.1460
   13loPI   GL1  197  13.981  12.117   8.545 -0.1686  0.0509 -0.1548
   13loPI   GL2  198  13.934  11.819   8.561 -0.0083  0.3944  0.1046
   13loPI   C1A  199  13.749  12.254   8.306 -0.0812 -0.2068  0.1274
   13loPI   C2A  200  13.654  12.037   7.926  0.0206 -0.2975  0.0421
   13loPI   C3A  201  13.709  11.785   7.577  0.2489 -0.0617  0.0547
   13loPI   C4A  202  13.606  11.764   7.109 -0.1796  0.1010  0.0281
   13loPI   C5A  203  13.588  12.035   6.726 -0.0053  0.1028 -0.3081
   13loPI   C6A  204  13.358  12.433   6.789 -0.2600 -0.3560 -0.0807
   13loPI   C1B  205  13.749  11.591   8.208 -0.0297 -0.1159 -0.1216
   13loPI   C2B  206  13.732  11.385   7.906  0.3432 -0.4562  0.1151
   13loPI   C3B  207  13.579  11.324   7.528  0.1996  0.0105  0.2334
   13loPI   C4B  208  13.288  11.261   7.183  0.0140  0.1531 -0.0290
   14loPI    C1  209  16.380  13.095   9.271 -0.1273 -0.2190  0.0441
   14loPI    C2  210  16.645  12.829   9.132  0.1103  0.0591 -0.0447
   14loPI    C3  211  16.617  12.897   9.525  0.3368  0.1962 -0.0508
   14loPI   PO4  212  16.107  12.970   9.044 -0.1139  0.0079 -0.1745
   14loPI   GL1  213  15.799  12.999   8.668  0.0358 -0.2417  0.0158
   14loPI   GL2  214  16.062  12.873   8.502  0.0997 -0.3192 -0.3844
   14loPI   C1A  215  15.441  12.910   8.249  0.1646 -0.1004  0.2193
   14loPI   C2A  216  15.201  13.075   8.053 -0.1007 -0.3386  0.0124
   14loPI   C3A  217  14.872  12.963   7.776 -0.0683 -0.0241 -0.2519
   14loPI   C4A  218  14.993  12.630   7.511  0.1594 -0.1761  0.0678
   14loPI   C5A  219  15.162  12.364   7.087 -0.1101 -0.2930  0.0309
   14loPI   C6A  220  15.312  12.310   6.725  0.0486  0.1548 -0.1430
   14loPI   C1B  221  16.315  12.865   8.183 -0.2660 -0.1218  0.2259
   14loPI   C2B  222  16.326  12.749   7.653 -0.0366  0.4442  0.0510
   14loPI   C3B  223  16.122  12.763   7.234 -0.4402  0.0044  0.0011
   14loPI   C4B  224  16.064  12.901   6.775  0.0466 -0.0362  0.3551
   15loPI    C1  225   9.168  19.319   9.286 -0.1134 -0.0231  0.0268
   15loPI    C2  226   9.562  19.356   9.230 -0.1447  0.2321 -0.0364
   15loPI    C3  227   9.420  19.253   9.589 -0.0089 -0.1322 -0.0827
   15loPI   PO4  228   9.046  19.121   9.142 -0.1130 -0.3095 -0.1433
   15loPI   GL1  229   9.068  18.790   8.851 -0.0383 -0.2237 -0.0814
   15loPI   GL2  230   8.820  18.975   8.722 -0.0657  0.0195 -0.0627
   15loPI   C1A  231   9.172  18.842   8.367 -0.1831  0.1415  0.0146
   15loPI   C2A  232   8.988  18.770   8.076  0.0323 -0.0807  0.1300
   15loPI   C3A  233   8.802  18.796   7.649  0.1151  0.1527 -0.0463
   15loPI   C4A  234   8.685  18.797   7.299  0.1675  0.1457 -0.3008
   15loPI   C5A  235   8.292  19.002   7.077  0.1907 -0.1433 -0.0164
   15loPI   C6A  236   8.267  19.474   7.177  0.0150  0.2343 -0.2060
   15loPI   C1B  237   8.750  18.616   8.499  0.0325  0.2143  0.2248
   15loPI   C2B  238   8.686  18.419   8.157  0.0459 -0.1678 -0.2931
   15loPI   C3B  239   8.663  18.302   7.802 -0.2589  0.0953 -0.0032
   15loPI   C4B  240   8.708  18.313   7.424 -0.3043  0.1249  0.3088
   16loPI    C1  241  12.237  12.935   9.910 -0.1269 -0.0226 -0.1435
   16loPI    C2  242  11.968  12.639   9.920  0.0122 -0.1421  0.2322
   16loPI    C3  243  12.295  12.620  10.150  0.2276  0.1127 -0.0454
   16loPI   PO4  244  12.172  12.963   9.579 -0.2276  0.1498  0.0357
   16loPI   GL1  245  12.263  13.368   9.351 -0.2393  0.3429  0.1654
   16loPI   GL2  246  12.010  13.182   9.142 -0.2774  0.3566  0.2450
   16loPI   C1A  247  12.300  13.585   8.897  0.1307  0.2309 -0.2349
   16loPI   C2A  248  12.496  13.540   8.545 -0.0213 -0.3669  0.1868
   16loPI   C3A  249  12.655  13.230   8.269  0.1221 -0.3025 -0.0043
   16loPI   C4A  250  12.600  12.812   8.062  0.1546  0.1320 -0.0187
   16loPI   C5A  251  12.426  12.664   7.677  0.1559 -0.2602  0.1386
   16loPI   C6A  252  12.356  12.723   7.286 -0.4024  0.1379  0.0502
   16loPI   C1B  253  12.105  13.206   8.665  0.0561 -0.1298 -0.0464
   16loPI   C2B  254  12.139  13.344   8.299  0.0469 -0.2394 -0.1673
   16loPI   C3B  255  12.304  13.402   7.824  0.0992 -0.1942 -0.0580
   16loPI   C4B  256  12.358  13.266   7.397  0.0450 -0.0463 -0.0102
   17loPI    C1  257  11.475   8.534   9.498  0.0498  0.0667 -0.2549
   17loPI    C2  258  11.620   8.198   9.658 -0.2674  0.0609  0.0309
   17loPI    C3  259  11.842   8.531   9.658 -0.1074 -0.0443  0.1137
   17loPI   PO4  260  11.338   8.504   9.244  0.2317 -0.2884 -0.0338
   17loPI   GL1  261  11.368   8.450   8.873 -0.2689 -0.0145 -0.1603
   17loPI   GL2  262  11.539   8.250   8.702 -0.0780 -0.0446  0.1246
   17loPI   C1A  263  11.287   8.544   8.350  0.1354 -0.0106 -0.0269
   17loPI   C2A  264  11.115   8.558   7.836 -0.0849  0.1857 -0.1190
   17loPI   C3A  265  10.940   8.578   7.355  0.2547 -0.1916  0.2248
   17loPI   C4A  266  11.250   8.487   6.979 -0.1450  0.2640 -0.3232
   17loPI   C5A  267  11.738   8.490   6.934 -0.1838  0.1112  0.0889
   17loPI   C6A  268  11.855   8.679   6.561 -0.0210 -0.0637 -0.1128
   17loPI   C1B  269  11.722   8.319   8.320  0.1966 -0.3270 -0.2330
   17loPI   C2B  270  11.678   8.401   7.901  0.0721  0.1055 -0.0754
   17loPI   C3B  271  11.500   8.290   7.486 -0.0404 -0.1851 -0.0823
   17loPI   C4B  272  11.555   8.096   7.096  0.0058  0.2435  0.4225
   18loPI    C1  273  19.230   8.731   9.758 -0.1971 -0.0128 -0.0616
   18loPI    C2  274  19.550   8.919   9.908 -0.2344 -0.0521  0.0694
   18loPI    C3  275  19.266   8.781  10.153 -0.4161  0.0959 -0.0542
   18loPI   PO4  276  19.152   8.873   9.559 -0.0584 -0.2620 -0.0983
   18loPI   GL1  277  19.307   8.935   9.044  0.2237 -0.0891  0.4495
   18loPI   GL2  278  19.134   8.624   9.135 -0.1354  0.1106 -0.0069
   18loPI   C1A  279  19.141   8.905   8.580 -0.0192 -0.0312  0.2662
   18loPI   C2A  280  18.902   9.074   8.184  0.1110 -0.1364  0.0358
   18loPI   C3A  281  18.677   9.118   7.659  0.1275 -0.1202 -0.1678
   18loPI   C4A  282  18.645   8.994   7.144  0.0537 -0.1149 -0.2176
   18loPI   C5A  283  18.679   9.133   6.708  0.2178  0.1551 -0.3155
   18loPI   C6A  284  18.629   9.112   6.284  0.1129 -0.2565 -0.1508
   18loPI   C1B  285  18.996   8.438   8.722  0.0435 -0.2581  0.3370
   18loPI   C2B  286  18.718   8.654   8.382  0.0176  0.6658  0.2443
   18loPI   C3B  287  18.681   8.647   7.883 -0.1414 -0.0433  0.2090
   18loPI   C4B  288  18.713   8.468   7.498  0.2010 -0.1384  0.0899
   19loPI    C1  289  13.974  15.135   9.618  0.1468 -0.0693 -0.1231
   19loPI    C2  290  13.907  14.780   9.446  0.3303 -0.2234  0.1173
   19loPI    C3  291  13.816  14.836   9.832 -0.1750  0.1506 -0.0443
   19loPI   PO4  292  14.014  15.352   9.368  0.1449  0.0637  0.2754
   19loPI   GL1  293  13.774  15.225   9.091 -0.0454 -0.0780  0.2123
   19loPI   GL2  294  13.708  15.046   8.916  0.3162 -0.1510  0.1099
   19loPI   C1A  295  13.735  15.495   8.632 -0.1121 -0.1391 -0.1821
   19loPI   C2A  296  13.621  15.495   8.192 -0.1304  0.2080  0.1422
   19loPI   C3A  297  13.641  15.315   7.716 -0.1419 -0.0911  0.3732
   19loPI   C4A  298  13.741  15.297   7.277  0.1624  0.4124  0.3075
   19loPI   C5A  299  14.024  15.271   6.994 -0.1504 -0.1350  0.4768
   19loPI   C6A  300  14.424  15.281   6.753 -0.1575 -0.3111 -0.3116
   19loPI   C1B  301  13.860  15.013   8.496  0.0751 -0.5578 -0.1274
   19loPI   C2B  302  13.973  14.945   8.061  0.1178  0.3552 -0.2726
   19loPI   C3B  303  13.972  14.941   7.619  0.0186  0.1426 -0.1127
   19loPI   C4B  304  14.036  14.799   7.169 -0.0489 -0.0994  0.1400
   20loPI    C1  305  15.704  17.961   9.632  0.2326 -0.1030 -0.2406
   20loPI    C2  306  15.951  18.274   9.663  0.0136  0.0506 -0.0020
   20loPI    C3  307  16.023  17.942   9.873  0.0919  0.0443 -0.0387
   20loPI   PO4  308  15.708  17.894   9.314  0.0237  0.0222  0.1670
   20loPI   GL1  309  15.842  17.502   9.035  0.1596 -0.1546  0.1102
   20loPI   GL2  310  15.924  17.784   8.866 -0.0769  0.0492  0.0797
   20loPI   C1A  311  15.850  17.273   8.698  0.0127  0.1129  0.2513
   20loPI   C2A  312  15.761  17.203   8.362  0.0459  0.3767  0.4331
   20loPI   C3A  313  15.799  17.113   7.912 -0.3296  0.0427  0.0207
   20loPI   C4A  314  16.040  16.995   7.468 -0.0804 -0.3571 -0.4015
   20loPI   C5A  315  16.455  16.917   7.242 -0.4442 -0.0769  0.0134
   20loPI   C6A  316  16.862  16.780   7.084 -0.2182  0.2806  0.1991
   20loPI   C1B  317  16.092  17.715   8.496 -0.3358 -0.0580 -0.0479
   20loPI   C2B  318  15.995  17.556   8.109 -0.3857  0.1183 -0.4824
   20loPI   C3B  319  15.938  17.527   7.670  0.2238  0.1736  0.1142
   20loPI   C4B  320  15.943  17.640   7.304  0.0705  0.1072 -0.1219
   21loPI    C1  321   0.690  10.414   9.957 -0.0628  0.1604  0.2816
   21loPI    C2  322   0.641  10.105  10.206  0.3343 -0.2856 -0.1682
   21loPI    C3  323   0.963  10.340  10.240  0.0522  0.0698  0.1486
   21loPI   PO4  324   0.707  10.337   9.726  0.1094  0.0597 -0.2077
   21loPI   GL1  325   0.626  10.366   9.352  0.0563  0.2586 -0.3147
   21loPI   GL2  326   0.514  10.027   9.310 -0.1404  0.0616  0.0106
   21loPI   C1A  327   0.222  10.338   9.029 -0.0207 -0.2610  0.4002
   21loPI   C2A  328   0.060  10.357   8.636 -0.2596 -0.1132 -0.2645
   21loPI   C3A  329   0.167  10.238   8.208  0.0807  0.1189 -0.0804
   21loPI   C4A  330   0.450  10.368   7.921 -0.2691  0.1020 -0.0700
   21loPI   C5A  331   0.333  10.095   7.519 -0.1016  0.0291 -0.2854
   21loPI   C6A  332   0.584   9.957   7.047 -0.0151 -0.0993  0.0759
   21loPI   C1B  333   0.817  10.202   8.918  0.1300 -0.2091  0.0448
   21loPI   C2B  334   0.604  10.296   8.581  0.3987  0.1127  0.1402
   21loPI   C3B  335   0.435  10.637   8.501 -0.1771  0.0869 -0.0574
   21loPI   C4B  336   0.342  10.905   8.822  0.1158 -0.5056 -0.3487
   22loPI    C1  337  12.188   9.007   9.060 -0.1159 -0.1051 -0.1884
   22loPI    C2  338  12.525   8.810   8.973  0.0406  0.1338 -0.1306
   22loPI    C3  339  12.258   8.649   9.223  0.2455  0.0680  0.0482
   22loPI   PO4  340  12.089   9.107   8.911 -0.2986 -0.1484 -0.2676
   22loPI   GL1  341  11.677   9.416   8.818  0.0300 -0.2567 -0.4598
   22loPI   GL2  342  11.420   9.455   8.916  0.0765  0.0856 -0.0582
   22loPI   C1A  343  11.650   9.482   8.358 -0.0905 -0.0744 -0.1438
   22loPI   C2A  344  11.735   9.380   7.951  0.3684 -0.0124 -0.1352
   22loPI   C3A  345  11.669   9.376   7.504 -0.0637 -0.2276  0.3445
   22loPI   C4A  346  12.060   9.282   7.337  0.2598 -0.0264  0.2599
   22loPI   C5A  347  11.974   9.138   6.899 -0.1748 -0.0623 -0.1739
   22loPI   C6A  348  11.761   9.402   6.543  0.1264 -0.0290  0.1559
   22loPI   C1B  349  11.173   9.397   8.604 -0.4191  0.2808 -0.3495
   22loPI   C2B  350  10.910   9.155   8.302  0.1262 -0.0772  0.2854
   22loPI   C3B  351  10.649   9.009   7.934  0.0210 -0.1991 -0.2030
   22loPI   C4B  352  10.654   8.969   7.556  0.1456  0.2409 -0.0875
   23loPI    C1  353   8.456   1.843   9.345  0.0704 -0.2653 -0.0072
   23loPI    C2  354   8.445   2.108   9.644 -0.0469 -0.2656 -0.0107
   23loPI    C3  355   8.107   2.003   9.458  0.0342 -0.2116 -0.1911
   23loPI   PO4  356   8.590   1.865   9.188  0.0888  0.4591  0.0228
   23loPI   GL1  357   8.863   1.996   8.887 -0.1757  0.0780 -0.1766
   23loPI   GL2  358   8.860   2.332   8.787  0.0176  0.2586 -0.5061
   23loPI   C1A  359   8.951   1.987   8.433  0.0434  0.0837  0.2073
   23loPI   C2A  360   9.052   1.805   8.046 -0.2079  0.0719  0.1969
   23loPI   C3A  361   9.123   1.423   7.876 -0.1326  0.1978  0.2633
   23loPI   C4A  362   9.359   1.259   7.482  0.1245 -0.0530 -0.0620
   23loPI   C5A  363   9.459   1.110   7.088  0.2233  0.1017  0.0175
   23loPI   C6A  364   9.592   1.400   6.697 -0.0318 -0.0672  0.5648
   23loPI   C1B  365   8.790   2.466   8.437  0.0864  0.2884 -0.0796
   23loPI   C2B  366   8.856   2.332   8.006  0.3788  0.1980  0.0540
   23loPI   C3B  367   8.866   2.446   7.568 -0.5254  0.3228 -0.0082
   23loPI   C4B  368   8.769   2.535   7.170  0.0546  0.1134 -0.2212
   24loPI    C1  369   4.051  19.577   9.569 -0.2447  0.0533 -0.0164
   24loPI    C2  370   3.926  19.284   9.811 -0.0647 -0.0919 -0.0968
   24loPI    C3  371   4.293  19.438   9.856 -0.1692  0.1445 -0.0352
   24loPI   PO4  372   3.843  19.398   9.228  0.1940 -0.3639  0.2133
   24loPI   GL1  373   3.739  19.393   8.781  0.3221 -0.1271  0.0868
   24loPI   GL2  374   4.074  19.565   8.803  0.0659  0.2567  0.3133
   24loPI   C1A  375   3.585  19.460   8.416 -0.0189  0.2446  0.2085
   24loPI   C2A  376   3.507  19.201   8.172  0.3543  0.0053 -0.0091
   24loPI   C3A  377   3.537  19.173   7.696  0.0483 -0.0331  0.1533
   24loPI   C4A  378   3.186  19.355   7.447  0.2295  0.2410  0.1881
   24loPI   C5A  379   2.945  19.470   7.103  0.0732 -0.0282 -0.2170
   24loPI   C6A  380   2.617  19.808   7.112 -0.1203 -0.3734 -0.0134
   24loPI   C1B  381   4.020  19.733   8.408 -0.3790  0.1537 -0.0828
   24loPI   C2B  382   3.824  19.646   8.040 -0.0850  0.0051 -0.1308
   24loPI   C3B  383   3.960  19.465   7.716 -0.2994  0.0637 -0.2470
   24loPI   C4B  384   4.099  19.391   7.295 -0.4162 -0.0032 -0.0371
   25loPI    C1  385   6.015  14.607   9.828 -0.2761  0.1504 -0.1671
   25loPI    C2  386   5.626  14.513   9.810 -0.2452  0.0106 -0.1209
   25loPI    C3  387   5.766  14.725  10.119 -0.2145 -0.2830  0.0698
   25loPI   PO4  388   6.015  14.622   9.543  0.2056 -0.1797 -0.0952
   25loPI   GL1  389   5.997  14.828   9.146  0.3886 -0.0037 -0.0955
   25loPI   GL2  390   5.629  14.908   9.218 -0.0847  0.1088  0.3017
   25loPI   C1A  391   6.192  14.472   8.823  0.1081 -0.0181  0.2266
   25loPI   C2A  392   6.289  14.528   8.366  0.2361  0.1127 -0.0348
   25loPI   C3A  393   6.424  14.795   8.071 -0.3836  0.0048  0.0894
   25loPI   C4A  394   6.406  14.805   7.634 -0.0831 -0.0466  0.1685
   25loPI   C5A  395   6.561  14.834   7.209 -0.0139 -0.0706  0.0879
   25loPI   C6A  396   6.895  15.250   7.018 -0.0239 -0.1693  0.0113
   25loPI   C1B  397   5.716  14.785   8.733 -0.0574  0.0114  0.2244
   25loPI   C2B  398   5.573  14.822   8.383 -0.1025  0.0404 -0.0859
   25loPI   C3B  399   5.535  14.758   8.023  0.2657  0.1528  0.0472
   25loPI   C4B  400   5.448  14.534   7.669 -0.0641 -0.0341  0.0475
   26loPI    C1  401  12.982   2.238   9.451 -0.0871  0.1014  0.2812
   26loPI    C2  402  12.592   2.309   9.502 -0.1487 -0.0441  0.0337
   26loPI    C3  403  12.783   2.057   9.747 -0.1553  0.2013  0.2970
   26loPI   PO4  404  12.974   2.203   9.137 -0.1909  0.0567  0.1618
   26loPI   GL1  405  12.960   2.405   8.769  0.3291  0.2751 -0.4594
   26loPI   GL2  406  13.160   2.133   8.656  0.3484 -0.1564  0.0225
   26loPI   C1A  407  12.837   2.582   8.402 -0.1705 -0.1524 -0.3574
   26loPI   C2A  408  12.755   2.604   8.009  0.1624  0.2463  0.0202
   26loPI   C3A  409  12.766   2.685   7.579  0.1954  0.1352 -0.1391
   26loPI   C4A  410  12.605   2.907   7.221 -0.0503  0.1365 -0.4139
   26loPI   C5A  411  12.518   3.192   6.917 -0.2061 -0.1885  0.1934
   26loPI   C6A  412  12.664   3.526   6.723 -0.0969  0.0502  0.0308
   26loPI   C1B  413  12.882   2.015   8.358  0.3037 -0.1233 -0.2641
   26loPI   C2B  414  12.963   1.965   7.975  0.3055 -0.2253  0.2086
   26loPI   C3B  415  12.839   2.171   7.633 -0.1860  0.1881 -0.1496
   26loPI   C4B  416  12.933   2.390   7.251 -0.2069  0.1452  0.0374
   27loPI    C1  417   3.957   6.668   9.503 -0.0670 -0.1031 -0.1272
   27loPI    C2  418   3.872   6.297   9.380 -0.1899 -0.0129 -0.3196
   27loPI    C3  419   3.708   6.439   9.717  0.1764 -0.2742 -0.0224
   27loPI   PO4  420   4.208   6.683   9.441 -0.0145  0.0047 -0.3092
   27loPI   GL1  421   4.259   6.629   9.056 -0.1813  0.0198  0.0526
   27loPI   GL2  422   3.862   6.663   8.998 -0.1660  0.1557  0.1590
   27loPI   C1A  423   4.373   6.431   8.673  0.0139 -0.0512  0.1569
   27loPI   C2A  424   4.641   6.172   8.339  0.2088  0.1713 -0.3434
   27loPI   C3A  425   4.847   6.112   7.997 -0.2684 -0.0593  0.0372
   27loPI   C4A  426   4.833   6.320   7.565 -0.1008  0.0831  0.2728
   27loPI   C5A  427   4.642   5.967   7.166 -0.1028 -0.0982 -0.2654
   27loPI   C6A  428   4.798   5.374   7.094  0.4092 -0.0086  0.0142
   27loPI   C1B  429   3.735   6.364   8.666  0.1608  0.1953  0.1234
   27loPI   C2B  430   3.642   6.342   8.245 -0.2735 -0.0298 -0.3820
   27loPI   C3B  431   3.822   6.283   7.820 -0.1764 -0.1422 -0.0433
   27loPI   C4B  432   3.685   6.151   7.361 -0.0342 -0.1226  0.2615
   28loPI    C1  433  18.378  16.415   9.444  0.2633  0.1986 -0.0959
   28loPI    C2  434  18.394  16.116   9.178  0.0061  0.0753  0.0239
   28loPI    C3  435  18.379  16.035   9.570  0.0133  0.2471  0.0604
   28loPI   PO4  436  18.332  16.585   9.237 -0.1183  0.0129  0.2998
   28loPI   GL1  437  18.506  16.563   8.845  0.1292  0.1381  0.2458
   28loPI   GL2  438  18.629  16.247   8.731  0.3084 -0.2426  0.1518
   28loPI   C1A  439  18.407  16.851   8.484 -0.3065 -0.1858 -0.2089
   28loPI   C2A  440  18.583  16.770   8.077 -0.2670 -0.2605  0.0841
   28loPI   C3A  441  18.704  16.651   7.708 -0.1267 -0.4467  0.1314
   28loPI   C4A  442  18.918  16.357   7.443 -0.1431 -0.5229 -0.1890
   28loPI   C5A  443  19.280  16.365   7.152  0.2592 -0.0609  0.1570
   28loPI   C6A  444  19.527  16.106   7.165 -0.0339  0.4348 -0.0810
   28loPI   C1B  445  18.788  16.236   8.305  0.1894  0.0059  0.0679
   28loPI   C2B  446  19.022  16.203   8.002 -0.0297  0.0889  0.1485
   28loPI   C3B  447  19.185  15.882   7.562 -0.0632  0.2075 -0.1059
   28loPI   C4B  448  19.457  15.606   7.294 -0.1176 -0.1199 -0.0842
   29loPI    C1  449   1.727   4.369   9.736  0.0146  0.1939  0.1807
   29loPI    C2  450   1.355   4.508   9.687 -0.1280 -0.1947  0.1247
   29loPI    C3  451   1.463   4.344  10.035 -0.0096 -0.0906  0.1382
   29loPI   PO4  452   1.819   4.529   9.498 -0.2946 -0.0958  0.0193
   29loPI   GL1  453   1.710   4.420   9.077  0.0961 -0.0152  0.0626
   29loPI   GL2  454   1.746   4.023   8.964 -0.0414 -0.0721 -0.0946
   29loPI   C1A  455   1.974   4.459   8.772 -0.2417  0.2821 -0.0945
   29loPI   C2A  456   1.996   4.521   8.327  0.0566 -0.3751  0.0248
   29loPI   C3A  457   2.080   4.727   7.934  0.3927  0.0830  0.5147
   29loPI   C4A  458   2.128   4.918   7.584 -0.0646  0.1183 -0.1214
   29loPI   C5A  459   2.026   4.745   7.171  0.0262 -0.0880 -0.0171
   29loPI   C6A  460   2.123   4.658   6.713  0.3212  0.0178  0.2189
   29loPI   C1B  461   1.526   4.358   8.650 -0.3500 -0.0099 -0.2416
   29loPI   C2B  462   1.339   4.584   8.351  0.1360 -0.0213 -0.1351
   29loPI   C3B  463   1.141   4.254   8.139 -0.0145 -0.4775  0.1403
   29loPI   C4B  464   1.113   4.138   7.739 -0.0016  0.0820  0.0697
   30loPI    C1  465   6.038  15.183   9.517  0.2871  0.1264 -0.0301
   30loPI    C2  466   5.999  15.127   9.911 -0.0560  0.0767 -0.0682
   30loPI    C3  467   5.701  15.026   9.664  0.1200  0.1935 -0.3330
   30loPI   PO4  468   5.987  15.471   9.514  0.1211  0.0412 -0.0950
   30loPI   GL1  469   6.178  15.669   9.257  0.1992  0.1584 -0.0630
   30loPI   GL2  470   6.463  15.888   9.151  0.0004 -0.1022  0.0464
   30loPI   C1A  471   5.863  15.895   8.822  0.1803  0.1009  0.1669
   30loPI   C2A  472   5.722  15.688   8.479 -0.3745  0.1795  0.0121
   30loPI   C3A  473   5.827  15.261   8.342  0.3151 -0.1262 -0.1441
   30loPI   C4A  474   5.966  14.849   8.121 -0.3019  0.1736 -0.2499
   30loPI   C5A  475   5.942  14.625   7.872  0.0838  0.1464 -0.0245
   30loPI   C6A  476   5.981  14.792   7.443  0.0693  0.0184 -0.5300
   30loPI   C1B  477   6.332  16.170   8.770  0.2410 -0.0770  0.1658
   30loPI   C2B  478   6.272  16.423   8.490 -0.2167 -0.2245  0.4142
   30loPI   C3B  479   6.490  16.561   8.130  0.0199 -0.0521  0.0364
   30loPI   C4B  480   6.562  16.577   7.738  0.0602 -0.0046  0.1738
   31loPI    C1  481   5.393   6.782   9.389 -0.0869  0.0449  0.0874
   31loPI    C2  482   5.110   6.763   9.106 -0.0178 -0.1305  0.0289
   31loPI    C3  483   5.187   6.443   9.335  0.3921 -0.2094 -0.2096
   31loPI   PO4  484   5.591   6.924   9.229  0.5146 -0.2140 -0.1627
   31loPI   GL1  485   5.645   6.999   8.791  0.0409 -0.0724  0.4016
   31loPI   GL2  486   5.987   6.949   8.791  0.3471 -0.1293  0.2464
   31loPI   C1A  487   5.697   6.907   8.333  0.0111 -0.1850  0.3086
   31loPI   C2A  488   5.930   6.903   7.985  0.1305  0.3347  0.0698
   31loPI   C3A  489   6.079   7.108   7.476  0.1391 -0.2142 -0.1720
   31loPI   C4A  490   5.980   7.191   7.013 -0.3126 -0.1302  0.0008
   31loPI   C5A  491   6.123   7.643   6.794 -0.2281 -0.0884  0.0320
   31loPI   C6A  492   6.461   7.856   6.979 -0.2018  0.1633 -0.0221
   31loPI   C1B  493   6.393   7.146   8.619  0.0661 -0.2816  0.0943
   31loPI   C2B  494   6.795   7.244   8.435  0.2147 -0.0176 -0.3014
   31loPI   C3B  495   7.073   7.404   8.166 -0.1624 -0.1389  0.1526
   31loPI   C4B  496   7.429   7.604   7.963 -0.2892 -0.2997  0.6190
   32loPI    C1  497   7.562  19.820   9.302 -0.1692  0.2165 -0.0401
   32loPI    C2  498   7.916  19.919   9.460 -0.2254  0.1560  0.1261
   32loPI    C3  499   7.670  19.675   9.659 -0.0691 -0.3650 -0.2948
   32loPI   PO4  500   7.491  20.089   9.147  0.1323 -0.3695 -0.1377
   32loPI   GL1  501   7.151  20.266   8.794 -0.0355 -0.2545  0.1855
   32loPI   GL2  502   7.001  19.952   8.877 -0.2705 -0.0989 -0.2942
   32loPI   C1A  503   7.072  20.696   8.723 -0.1457  0.0347  0.0188
   32loPI   C2A  504   7.102  20.959   8.349  0.1951  0.0640  0.5047
   32loPI   C3A  505   7.087  21.001   7.890  0.2345 -0.1953  0.0008
   32loPI   C4A  506   6.946  20.894   7.515 -0.1073 -0.0113 -0.3859
   32loPI   C5A  507   6.771  20.933   7.157  0.1436 -0.1626  0.0166
   32loPI   C6A  508   6.421  20.888   6.790 -0.3805 -0.0410  0.2203
   32loPI   C1B  509   6.793  20.030   8.499 -0.3786  0.0402  0.0752
   32loPI   C2B  510   6.817  19.993   8.086 -0.2451 -0.0544 -0.1209
   32loPI   C3B  511   7.153  20.060   7.754 -0.1944 -0.0096 -0.2958
   32loPI   C4B  512   7.421  20.014   7.356  0.0358 -0.1497 -0.0950
   33loPI    C1  513  16.631   2.090   9.699 -0.0464 -0.2056  0.0848
   33loPI    C2  514  16.955   2.302   9.799 -0.0303 -0.1204 -0.1428
   33loPI    C3  515  16.590   2.452   9.863 -0.0270 -0.2131  0.1064
   33loPI   PO4  516  16.718   1.930   9.492 -0.0781 -0.4293 -0.3730
   33loPI   GL1  517  16.608   1.733   9.150 -0.0213  0.0590 -0.2793
   33loPI   GL2  518  16.579   2.174   9.077 -0.1561 -0.4082  0.0173
   33loPI   C1A  519  16.823   1.591   8.861 -0.2437 -0.0572  0.1290
   33loPI   C2A  520  17.106   1.705   8.577  0.1292 -0.0758  0.1891
   33loPI   C3A  521  17.077   1.558   8.099 -0.1476  0.2674  0.3463
   33loPI   C4A  522  17.172   1.278   7.748  0.0369  0.3228 -0.0081
   33loPI   C5A  523  17.075   1.298   7.357  0.1953 -0.4553 -0.3587
   33loPI   C6A  524  16.930   1.540   7.147  0.0744  0.0088  0.0565
   33loPI   C1B  525  16.563   1.930   8.680 -0.2078  0.0796 -0.2622
   33loPI   C2B  526  16.594   1.720   8.361 -0.2463  0.3734 -0.4131
   33loPI   C3B  527  16.556   1.494   8.027 -0.0800  0.3747 -0.2085
   33loPI   C4B  528  16.481   1.395   7.554  0.1458  0.1088  0.0492
   34loPI    C1  529  18.213  17.811   9.592 -0.3751 -0.1581  0.3272
   34loPI    C2  530  18.173  17.812   9.990 -0.3003  0.3941  0.3418
   34loPI    C3  531  18.393  18.094   9.810  0.0120 -0.0900 -0.0645
   34loPI   PO4  532  18.037  17.798   9.433  0.0263 -0.1956 -0.1818
   34loPI   GL1  533  18.006  17.906   9.027  0.1998  0.0708  0.0242
   34loPI   GL2  534  17.836  18.109   8.990  0.1667  0.1440  0.3424
   34loPI   C1A  535  18.193  17.705   8.592 -0.0344 -0.0348  0.0438
   34loPI   C2A  536  18.328  17.723   8.169  0.6195 -0.0403  0.0512
   34loPI   C3A  537  18.379  17.745   7.767  0.0455  0.1100 -0.3539
   34loPI   C4A  538  18.355  17.508   7.404 -0.1099 -0.0943 -0.1371
   34loPI   C5A  539  18.651  17.581   7.081 -0.2233  0.0522 -0.6398
   34loPI   C6A  540  18.918  17.736   6.807  0.0360  0.2749 -0.0196
   34loPI   C1B  541  17.846  18.159   8.612 -0.0416  0.0000 -0.4212
   34loPI   C2B  542  17.896  17.966   8.196 -0.1492 -0.2930  0.2459
   34loPI   C3B  543  17.937  17.953   7.790 -0.2472  0.1626 -0.0810
   34loPI   C4B  544  18.153  18.012   7.460 -0.0408 -0.2589  0.0786
   35loPI    C1  545  12.672  11.534   9.832 -0.1034  0.2390 -0.0890
   35loPI    C2  546  12.443  11.728  10.096 -0.3974 -0.1399 -0.0569
   35loPI    C3  547  12.530  11.341  10.153  0.0022 -0.0798 -0.2293
   35loPI   PO4  548  12.470  11.561   9.582  0.1410  0.3329  0.1359
   35loPI   GL1  549  12.256  11.566   9.141 -0.2200  0.2467  0.0602
   35loPI   GL2  550  12.086  11.211   9.118  0.3600 -0.1743 -0.2358
   35loPI   C1A  551  12.169  11.671   8.740  0.2312  0.1028  0.2289
   35loPI   C2A  552  11.906  11.843   8.399  0.0179 -0.2884 -0.0816
   35loPI   C3A  553  11.904  11.803   8.025 -0.3510  0.1201  0.1485
   35loPI   C4A  554  12.059  11.777   7.626  0.2269  0.0619  0.2681
   35loPI   C5A  555  12.261  11.712   7.249  0.0209 -0.0586 -0.1831
   35loPI   C6A  556  12.438  11.575   6.966 -0.0061 -0.3231  0.0310
   35loPI   C1B  557  11.954  11.182   8.730 -0.2681  0.2749 -0.0978
   35loPI   C2B  558  11.962  11.357   8.295  0.4850  0.1789 -0.1592
   35loPI   C3B  559  12.195  11.330   7.949  0.0420  0.0330 -0.2403
   35loPI   C4B  560  12.459  11.515   7.711 -0.0104  0.1640  0.2369
   36loPI    C1  561   0.399   6.539   9.639  0.0869 -0.1866 -0.1081
   36loPI    C2  562   0.729   6.673   9.820  0.0798  0.0365 -0.2571
   36loPI    C3  563   0.387   6.878   9.851 -0.0923 -0.2848  0.0427
   36loPI   PO4  564   0.482   6.448   9.362 -0.5081 -0.0336  0.1262
   36loPI   GL1  565   0.462   6.363   8.983  0.0636 -0.1235  0.0291
   36loPI   GL2  566   0.464   6.652   8.819  0.0496  0.2156  0.1047
   36loPI   C1A  567   0.254   6.204   8.586  0.3670 -0.0535 -0.2515
   36loPI   C2A  568   0.214   6.291   8.149  0.2869 -0.0717 -0.0387
   36loPI   C3A  569   0.264   6.296   7.732  0.4379  0.1156  0.0522
   36loPI   C4A  570   0.256   6.110   7.334  0.0994  0.0104  0.1791
   36loPI   C5A  571   0.328   5.939   7.001 -0.0080  0.2806 -0.1580
   36loPI   C6A  572   0.303   5.966   6.638  0.2969  0.1253  0.2437
   36loPI   C1B  573   0.524   6.680   8.371 -0.2401 -0.0870  0.0501
   36loPI   C2B  574   0.395   6.770   7.948 -0.2969  0.1047 -0.0932
   36loPI   C3B  575   0.271   6.857   7.591  0.1561  0.0499 -0.2895
   36loPI   C4B  576   0.548   6.868   7.173 -0.1096  0.0294  0.0190
   37loPI    C1  577  14.375   4.318   9.314  0.0268 -0.2433  0.1308
   37loPI    C2  578  14.079   4.422   9.065  0.0991 -0.1573  0.0799
   37loPI    C3  579  14.042   4.486   9.459  0.2226  0.2500  0.0298
   37loPI   PO4  580  14.559   4.297   9.241 -0.0117  0.3812 -0.2559
   37loPI   GL1  581  14.576   4.059   8.874 -0.1614  0.3095 -0.1026
   37loPI   GL2  582  14.635   4.357   8.779  0.0893 -0.1897 -0.1142
   37loPI   C1A  583  14.564   3.883   8.476  0.0410 -0.0962 -0.0713
   37loPI   C2A  584  14.580   3.906   8.055  0.0565 -0.0248 -0.2437
   37loPI   C3A  585  14.568   3.965   7.558 -0.2447 -0.1895  0.0362
   37loPI   C4A  586  14.453   3.670   7.228 -0.0571 -0.3986 -0.1784
   37loPI   C5A  587  14.787   3.428   7.051  0.0544  0.0865  0.0801
   37loPI   C6A  588  14.851   2.927   7.085 -0.0460 -0.1083  0.1130
   37loPI   C1B  589  14.799   4.303   8.328 -0.3334 -0.1068 -0.2313
   37loPI   C2B  590  15.039   4.294   7.887 -0.1141 -0.0918  0.0752
   37loPI   C3B  591  15.432   4.333   7.658  0.0353 -0.1742  0.0264
   37loPI   C4B  592  15.499   4.410   7.196  0.2230 -0.1339 -0.0968
   38loPI    C1  593   8.195   5.324   9.611 -0.3369  0.0716 -0.0082
   38loPI    C2  594   8.183   5.150   9.971  0.0733  0.0158 -0.0173
   38loPI    C3  595   8.249   5.543   9.942  0.1308  0.0049 -0.0343
   38loPI   PO4  596   7.959   5.317   9.368 -0.2699 -0.2003 -0.0801
   38loPI   GL1  597   7.821   5.329   8.879  0.0801 -0.0081  0.2395
   38loPI   GL2  598   8.169   5.364   8.805  0.2340  0.1414 -0.1391
   38loPI   C1A  599   7.653   5.310   8.428  0.1782 -0.1870 -0.0301
   38loPI   C2A  600   7.835   5.290   8.097 -0.1833 -0.1226 -0.1061
   38loPI   C3A  601   7.809   5.617   7.779  0.0245  0.0507 -0.1164
   38loPI   C4A  602   7.753   5.651   7.215  0.0440 -0.0465  0.0863
   38loPI   C5A  603   7.514   5.353   7.000  0.0504 -0.1120  0.0602
   38loPI   C6A  604   7.249   5.011   6.940  0.2758  0.1450 -0.0461
   38loPI   C1B  605   8.045   5.640   8.490  0.0173  0.0611 -0.0296
   38loPI   C2B  606   7.929   5.913   8.150 -0.4347 -0.0396 -0.3369
   38loPI   C3B  607   7.622   6.093   7.930  0.0226 -0.0394  0.5753
   38loPI   C4B  608   7.563   5.987   7.517  0.1385  0.0931  0.0168
   39loPI    C1  609  12.235  17.553   9.716 -0.1352 -0.1980 -0.0168
   39loPI    C2  610  11.952  17.832   9.673  0.2262  0.2340  0.3120
   39loPI    C3  611  11.879  17.505   9.890 -0.2439 -0.0043 -0.1818
   39loPI   PO4  612  12.358  17.634   9.411  0.3786  0.0753 -0.0788
   39loPI   GL1  613  12.718  17.671   9.007 -0.1328  0.1394 -0.4595
   39loPI   GL2  614  12.983  17.439   8.946  0.0880  0.2614 -0.0647
   39loPI   C1A  615  12.771  18.055   8.725  0.1149  0.0164 -0.0693
   39loPI   C2A  616  12.620  17.954   8.300  0.0521  0.3128  0.1429
   39loPI   C3A  617  12.390  17.923   7.896  0.1233 -0.2087  0.1058
   39loPI   C4A  618  12.364  17.999   7.422  0.1624  0.2833 -0.2075
   39loPI   C5A  619  12.664  18.107   7.083 -0.0909  0.0262 -0.3168
   39loPI   C6A  620  12.987  18.328   6.838 -0.0082  0.2448 -0.2167
   39loPI   C1B  621  12.733  17.461   8.543  0.1142 -0.3065 -0.2322
   39loPI   C2B  622  12.726  17.527   8.141  0.0685  0.0794 -0.2137
   39loPI   C3B  623  12.640  17.541   7.673 -0.2260 -0.1340 -0.0812
   39loPI   C4B  624  12.736  17.253   7.432 -0.2709 -0.0167 -0.0918
   40loPI    C1  625  18.382  12.235   9.850 -0.1258 -0.0039  0.0678
   40loPI    C2  626  18.295  12.625   9.876  0.1122  0.0544  0.0168
   40loPI    C3  627  18.190  12.376  10.171  0.0618  0.1768  0.1029
   40loPI   PO4  628  18.475  12.194   9.435 -0.0407  0.0786  0.0453
   40loPI   GL1  629  18.284  12.181   9.053  0.0780  0.3081  0.0322
   40loPI   GL2  630  18.400  11.917   8.969  0.1291 -0.3594  0.2184
   40loPI   C1A  631  18.211  12.153   8.620  0.3488 -0.2020  0.3627
   40loPI   C2A  632  18.152  12.212   8.209  0.0607  0.1613  0.0213
   40loPI   C3A  633  18.256  12.398   7.806  0.1097  0.3536 -0.6437
   40loPI   C4A  634  18.414  12.415   7.460  0.0598 -0.1906  0.2869
   40loPI   C5A  635  18.683  12.621   7.174  0.3914 -0.0059  0.0336
   40loPI   C6A  636  19.104  12.848   7.034  0.0909 -0.3244 -0.1777
   40loPI   C1B  637  18.663  11.983   8.553 -0.0455 -0.1674 -0.0792
   40loPI   C2B  638  18.794  12.006   8.137  0.0001 -0.1637 -0.0522
   40loPI   C3B  639  18.780  12.174   7.688  0.1786 -0.2023 -0.0406
   40loPI   C4B  640  18.933  12.210   7.329 -0.0591  0.0342  0.1436
   41loPI    C1  641   2.629  18.385   9.511  0.1502  0.0969  0.0154
   41loPI    C2  642   2.902  18.101   9.585 -0.0700 -0.1245 -0.0093
   41loPI    C3  643   2.633  18.050   9.293 -0.0063  0.1861 -0.1268
   41loPI   PO4  644   2.781  18.627   9.389 -0.0913 -0.0257 -0.1558
   41loPI   GL1  645   2.880  18.805   8.975 -0.4866  0.2493  0.1392
   41loPI   GL2  646   3.056  19.061   8.897  0.0689  0.0629  0.1531
   41loPI   C1A  647   2.658  19.026   8.627 -0.0057 -0.3938 -0.2949
   41loPI   C2A  648   2.655  19.349   8.148 -0.1127 -0.3391 -0.0655
   41loPI   C3A  649   2.755  19.298   7.651  0.2498 -0.1689  0.5104
   41loPI   C4A  650   2.405  19.385   7.366  0.1256  0.2266 -0.1359
   41loPI   C5A  651   2.084  19.668   7.134  0.1632 -0.0448 -0.1266
   41loPI   C6A  652   1.636  19.600   6.935 -0.1493 -0.1947  0.1133
   41loPI   C1B  653   3.113  18.959   8.498  0.1472 -0.0984  0.2272
   41loPI   C2B  654   3.032  18.973   7.994 -0.0468 -0.1939 -0.2346
   41loPI   C3B  655   3.125  18.888   7.651  0.0481 -0.0454 -0.2853
   41loPI   C4B  656   3.124  18.910   7.251 -0.3135 -0.1140  0.1628
   42loPI    C1  657  11.380   1.607   9.686  0.2385 -0.1546 -0.1579
   42loPI    C2  658  11.666   1.814   9.875  0.0213 -0.0141  0.0229
   42loPI    C3  659  11.281   1.885   9.957 -0.0619 -0.3523 -0.0596
   42loPI   PO4  660  11.491   1.616   9.398  0.3174 -0.1600 -0.0644
   42loPI   GL1  661  11.471   1.799   8.953 -0.1764 -0.1314 -0.2035
   42loPI   GL2  662  11.743   1.603   8.949  0.4176  0.1677 -0.2925
   42loPI   C1A  663  11.160   1.699   8.809  0.1617 -0.0807  0.0463
   42loPI   C2A  664  10.949   1.553   8.478  0.0828  0.2241  0.1808
   42loPI   C3A  665  10.579   1.405   8.198 -0.2359  0.0415 -0.1194
   42loPI   C4A  666  10.253   1.377   7.916  0.0485 -0.1420 -0.2170
   42loPI   C5A  667  10.275   1.208   7.373 -0.0629 -0.1296  0.3506
   42loPI   C6A  668  10.235   1.446   6.994 -0.0332 -0.2494  0.0432
   42loPI   C1B  669  11.641   1.759   8.427 -0.1379  0.0012  0.0548
   42loPI   C2B  670  11.393   1.704   8.059  0.0920 -0.0532 -0.0475
   42loPI   C3B  671  11.030   1.517   7.915  0.0966 -0.1776  0.1100
   42loPI   C4B  672  10.790   1.177   7.672 -0.3315 -0.2127 -0.2608
   43loPI    C1  673  13.113   4.042   9.266 -0.2012 -0.1578 -0.0324
   43loPI    C2  674  13.047   4.389   9.453 -0.0931 -0.2391  0.1604
   43loPI    C3  675  12.790   4.086   9.497 -0.1501 -0.2075  0.0492
   43loPI   PO4  676  13.152   4.139   8.934 -0.1201  0.4915 -0.0689
   43loPI   GL1  677  13.287   3.838   8.647 -0.3367  0.0692 -0.1362
   43loPI   GL2  678  13.118   3.646   8.636  0.3524 -0.1283 -0.2841
   43loPI   C1A  679  13.089   3.981   8.154  0.2766  0.1459  0.2730
   43loPI   C2A  680  13.058   4.310   7.814  0.0838 -0.0231  0.4516
   43loPI   C3A  681  13.215   4.361   7.330 -0.0620 -0.1572 -0.1574
   43loPI   C4A  682  13.489   4.764   7.296 -0.0902  0.0516  0.4216
   43loPI   C5A  683  13.879   5.062   7.214  0.0372 -0.0248 -0.0440
   43loPI   C6A  684  14.071   5.360   6.925 -0.0818  0.2532  0.2688
   43loPI   C1B  685  13.283   3.377   8.370 -0.2791  0.0804  0.1001
   43loPI   C2B  686  13.528   3.198   8.042  0.0558  0.0367 -0.2261
   43loPI   C3B  687  13.812   3.175   7.716 -0.3329 -0.0420 -0.1773
   43loPI   C4B  688  14.029   3.492   7.396  0.1894 -0.0080 -0.0680
   44loPI    C1  689   5.843   3.200   9.508 -0.0071  0.3048 -0.0121
   44loPI    C2  690   6.029   3.165   9.860 -0.1491 -0.0704  0.0309
   44loPI    C3  691   5.630   3.180   9.845 -0.1597 -0.4262 -0.1353
   44loPI   PO4  692   6.102   3.200   9.267  0.1310 -0.3738 -0.0556
   44loPI   GL1  693   6.180   2.963   8.906 -0.1467  0.1444  0.2002
   44loPI   GL2  694   6.322   2.643   8.913  0.4837 -0.0441 -0.1173
   44loPI   C1A  695   5.976   2.906   8.509 -0.2128 -0.0686  0.0565
   44loPI   C2A  696   5.692   2.946   8.255  0.0179 -0.3457 -0.0738
   44loPI   C3A  697   5.438   3.181   7.882 -0.0063 -0.0980  0.0343
   44loPI   C4A  698   5.352   3.428   7.493 -0.0800 -0.1662 -0.0139
   44loPI   C5A  699   5.392   3.505   7.223  0.0406  0.1027  0.2448
   44loPI   C6A  700   5.562   3.843   7.025  0.0096  0.1187 -0.2489
   44loPI   C1B  701   6.544   2.825   8.583 -0.3548  0.3911  0.1730
   44loPI   C2B  702   6.696   2.983   8.264 -0.4752  0.0024  0.1528
   44loPI   C3B  703   6.623   3.064   7.923  0.4122  0.0730  0.1258
   44loPI   C4B  704   6.663   3.163   7.412 -0.0762 -0.1466 -0.3373
   45loPI    C1  705   3.611  13.679   9.936  0.2461  0.0205  0.1152
   45loPI    C2  706   3.572  13.927  10.248  0.0190  0.0330  0.0790
   45loPI    C3  707   3.665  13.543  10.308  0.0304  0.0480  0.1581
   45loPI   PO4  708   3.695  13.909   9.784 -0.1607  0.3703 -0.0977
   45loPI   GL1  709   3.785  13.900   9.386  0.1220 -0.1117  0.1405
   45loPI   GL2  710   4.024  14.110   9.331 -0.0022 -0.0562 -0.0691
   45loPI   C1A  711   3.846  13.863   8.954  0.1324 -0.1461  0.1781
   45loPI   C2A  712   3.776  13.841   8.451 -0.2395 -0.0041  0.0045
   45loPI   C3A  713   3.730  13.841   8.038  0.3020 -0.0533 -0.2726
   45loPI   C4A  714   3.564  13.934   7.543  0.2360  0.2255  0.1051
   45loPI   C5A  715   3.320  14.104   7.194 -0.0835  0.2600  0.1771
   45loPI   C6A  716   2.891  13.978   7.128  0.0923  0.0045  0.2370
   45loPI   C1B  717   3.946  14.386   9.065 -0.0183  0.0291 -0.2834
   45loPI   C2B  718   3.810  14.337   8.653  0.1794  0.0334 -0.5955
   45loPI   C3B  719   3.737  14.341   8.237 -0.0502  0.0333 -0.1228
   45loPI   C4B  720   3.656  14.390   7.776  0.3592 -0.1899 -0.0019
   46loPI    C1  721   9.547  14.367   9.576  0.2897  0.1862  0.0293
   46loPI    C2  722   9.848  14.319   9.835  0.1724  0.0499  0.1426
   46loPI    C3  723   9.538  14.553   9.931  0.0781 -0.0853  0.1700
   46loPI   PO4  724   9.774  14.445   9.321  0.1480  0.0336 -0.1019
   46loPI   GL1  725   9.774  14.609   8.853 -0.1265  0.1559  0.0243
   46loPI   GL2  726  10.021  14.443   8.670 -0.0607  0.0150  0.0903
   46loPI   C1A  727   9.696  14.608   8.369  0.2179  0.4089  0.0830
   46loPI   C2A  728   9.752  14.371   7.865  0.2570 -0.0241 -0.0820
   46loPI   C3A  729   9.700  14.231   7.455  0.0262 -0.1374 -0.4015
   46loPI   C4A  730   9.521  14.438   7.046 -0.2920 -0.1296 -0.4995
   46loPI   C5A  731   9.176  14.517   6.905  0.0034  0.0056 -0.1290
   46loPI   C6A  732   8.841  14.845   6.780  0.0537 -0.2231  0.3210
   46loPI   C1B  733  10.074  14.316   8.212 -0.2798  0.3745  0.1335
   46loPI   C2B  734  10.208  14.438   7.675 -0.2332 -0.2941 -0.2063
   46loPI   C3B  735  10.185  14.611   7.223 -0.0668  0.1033  0.1606
   46loPI   C4B  736   9.766  14.901   7.169  0.0801 -0.0843 -0.2022
   47loPI    C1  737  14.070  11.141   9.021 -0.2356 -0.0831  0.3496
   47loPI    C2  738  14.416  10.954   9.096  0.0425  0.1524 -0.2767
   47loPI    C3  739  14.289  11.245   9.339  0.1847 -0.0611  0.0608
   47loPI   PO4  740  14.060  11.222   8.857 -0.1650  0.0678  0.3231
   47loPI   GL1  741  14.175  11.389   8.400 -0.0618  0.3434  0.0993
   47loPI   GL2  742  14.552  11.480   8.307  0.0500  0.1323 -0.0894
   47loPI   C1A  743  14.240  11.144   7.987  0.0525 -0.1937  0.0027
   47loPI   C2A  744  14.234  11.111   7.463  0.4370 -0.0590 -0.0532
   47loPI   C3A  745  14.572  11.056   7.151 -0.0344 -0.2742 -0.0574
   47loPI   C4A  746  14.837  10.965   6.804  0.0745  0.1753 -0.1102
   47loPI   C5A  747  15.301  11.041   6.607  0.0343  0.0060 -0.5580
   47loPI   C6A  748  15.538  11.150   6.309 -0.1546 -0.2102  0.0096
   47loPI   C1B  749  14.607  11.550   7.931  0.0582  0.1574  0.0091
   47loPI   C2B  750  14.713  11.484   7.535  0.2448  0.1592  0.2905
   47loPI   C3B  751  14.923  11.391   7.241  0.1246 -0.0956  0.0099
   47loPI   C4B  752  15.084  11.486   6.773 -0.2469  0.2580 -0.1898
   48loPI    C1  753  19.130   5.368   9.770  0.1899 -0.2394 -0.0124
   48loPI    C2  754  19.286   5.735   9.734 -0.1114 -0.0985  0.0883
   48loPI    C3  755  19.362   5.515  10.060 -0.4379  0.1291  0.3252
   48loPI   PO4  756  19.228   5.251   9.497 -0.5346 -0.2916  0.1118
   48loPI   GL1  757  19.207   4.970   9.231  0.4627  0.0161  0.1567
   48loPI   GL2  758  19.312   5.251   8.996 -0.0934 -0.0141 -0.1436
   48loPI   C1A  759  19.387   4.815   8.813  0.4741 -0.0088 -0.0659
   48loPI   C2A  760  19.263   4.782   8.460 -0.3488  0.2575  0.2057
   48loPI   C3A  761  19.051   4.485   8.102 -0.4159 -0.2275  0.0157
   48loPI   C4A  762  19.140   4.366   7.653  0.1450 -0.2657  0.0218
   48loPI   C5A  763  19.112   4.145   7.256  0.1719  0.1371  0.1968
   48loPI   C6A  764  18.936   3.884   6.933  0.0933  0.1590  0.0259
   48loPI   C1B  765  19.187   5.286   8.543  0.1357  0.0041 -0.1932
   48loPI   C2B  766  19.261   5.183   8.182 -0.0299  0.3292 -0.2102
   48loPI   C3B  767  19.348   5.007   7.785  0.4425 -0.1005  0.0508
   48loPI   C4B  768  19.156   4.800   7.418  0.1915 -0.0982 -0.2922
   49loPI    C1  769  14.560  12.518   8.890 -0.0955  0.2674 -0.0130
   49loPI    C2  770  14.710  12.504   9.260 -0.1317  0.2723  0.0018
   49loPI    C3  771  14.955  12.500   8.944 -0.1146 -0.1471  0.0155
   49loPI   PO4  772  14.306  12.712   8.978 -0.1866 -0.0061 -0.1320
   49loPI   GL1  773  14.112  12.593   8.585  0.1074 -0.3055 -0.1971
   49loPI   GL2  774  14.254  12.857   8.493 -0.1011  0.1028 -0.0993
   49loPI   C1A  775  14.303  12.338   8.196 -0.0946 -0.1789  0.2257
   49loPI   C2A  776  14.390  12.187   7.805 -0.3294  0.2171  0.1309
   49loPI   C3A  777  14.497  12.036   7.324 -0.0992 -0.3734 -0.0762
   49loPI   C4A  778  14.531  11.725   7.127 -0.0167 -0.2055 -0.0670
   49loPI   C5A  779  14.426  11.393   6.770  0.1253 -0.1184 -0.0744
   49loPI   C6A  780  14.606  11.207   6.403 -0.0537  0.0241  0.1223
   49loPI   C1B  781  14.120  12.812   8.066  0.2248 -0.1337  0.0169
   49loPI   C2B  782  14.020  12.586   7.656  0.0643  0.2487 -0.0828
   49loPI   C3B  783  14.054  12.206   7.445  0.0874  0.1003 -0.0639
   49loPI   C4B  784  14.019  12.075   7.008  0.1014  0.0796  0.3977
   50loPI    C1  785   2.230  19.153   9.680  0.1705 -0.2035 -0.1165
   50loPI    C2  786   2.505  19.307   9.926 -0.0960 -0.0337  0.0803
   50loPI    C3  787   2.580  18.967   9.730  0.2226 -0.0296  0.1901
   50loPI   PO4  788   2.280  19.355   9.470 -0.0268 -0.0906  0.2271
   50loPI   GL1  789   2.078  19.541   9.046  0.1996 -0.0732 -0.0980
   50loPI   GL2  790   2.285  19.289   8.955  0.0468  0.0162 -0.1678
   50loPI   C1A  791   1.789  19.543   8.717  0.0019  0.1304 -0.1494
   50loPI   C2A  792   1.807  19.359   8.336 -0.1839 -0.2207 -0.0737
   50loPI   C3A  793   1.809  19.128   7.969  0.1037  0.2524 -0.0464
   50loPI   C4A  794   2.048  19.040   7.548  0.2558 -0.0778 -0.2704
   50loPI   C5A  795   2.180  18.905   7.223 -0.0082  0.1064  0.0289
   50loPI   C6A  796   2.240  19.070   6.893 -0.2800  0.0843  0.0048
   50loPI   C1B  797   2.178  19.182   8.605  0.1326 -0.2819  0.0580
   50loPI   C2B  798   2.228  19.050   8.193 -0.0802  0.0750  0.1726
   50loPI   C3B  799   2.524  18.836   7.928  0.0352 -0.2229 -0.0863
   50loPI   C4B  800   2.607  18.817   7.492  0.3153 -0.1524  0.0434
   51loPI    C1  801   3.568  14.768   9.920  0.0973  0.1081  0.5326
   51loPI    C2  802   3.647  14.378   9.960  0.1769  0.0811  0.1467
   51loPI    C3  803   3.634  14.613  10.283  0.2353 -0.2192  0.3721
   51loPI   PO4  804   3.432  14.721   9.681 -0.3334 -0.0360 -0.0174
   51loPI   GL1  805   3.259  14.894   9.276  0.1975  0.3007 -0.0349
   51loPI   GL2  806   3.562  14.689   9.188 -0.1671  0.4332 -0.5969
   51loPI   C1A  807   2.971  14.770   8.803 -0.0385 -0.1659  0.0360
   51loPI   C2A  808   2.834  14.682   8.379 -0.2179 -0.0641 -0.1370
   51loPI   C3A  809   2.775  14.655   7.899  0.3757 -0.0787 -0.0949
   51loPI   C4A  810   2.705  14.835   7.527 -0.1623 -0.3004  0.1577
   51loPI   C5A  811   2.608  14.819   7.054 -0.1228  0.0495  0.2838
   51loPI   C6A  812   2.247  15.015   6.867 -0.1499  0.2653 -0.0643
   51loPI   C1B  813   3.537  14.700   8.834 -0.0374 -0.0899 -0.4354
   51loPI   C2B  814   3.366  14.538   8.468 -0.0282 -0.5362  0.0099
   51loPI   C3B  815   3.229  14.490   8.133  0.0166 -0.3598  0.1781
   51loPI   C4B  816   3.140  14.353   7.702  0.0112 -0.2247  0.0809
   52loPI    C1  817  13.434  19.299   9.955 -0.1308  0.1022 -0.2283
   52loPI    C2  818  13.825  19.227   9.907 -0.0953  0.1005  0.0476
   52loPI    C3  819  13.584  18.940  10.046 -0.1938  0.1051 -0.1112
   52loPI   PO4  820  13.413  19.360   9.655  0.0731 -0.3095  0.2548
   52loPI   GL1  821  13.212  19.228   9.175  0.3245 -0.0581 -0.0401
   52loPI   GL2  822  12.967  19.361   9.160  0.0557  0.2863  0.2186
   52loPI   C1A  823  13.182  19.014   8.815 -0.1006  0.0591 -0.0179
   52loPI   C2A  824  13.262  18.996   8.393 -0.0022 -0.0954  0.2914
   52loPI   C3A  825  13.159  18.966   7.983 -0.1441  0.1582  0.3051
   52loPI   C4A  826  12.839  18.895   7.567  0.0401 -0.1301  0.2277
   52loPI   C5A  827  12.460  18.757   7.471  0.0207  0.0827  0.1549
   52loPI   C6A  828  12.203  18.936   7.195 -0.3323 -0.2165  0.2662
   52loPI   C1B  829  12.690  19.493   8.890 -0.1649  0.2679  0.2833
   52loPI   C2B  830  12.820  19.693   8.554 -0.0308  0.0122  0.3252
   52loPI   C3B  831  12.629  20.068   8.486 -0.0466  0.0258 -0.0823
   52loPI   C4B  832  12.631  20.449   8.662  0.0320 -0.0978 -0.2651
   53loPI    C1  833  12.659   6.189   9.500 -0.1417  0.0402  0.0204
   53loPI    C2  834  12.292   6.120   9.358 -0.0250 -0.1817 -0.1802
   53loPI    C3  835  12.586   5.859   9.287  0.1247 -0.1095  0.1564
   53loPI   PO4  836  12.695   6.395   9.420 -0.0571 -0.1630  0.1362
   53loPI   GL1  837  12.764   6.401   9.002  0.0809 -0.0892 -0.5254
   53loPI   GL2  838  12.533   6.165   8.901 -0.1464  0.0659  0.0570
   53loPI   C1A  839  12.840   6.402   8.557  0.5284 -0.1825 -0.0517
   53loPI   C2A  840  13.008   6.411   8.127 -0.1481 -0.0666  0.0333
   53loPI   C3A  841  13.122   6.344   7.730  0.0294 -0.1242 -0.2276
   53loPI   C4A  842  13.043   6.148   7.372 -0.3487  0.0248  0.1476
   53loPI   C5A  843  12.869   6.330   6.967  0.0170 -0.2640 -0.0278
   53loPI   C6A  844  12.637   6.519   6.696  0.2170  0.2265 -0.0212
   53loPI   C1B  845  12.474   6.085   8.447  0.1040 -0.2530 -0.0097
   53loPI   C2B  846  12.537   6.291   8.133  0.1181 -0.1029  0.3567
   53loPI   C3B  847  12.550   6.273   7.662  0.0344 -0.1477 -0.0697
   53loPI   C4B  848  12.480   6.171   7.302 -0.2311  0.2141  0.1044
   54loPI    C1  849   7.646   4.329   9.678 -0.0032  0.4360  0.1889
   54loPI    C2  850   7.405   4.462   9.968  0.0848 -0.1156  0.5293
   54loPI    C3  851   7.490   4.072   9.942  0.5477  0.0038  0.1113
   54loPI   PO4  852   7.564   4.429   9.429 -0.1332  0.0581  0.1742
   54loPI   GL1  853   7.631   4.449   9.050  0.1930 -0.1011 -0.3722
   54loPI   GL2  854   7.481   4.422   8.794  0.1496  0.0114  0.0416
   54loPI   C1A  855   8.027   4.451   8.746 -0.0319 -0.1622  0.3308
   54loPI   C2A  856   8.094   4.380   8.373  0.1450 -0.3133  0.5516
   54loPI   C3A  857   8.176   4.394   7.919 -0.2228 -0.1084 -0.2672
   54loPI   C4A  858   8.266   4.468   7.507  0.0516 -0.2531  0.2307
   54loPI   C5A  859   7.899   4.647   7.204  0.1610  0.2135 -0.0222
   54loPI   C6A  860   7.788   4.959   6.809 -0.2221 -0.1968 -0.0264
   54loPI   C1B  861   7.608   4.564   8.439 -0.0124 -0.1161 -0.1699
   54loPI   C2B  862   7.668   4.709   8.038  0.0083 -0.0512 -0.0904
   54loPI   C3B  863   7.708   4.964   7.613 -0.0086  0.0044  0.1643
   54loPI   C4B  864   7.864   5.130   7.253 -0.0434 -0.2593 -0.1375
   55loPI    C1  865  18.671  14.242   9.881 -0.1132  0.0722 -0.1463
   55loPI    C2  866  18.497  14.245  10.241  0.0148  0.1160 -0.0840
   55loPI    C3  867  18.614  13.899  10.078 -0.0034  0.1006 -0.0645
   55loPI   PO4  868  18.556  14.453   9.640 -0.1688 -0.2203  0.2521
   55loPI   GL1  869  18.635  14.445   9.232 -0.0237 -0.0691  0.3361
   55loPI   GL2  870  18.875  14.565   9.084  0.3158  0.3127 -0.3478
   55loPI   C1A  871  18.702  14.266   8.769 -0.0897  0.0956 -0.3799
   55loPI   C2A  872  18.510  14.129   8.465 -0.2906  0.1229  0.1771
   55loPI   C3A  873  18.468  14.228   8.046 -0.0558 -0.3208  0.0596
   55loPI   C4A  874  18.537  14.349   7.521  0.1715 -0.0408 -0.3769
   55loPI   C5A  875  18.626  14.528   7.138 -0.2172 -0.1209  0.2357
   55loPI   C6A  876  18.545  14.763   6.725 -0.6348 -0.0104  0.1500
   55loPI   C1B  877  19.125  14.642   8.666  0.0449 -0.2910  0.0851
   55loPI   C2B  878  19.268  14.796   8.248 -0.1587  0.2170 -0.0346
   55loPI   C3B  879  19.394  14.612   7.851 -0.0756  0.3137  0.0137
   55loPI   C4B  880  19.726  14.739   7.551  0.1453  0.1748 -0.0062
   56loPI    C1  881   0.989   4.234   9.421  0.0769 -0.0444  0.3201
   56loPI    C2  882   1.191   4.427   9.135 -0.2871 -0.1225  0.0027
   56loPI    C3  883   1.381   4.166   9.371 -0.0248 -0.2310 -0.3192
   56loPI   PO4  884   0.796   4.494   9.451 -0.0706 -0.2530  0.2135
   56loPI   GL1  885   0.747   4.736   9.106 -0.3723  0.0733  0.2772
   56loPI   GL2  886   0.439   4.757   9.130  0.2218 -0.1868 -0.1229
   56loPI   C1A  887   0.700   4.994   8.695  0.0315  0.0567  0.0564
   56loPI   C2A  888   0.680   5.140   8.295  0.0206  0.1016  0.2081
   56loPI   C3A  889   0.675   5.290   7.797 -0.1471  0.0836 -0.0245
   56loPI   C4A  890   0.358   5.059   7.384 -0.1760  0.1766  0.0964
   56loPI   C5A  891   0.403   5.101   6.955 -0.0674 -0.0962 -0.1789
   56loPI   C6A  892   0.790   5.125   6.689  0.1756  0.0255 -0.1947
   56loPI   C1B  893   0.428   4.544   8.758 -0.1381 -0.1922  0.1171
   56loPI   C2B  894   0.302   4.594   8.250  0.0281 -0.2460 -0.0646
   56loPI   C3B  895   0.112   4.270   7.939 -0.3058  0.2917  0.2908
   56loPI   C4B  896  -0.055   3.943   7.724  0.0482 -0.3042 -0.0090
   57loPI    C1  897   1.923  10.689   9.695 -0.0454 -0.1397  0.0083
   57loPI    C2  898   2.104  10.901   9.983 -0.1409 -0.0019 -0.0319
   57loPI    C3  899   1.711  10.828  10.005 -0.1217 -0.1149 -0.0549
   57loPI   PO4  900   2.120  10.693   9.478  0.0812  0.1064 -0.1965
   57loPI   GL1  901   2.396  10.901   9.199 -0.0131 -0.0724  0.0422
   57loPI   GL2  902   2.673  11.066   9.255  0.2760 -0.0362 -0.0648
   57loPI   C1A  903   2.581  10.605   8.839  0.2861  0.1209 -0.0353
   57loPI   C2A  904   2.596  10.520   8.460 -0.0292 -0.0166 -0.2905
   57loPI   C3A  905   2.856  10.530   8.192 -0.1580  0.2225 -0.1315
   57loPI   C4A  906   3.045  10.383   7.839 -0.4215 -0.0201 -0.0947
   57loPI   C5A  907   2.890  10.449   7.425 -0.2011  0.0518 -0.2301
   57loPI   C6A  908   2.571  10.700   7.161  0.2597 -0.0105  0.2173
   57loPI   C1B  909   2.682  11.179   8.812 -0.1399 -0.1361  0.2505
   57loPI   C2B  910   2.805  10.995   8.382  0.1059  0.0473 -0.1771
   57loPI   C3B  911   2.849  11.045   7.974 -0.0980 -0.0221 -0.1387
   57loPI   C4B  912   2.740  10.972   7.510 -0.1626 -0.2360 -0.1426
   58loPI    C1  913  10.277  11.675   9.673 -0.0400  0.3775  0.0398
   58loPI    C2  914  10.083  11.493   9.971 -0.2193 -0.0813 -0.3460
   58loPI    C3  915  10.175  11.881  10.001  0.0159 -0.1802  0.4203
   58loPI   PO4  916  10.216  11.444   9.509 -0.2122  0.2218 -0.0722
   58loPI   GL1  917  10.075  11.331   9.111  0.1813 -0.1158  0.0467
   58loPI   GL2  918   9.793  11.228   8.962 -0.2697  0.0990  0.0422
   58loPI   C1A  919  10.188  11.579   8.798  0.2082  0.1799  0.3847
   58loPI   C2A  920  10.087  11.780   8.367  0.4192  0.0601 -0.0520
   58loPI   C3A  921  10.092  11.960   7.955 -0.1035 -0.1578  0.4368
   58loPI   C4A  922  10.243  12.254   7.494 -0.2530  0.1139 -0.1367
   58loPI   C5A  923  10.268  12.502   7.105  0.2118 -0.1408 -0.1694
   58loPI   C6A  924  10.285  12.734   6.681 -0.0811  0.0652  0.4477
   58loPI   C1B  925   9.883  11.286   8.585 -0.0550 -0.0082 -0.1745
   58loPI   C2B  926   9.888  11.420   8.135 -0.1608  0.1052  0.0061
   58loPI   C3B  927   9.973  11.502   7.691  0.0692  0.2085 -0.2041
   58loPI   C4B  928  10.128  11.435   7.289 -0.0443  0.0841 -0.2231
   59loPI    C1  929  16.826  12.028   9.128 -0.0175 -0.4579 -0.1574
   59loPI    C2  930  16.653  11.912   9.470  0.0119 -0.2573 -0.0729
   59loPI    C3  931  17.051  11.934   9.445  0.0036 -0.0626 -0.0493
   59loPI   PO4  932  16.796  12.311   9.010 -0.2632  0.1208  0.2048
   59loPI   GL1  933  16.873  12.524   8.563  0.3058  0.1354 -0.0700
   59loPI   GL2  934  16.851  12.859   8.615 -0.0276  0.0771  0.1147
   59loPI   C1A  935  16.818  12.707   8.129  0.2188  0.1047  0.1074
   59loPI   C2A  936  16.815  12.934   7.687  0.1785 -0.1053 -0.2419
   59loPI   C3A  937  16.637  13.306   7.456 -0.0855 -0.0149  0.3288
   59loPI   C4A  938  16.595  13.643   7.200 -0.5526  0.0107 -0.2916
   59loPI   C5A  939  16.730  14.018   7.099 -0.1331 -0.1651  0.2980
   59loPI   C6A  940  16.948  14.197   6.842 -0.2257  0.0476  0.2438
   59loPI   C1B  941  16.800  13.244   8.327  0.2754 -0.2446 -0.0825
   59loPI   C2B  942  16.596  13.311   7.982  0.2041  0.4410 -0.2674
   59loPI   C3B  943  16.217  13.299   7.719 -0.3110 -0.0122 -0.0710
   59loPI   C4B  944  16.189  13.577   7.402  0.0336 -0.1081 -0.1380
   60loPI    C1  945   1.093  16.579   9.564 -0.1929 -0.2726  0.3087
   60loPI    C2  946   1.055  16.977   9.555  0.0557 -0.2519 -0.2363
   60loPI    C3  947   1.201  16.797   9.881 -0.0393  0.1016  0.0072
   60loPI   PO4  948   0.844  16.457   9.358 -0.1763  0.3311  0.0142
   60loPI   GL1  949   0.662  16.271   9.035 -0.1204 -0.2863  0.2870
   60loPI   GL2  950   0.849  16.507   8.839  0.0597 -0.0700 -0.0941
   60loPI   C1A  951   0.389  16.196   8.746  0.4004  0.1838 -0.2790
   60loPI   C2A  952   0.693  16.244   8.425 -0.0523 -0.0690 -0.2719
   60loPI   C3A  953   0.875  16.422   7.984  0.2392 -0.0615  0.2835
   60loPI   C4A  954   0.905  16.308   7.513 -0.3141 -0.0737  0.0407
   60loPI   C5A  955   1.097  16.164   7.130 -0.0730 -0.0954 -0.0468
   60loPI   C6A  956   1.246  16.166   6.808 -0.0606  0.2547 -0.0361
   60loPI   C1B  957   0.865  16.723   8.374  0.1702  0.0907 -0.7006
   60loPI   C2B  958   0.758  16.874   8.007  0.2705 -0.2102 -0.2822
   60loPI   C3B  959   0.931  16.923   7.661 -0.0938  0.0549 -0.0165
   60loPI   C4B  960   1.363  16.953   7.498  0.1020 -0.1820 -0.0306
   61loPI    C1  961   2.799   8.056   9.701 -0.0821 -0.1095 -0.0138
   61loPI    C2  962   2.739   8.168  10.081  0.2474 -0.2437  0.0807
   61loPI    C3  963   2.706   7.783   9.978 -0.2442 -0.1561 -0.1130
   61loPI   PO4  964   2.628   8.332   9.606  0.2145 -0.2407  0.0279
   61loPI   GL1  965   2.489   8.550   9.199 -0.0188 -0.3482  0.3631
   61loPI   GL2  966   2.870   8.655   9.095  0.0080 -0.2881 -0.1374
   61loPI   C1A  967   2.544   8.588   8.703  0.1928 -0.3057 -0.0574
   61loPI   C2A  968   2.733   8.469   8.379  0.0203 -0.1599 -0.1297
   61loPI   C3A  969   2.875   8.552   8.013 -0.0294  0.3223  0.1112
   61loPI   C4A  970   2.724   8.445   7.581 -0.1233  0.0977  0.1277
   61loPI   C5A  971   2.560   8.279   7.113  0.0206  0.0967 -0.0733
   61loPI   C6A  972   2.170   8.257   7.090 -0.0753 -0.0705 -0.1092
   61loPI   C1B  973   3.058   8.697   8.774  0.1610  0.1713 -0.5219
   61loPI   C2B  974   3.238   8.666   8.439 -0.0289  0.3803 -0.4127
   61loPI   C3B  975   3.378   8.454   8.075 -0.3960  0.1170  0.1877
   61loPI   C4B  976   3.260   8.299   7.772 -0.3180  0.1572  0.1689
   62loPI    C1  977  10.221  14.266   9.126  0.0078  0.0697  0.0021
   62loPI    C2  978  10.448  14.130   9.426  0.2783  0.2534 -0.1149
   62loPI    C3  979  10.228  14.460   9.476  0.0260  0.0705  0.0013
   62loPI   PO4  980  10.135  14.059   9.074  0.2557  0.0758  0.3289
   62loPI   GL1  981   9.725  14.085   8.937  0.0789  0.2114 -0.2434
   62loPI   GL2  982   9.474  14.076   9.144 -0.0610  0.0705  0.3806
   62loPI   C1A  983   9.683  14.060   8.461 -0.5764  0.3883 -0.1210
   62loPI   C2A  984   9.636  14.017   8.154 -0.1431  0.0210  0.1541
   62loPI   C3A  985   9.512  13.879   7.810  0.0680 -0.2041  0.0373
   62loPI   C4A  986   9.328  13.947   7.356  0.1362  0.0346  0.0965
   62loPI   C5A  987   9.483  13.856   6.901  0.2043  0.0228 -0.0499
   62loPI   C6A  988   9.809  13.573   6.728 -0.1790  0.1602  0.2803
   62loPI   C1B  989   9.187  13.873   8.799  0.2812 -0.1930 -0.1878
   62loPI   C2B  990   8.810  14.027   8.575 -0.2716  0.3079 -0.1495
   62loPI   C3B  991   8.515  13.960   8.312  0.3707  0.0498 -0.3165
   62loPI   C4B  992   8.073  14.097   8.308  0.3626 -0.0943 -0.2941
   63loPI    C1  993  13.763   3.479   9.484 -0.0673  0.0209 -0.2152
   63loPI    C2  994  13.457   3.731   9.539  0.1913  0.3118 -0.0805
   63loPI    C3  995  13.459   3.376   9.723 -0.1935  0.1902 -0.3005
   63loPI   PO4  996  13.814   3.385   9.223  0.3325 -0.2239  0.0822
   63loPI   GL1  997  13.988   3.450   8.954  0.6941  0.1120 -0.0809
   63loPI   GL2  998  14.253   3.681   8.821 -0.1583 -0.4185  0.0092
   63loPI   C1A  999  13.700   3.512   8.573  0.2653  0.2940 -0.3177
   63loPI   C2A 1000  13.595   3.821   8.257 -0.4269 -0.0153 -0.1967
   63loPI   C3A 1001  13.483   3.894   7.778  0.0080 -0.2308 -0.0946
   63loPI   C4A 1002  13.381   3.814   7.383  0.3450 -0.0062 -0.0527
   63loPI   C5A 1003  13.363   3.823   6.941  0.2058 -0.1606  0.0968
   63loPI   C6A 1004  13.615   3.900   6.630 -0.0714  0.1957  0.1115
   63loPI   C1B 1005  14.008   3.955   8.691  0.2879 -0.0685  0.2326
   63loPI   C2B 1006  13.991   4.158   8.282 -0.3098  0.2734  0.2623
   63loPI   C3B 1007  13.881   4.587   8.063  0.1604 -0.3678  0.4274
   63loPI   C4B 1008  13.760   4.865   7.796 -0.0447  0.4004 -0.0223
   64loPI    C1 1009   1.613  12.218   9.615 -0.0859  0.1080 -0.1236
   64loPI    C2 1010   1.681  12.054   9.973  0.2405  0.1641 -0.1569
   64loPI    C3 1011   1.500  12.410   9.947 -0.0596  0.0223 -0.0647
   64loPI   PO4 1012   1.886  12.187   9.535 -0.0768  0.0920 -0.0214
   64loPI   GL1 1013   2.014  12.247   9.150  0.2438 -0.2781  0.1952
   64loPI   GL2 1014   2.025  12.488   9.039  0.1410 -0.3896 -0.0077
   64loPI   C1A 1015   2.041  12.048   8.716 -0.2515  0.2080 -0.0978
   64loPI   C2A 1016   1.992  12.062   8.270  0.0875 -0.3078  0.0021
   64loPI   C3A 1017   1.673  11.953   7.903 -0.1562  0.0457 -0.2341
   64loPI   C4A 1018   1.408  11.704   7.607 -0.2174 -0.0655 -0.2720
   64loPI   C5A 1019   1.047  11.590   7.506  0.0638  0.0066  0.4350
   64loPI   C6A 1020   0.617  11.735   7.483  0.0110  0.0124  0.1017
   64loPI   C1B 1021   1.768  12.496   8.736  0.0624  0.1098 -0.0767
   64loPI   C2B 1022   1.396  12.595   8.606  0.0352  0.2597  0.2479
   64loPI   C3B 1023   0.852  12.842   8.625 -0.0696 -0.1881  0.4049
   64loPI   C4B 1024   0.756  13.018   8.947  0.0894 -0.1322  0.0078
   65loPI    C1 1025  17.807   3.843   9.632  0.0032 -0.2989 -0.0013
   65loPI    C2 1026  17.758   4.238   9.673  0.2081 -0.2845  0.1153
   65loPI    C3 1027  17.723   3.998   9.991  0.0456 -0.3650  0.0372
   65loPI   PO4 1028  17.911   3.872   9.382  0.1937  0.0207  0.1924
   65loPI   GL1 1029  18.033   3.674   9.047  0.1904  0.0283 -0.1736
   65loPI   GL2 1030  18.102   3.920   8.916  0.0588  0.1217  0.0064
   65loPI   C1A 1031  17.940   3.505   8.569 -0.1241  0.0648 -0.2513
   65loPI   C2A 1032  17.985   3.573   8.182  0.0213 -0.2303  0.2294
   65loPI   C3A 1033  18.022   3.559   7.841 -0.4152 -0.1677 -0.0944
   65loPI   C4A 1034  17.687   3.555   7.573  0.1399 -0.1709  0.0406
   65loPI   C5A 1035  17.316   3.844   7.582  0.2396  0.0704  0.1690
   65loPI   C6A 1036  17.296   4.315   7.514  0.1738 -0.0892  0.1219
   65loPI   C1B 1037  18.338   3.737   8.527 -0.2347  0.1354 -0.1119
   65loPI   C2B 1038  18.411   3.728   8.078  0.1272 -0.2413 -0.0224
   65loPI   C3B 1039  18.538   3.559   7.624 -0.1457  0.2656  0.0673
   65loPI   C4B 1040  18.947   3.733   7.488 -0.2451 -0.0902  0.2022
   66loPI    C1 1041  17.629  14.569   9.491  0.0259 -0.0511  0.3328
   66loPI    C2 1042  17.318  14.393   9.672 -0.2795  0.2331  0.0987
   66loPI    C3 1043  17.346  14.792   9.665  0.0418  0.2126  0.0306
   66loPI   PO4 1044  17.688  14.552   9.237 -0.1838 -0.2315  0.1748
   66loPI   GL1 1045  17.748  14.780   8.943  0.3142 -0.2882 -0.0031
   66loPI   GL2 1046  18.115  14.852   8.873  0.0772 -0.2968 -0.0867
   66loPI   C1A 1047  17.759  14.988   8.568 -0.1640 -0.2473 -0.1373
   66loPI   C2A 1048  17.748  15.190   8.218  0.2188 -0.2709 -0.0588
   66loPI   C3A 1049  18.031  15.008   7.898  0.3712 -0.0534 -0.4132
   66loPI   C4A 1050  17.890  14.883   7.514 -0.0317 -0.2564  0.2464
   66loPI   C5A 1051  17.522  14.709   7.291  0.0558  0.1008  0.3314
   66loPI   C6A 1052  17.213  14.325   7.308  0.1913 -0.0133 -0.2857
   66loPI   C1B 1053  18.387  14.630   8.736  0.0873 -0.1563  0.0775
   66loPI   C2B 1054  18.730  14.558   8.393 -0.3897 -0.1269  0.1808
   66loPI   C3B 1055  18.909  14.614   7.913  0.1723  0.1400 -0.0142
   66loPI   C4B 1056  19.087  14.587   7.478  0.1810 -0.0479  0.0040
   67loPI    C1 1057   7.006  14.555   9.534  0.2461  0.0624  0.0519
   67loPI    C2 1058   7.000  14.890   9.752  0.2530  0.0130  0.1283
   67loPI    C3 1059   6.961  14.534   9.931 -0.0437 -0.0135  0.0171
   67loPI   PO4 1060   7.204  14.594   9.392 -0.2567 -0.0797 -0.0120
   67loPI   GL1 1061   7.271  14.750   9.074  0.1387 -0.1283  0.4465
   67loPI   GL2 1062   7.078  14.802   8.811  0.2785 -0.1306  0.0560
   67loPI   C1A 1063   7.435  14.861   8.571 -0.2456 -0.3117  0.0960
   67loPI   C2A 1064   7.363  14.842   8.215  0.0548 -0.2121  0.4594
   67loPI   C3A 1065   7.530  14.951   7.836 -0.4745  0.1306 -0.1281
   67loPI   C4A 1066   7.969  15.166   7.778 -0.1710  0.2018 -0.1477
   67loPI   C5A 1067   8.254  14.960   7.471 -0.0095  0.0023  0.4055
   67loPI   C6A 1068   8.570  14.954   7.236  0.1227 -0.1326  0.0571
   67loPI   C1B 1069   6.849  14.732   8.446  0.0011  0.0484 -0.2853
   67loPI   C2B 1070   6.998  14.548   8.114  0.1603  0.0578  0.0587
   67loPI   C3B 1071   7.357  14.377   7.883  0.0426 -0.0773  0.1209
   67loPI   C4B 1072   7.417  14.494   7.443  0.0840  0.0305  0.1965
   68loPI    C1 1073   2.679  11.209   9.878 -0.0199 -0.0722  0.3728
   68loPI    C2 1074   2.319  11.208   9.704  0.0071 -0.0500  0.3166
   68loPI    C3 1075   2.415  11.498   9.962  0.0463  0.0392  0.2028
   68loPI   PO4 1076   2.872  11.131   9.702 -0.2082 -0.0681 -0.1579
   68loPI   GL1 1077   3.158  10.862   9.386  0.2842 -0.2368  0.3052
   68loPI   GL2 1078   2.953  10.632   9.155  0.2761  0.0227 -0.0506
   68loPI   C1A 1079   3.228  10.957   8.889 -0.2186 -0.1090 -0.1024
   68loPI   C2A 1080   3.256  10.854   8.406  0.2912  0.1915  0.0187
   68loPI   C3A 1081   3.276  10.778   8.029  0.0555 -0.1974  0.3297
   68loPI   C4A 1082   3.182  10.839   7.513 -0.2371  0.1269 -0.2358
   68loPI   C5A 1083   3.365  10.706   7.137 -0.2470 -0.1261 -0.0716
   68loPI   C6A 1084   3.728  10.478   7.128  0.0336 -0.1671  0.4295
   68loPI   C1B 1085   3.231  10.480   8.866 -0.2533 -0.0188 -0.0122
   68loPI   C2B 1086   3.310  10.378   8.499 -0.2105  0.0877  0.1401
   68loPI   C3B 1087   3.535  10.244   8.146  0.4789 -0.2423  0.4402
   68loPI   C4B 1088   3.821  10.115   7.869 -0.0131 -0.2185 -0.1685
   69loPI    C1 1089   8.482  17.591   9.885  0.1823  0.1659 -0.0110
   69loPI    C2 1090   8.611  17.962   9.958  0.0291  0.1374  0.4404
   69loPI    C3 1091   8.553  17.708  10.261  0.1752 -0.2733  0.1335
   69loPI   PO4 1092   8.412  17.644   9.595  0.0769 -0.0608  0.2000
   69loPI   GL1 1093   8.201  17.682   9.355  0.3006 -0.0375  0.4597
   69loPI   GL2 1094   7.873  17.775   9.384  0.2261  0.1576  0.1609
   69loPI   C1A 1095   8.272  17.576   8.955  0.1896  0.0086 -0.1642
   69loPI   C2A 1096   8.454  17.838   8.526 -0.0202 -0.1082 -0.3000
   69loPI   C3A 1097   8.531  17.890   8.107  0.3404  0.1327  0.3920
   69loPI   C4A 1098   8.880  17.851   7.753 -0.0370  0.1689 -0.2421
   69loPI   C5A 1099   9.006  17.874   7.336 -0.0974  0.0030  0.0914
   69loPI   C6A 1100   9.180  17.557   6.987 -0.1213  0.4705  0.0226
   69loPI   C1B 1101   7.646  18.116   9.248 -0.1813 -0.1368  0.2421
   69loPI   C2B 1102   7.856  18.009   8.898  0.3878  0.2990  0.2181
   69loPI   C3B 1103   7.978  17.852   8.491  0.1472 -0.4842 -0.1607
   69loPI   C4B 1104   8.088  17.378   8.361  0.2750 -0.0420  0.1937
   70loPI    C1 1105  16.947  15.160   9.204  0.1846  0.0157 -0.1713
   70loPI    C2 1106  16.747  15.314   9.514 -0.0492 -0.2620 -0.1806
   70loPI    C3 1107  17.147  15.304   9.519 -0.0417  0.0249 -0.0297
   70loPI   PO4 1108  16.794  15.263   9.007 -0.3110  0.3711  0.0434
   70loPI   GL1 1109  16.639  15.204   8.614 -0.2283  0.0334 -0.2539
   70loPI   GL2 1110  16.226  15.312   8.488  0.0632 -0.2255 -0.1886
   70loPI   C1A 1111  16.623  15.512   8.298 -0.4394  0.1565  0.0180
   70loPI   C2A 1112  16.271  15.628   8.119 -0.0086 -0.0103  0.2500
   70loPI   C3A 1113  15.991  15.814   7.872  0.0270  0.2574 -0.1173
   70loPI   C4A 1114  15.729  15.701   7.605  0.0149 -0.1950  0.2423
   70loPI   C5A 1115  15.611  15.594   7.144 -0.2556 -0.3344 -0.0606
   70loPI   C6A 1116  15.332  15.307   7.031  0.2616  0.0723 -0.0237
   70loPI   C1B 1117  16.324  15.119   8.097 -0.2380 -0.0255  0.1459
   70loPI   C2B 1118  16.564  15.349   7.819  0.2127  0.2670 -0.1202
   70loPI   C3B 1119  16.445  15.733   7.651 -0.2336 -0.4605 -0.1181
   70loPI   C4B 1120  16.274  16.055   7.568  0.3005  0.2179  0.3856
   71loPI    C1 1121  16.658   6.054   9.522  0.0799  0.0217  0.0579
   71loPI    C2 1122  16.566   5.701   9.686 -0.1065 -0.0489 -0.1924
   71loPI    C3 1123  16.343   6.023   9.766 -0.0071 -0.0124 -0.0579
   71loPI   PO4 1124  16.728   5.966   9.233 -0.0277 -0.1784  0.1694
   71loPI   GL1 1125  16.958   5.699   8.871  0.0303  0.0846 -0.2548
   71loPI   GL2 1126  17.000   6.103   8.853  0.2593  0.0915 -0.1547
   71loPI   C1A 1127  16.754   5.746   8.495 -0.1002 -0.1099  0.3832
   71loPI   C2A 1128  16.970   5.810   8.010  0.1593 -0.0340 -0.0985
   71loPI   C3A 1129  16.787   5.767   7.628  0.1907  0.2670  0.1394
   71loPI   C4A 1130  16.684   5.752   7.169  0.1820  0.0590  0.1746
   71loPI   C5A 1131  16.450   6.003   6.803  0.2345  0.1141  0.2506
   71loPI   C6A 1132  16.202   6.161   6.507  0.0852  0.1668  0.0972
   71loPI   C1B 1133  17.086   6.394   8.419 -0.1977  0.2599  0.0105
   71loPI   C2B 1134  16.944   6.283   8.008  0.1004 -0.1886 -0.1401
   71loPI   C3B 1135  17.018   6.215   7.641  0.0779 -0.0517 -0.2129
   71loPI   C4B 1136  17.023   6.134   7.234 -0.2095  0.3590  0.1819
   72loPI    C1 1137   1.302   6.736   9.584 -0.0760  0.1610  0.1340
   72loPI    C2 1138   1.452   7.084   9.713  0.1613  0.1936 -0.2164
   72loPI    C3 1139   1.688   6.823   9.523  0.0101 -0.2065  0.1308
   72loPI   PO4 1140   1.028   6.848   9.432 -0.3743  0.2379  0.0524
   72loPI   GL1 1141   0.907   6.963   9.104  0.1693 -0.1966 -0.5363
   72loPI   GL2 1142   1.243   7.016   8.997 -0.3879  0.1436 -0.2746
   72loPI   C1A 1143   0.825   6.935   8.633  0.1150 -0.1356  0.1022
   72loPI   C2A 1144   0.935   6.914   8.213 -0.1927  0.1139 -0.1036
   72loPI   C3A 1145   0.940   6.767   7.744  0.1466 -0.0099  0.3217
   72loPI   C4A 1146   1.168   6.720   7.293  0.0396  0.5193  0.0152
   72loPI   C5A 1147   1.296   6.476   7.024 -0.5030  0.0812  0.2921
   72loPI   C6A 1148   1.353   6.261   6.698 -0.2397  0.3163  0.0460
   72loPI   C1B 1149   1.253   7.273   8.579 -0.1111 -0.0526 -0.0729
   72loPI   C2B 1150   1.163   7.389   8.310 -0.1011  0.1238  0.1648
   72loPI   C3B 1151   1.057   7.285   7.944 -0.3728 -0.0373 -0.1442
   72loPI   C4B 1152   0.905   7.200   7.523  0.2240 -0.1007  0.0643
   73loPI    C1 1153   9.012  14.946   9.444  0.1085  0.1734 -0.0093
   73loPI    C2 1154   9.153  14.980   9.817  0.1139 -0.1916  0.0255
   73loPI    C3 1155   8.767  14.892   9.756  0.0864 -0.0171 -0.0586
   73loPI   PO4 1156   9.177  15.194   9.311 -0.2650  0.0184 -0.0787
   73loPI   GL1 1157   9.039  15.176   8.992  0.1873  0.1969 -0.0782
   73loPI   GL2 1158   9.060  15.446   8.792  0.1300 -0.1485 -0.2814
   73loPI   C1A 1159   8.878  15.142   8.502 -0.1228 -0.2577  0.1825
   73loPI   C2A 1160   8.757  14.909   8.123 -0.2398 -0.0482  0.1381
   73loPI   C3A 1161   8.854  14.667   7.691 -0.0094  0.2111 -0.0579
   73loPI   C4A 1162   9.029  14.355   7.364 -0.1951  0.0517 -0.1051
   73loPI   C5A 1163   8.955  14.074   6.971  0.0469 -0.1056  0.0568
   73loPI   C6A 1164   8.975  13.793   6.664  0.3804  0.1329 -0.1545
   73loPI   C1B 1165   9.053  15.575   8.270  0.0562 -0.0083 -0.0262
   73loPI   C2B 1166   8.849  15.554   7.880  0.0393  0.0758  0.3800
   73loPI   C3B 1167   8.731  15.741   7.620  0.1645  0.2328  0.1681
   73loPI   C4B 1168   8.730  15.956   7.296  0.1557  0.1693 -0.1718
   74loPI    C1 1169  10.997   5.269   9.509  0.1789  0.1370  0.2224
   74loPI    C2 1170  10.850   5.628   9.413 -0.3117 -0.0142  0.3758
   74loPI    C3 1171  11.154   5.598   9.672  0.1982  0.3217 -0.1582
   74loPI   PO4 1172  11.014   5.183   9.207  0.0583 -0.2010  0.0670
   74loPI   GL1 1173  11.365   5.188   8.857 -0.0748  0.3674  0.0414
   74loPI   GL2 1174  11.223   4.918   8.829  0.1990  0.0363  0.0190
   74loPI   C1A 1175  11.752   5.346   8.656  0.1202  0.2884  0.2720
   74loPI   C2A 1176  11.901   5.134   8.298 -0.0191  0.1865  0.1259
   74loPI   C3A 1177  11.778   4.731   7.999  0.1596  0.0506  0.1825
   74loPI   C4A 1178  11.938   4.507   7.571 -0.2017  0.1173  0.0860
   74loPI   C5A 1179  12.198   4.245   7.262 -0.0216  0.0491 -0.3895
   74loPI   C6A 1180  12.392   4.363   6.879 -0.2601 -0.3603  0.1123
   74loPI   C1B 1181  10.986   4.742   8.525  0.1792 -0.2490  0.1035
   74loPI   C2B 1182  10.841   4.666   8.081 -0.1843  0.0881  0.0103
   74loPI   C3B 1183  10.567   4.856   7.742 -0.1088  0.2431 -0.1626
   74loPI   C4B 1184  10.464   4.985   7.342 -0.4936 -0.2283 -0.2498
   75loPI    C1 1185   9.854  18.382   9.520 -0.0325 -0.0552  0.0788
   75loPI    C2 1186   9.867  17.985   9.568 -0.1767 -0.0888 -0.1454
   75loPI    C3 1187   9.650  18.210   9.818  0.0759 -0.1262  0.1129
   75loPI   PO4 1188   9.667  18.399   9.300  0.1302 -0.1517  0.4542
   75loPI   GL1 1189   9.760  18.513   8.939 -0.1324 -0.2701  0.2972
   75loPI   GL2 1190  10.047  18.552   8.792  0.1998  0.2754  0.1525
   75loPI   C1A 1191   9.574  18.486   8.578  0.0420 -0.2933  0.0821
   75loPI   C2A 1192   9.497  18.629   8.061  0.0151 -0.2298  0.0712
   75loPI   C3A 1193   9.467  18.820   7.656  0.0598 -0.1491 -0.1463
   75loPI   C4A 1194   9.257  18.786   7.348 -0.1327 -0.4533 -0.2314
   75loPI   C5A 1195   9.090  18.965   7.001  0.2672  0.4647 -0.0391
   75loPI   C6A 1196   8.834  18.996   6.740  0.1848 -0.0861  0.1612
   75loPI   C1B 1197   9.955  18.633   8.338  0.0883 -0.3378  0.1461
   75loPI   C2B 1198   9.948  18.818   7.891 -0.1286  0.1543 -0.0241
   75loPI   C3B 1199  10.131  18.875   7.445 -0.1542 -0.1918 -0.1101
   75loPI   C4B 1200  10.247  19.044   7.130 -0.0480 -0.3283 -0.1381
   76loPI    C1 1201  12.998   3.306   9.024  0.0619  0.1897 -0.2581
   76loPI    C2 1202  13.274   3.200   9.293  0.1008  0.1189 -0.3258
   76loPI    C3 1203  13.316   3.540   9.086 -0.0606  0.3062 -0.0571
   76loPI   PO4 1204  12.986   3.103   8.892 -0.0708  0.0818 -0.1869
   76loPI   GL1 1205  13.099   3.021   8.637 -0.0049  0.0280 -0.0796
   76loPI   GL2 1206  13.392   2.967   8.649  0.0980  0.0002  0.0410
   76loPI   C1A 1207  13.076   2.932   8.166  0.1222 -0.2707 -0.2693
   76loPI   C2A 1208  13.232   2.868   7.782  0.3661 -0.0045 -0.2007
   76loPI   C3A 1209  13.204   2.892   7.350  0.1126 -0.0973  0.0270
   76loPI   C4A 1210  13.151   2.786   6.917  0.4388  0.2866 -0.1698
   76loPI   C5A 1211  12.675   2.768   6.738 -0.2280  0.0056 -0.0157
   76loPI   C6A 1212  12.234   2.748   6.735 -0.0174  0.1241 -0.1615
   76loPI   C1B 1213  13.358   2.580   8.428  0.0158 -0.0868  0.4432
   76loPI   C2B 1214  13.165   2.366   8.099  0.0013 -0.2538 -0.2132
   76loPI   C3B 1215  13.316   2.411   7.632 -0.2458  0.3049 -0.0941
   76loPI   C4B 1216  13.415   2.325   7.149 -0.0078 -0.2071  0.0578
   77loPI    C1 1217   1.798  12.936   9.780 -0.0174 -0.3862 -0.0064
   77loPI    C2 1218   1.932  12.624   9.992  0.5234 -0.2308 -0.1052
   77loPI    C3 1219   2.187  12.905   9.865  0.0593  0.2100 -0.0969
   77loPI   PO4 1220   1.625  12.819   9.668  0.0241  0.0109 -0.1476
   77loPI   GL1 1221   1.597  12.584   9.297  0.1547  0.0452 -0.1715
   77loPI   GL2 1222   1.731  12.895   9.178  0.1238  0.0934 -0.0428
   77loPI   C1A 1223   1.419  12.241   9.118 -0.0115 -0.0232  0.0015
   77loPI   C2A 1224   1.628  12.057   8.902  0.3267 -0.4031 -0.2522
   77loPI   C3A 1225   1.460  12.038   8.436 -0.0151 -0.0061 -0.1658
   77loPI   C4A 1226   1.329  12.310   8.078 -0.1028  0.2381 -0.0210
   77loPI   C5A 1227   1.422  12.181   7.534 -0.1435 -0.3014  0.0069
   77loPI   C6A 1228   1.179  12.071   7.214  0.1023 -0.1176 -0.0185
   77loPI   C1B 1229   1.511  13.046   8.795 -0.1509  0.2359  0.0711
   77loPI   C2B 1230   1.249  13.073   8.396  0.1948  0.0354  0.2454
   77loPI   C3B 1231   1.271  12.814   8.019 -0.0536 -0.4102 -0.0918
   77loPI   C4B 1232   1.029  12.554   7.759 -0.1978  0.1425  0.1795
   78loPI    C1 1233   0.191   1.600   9.723  0.1348 -0.1078  0.1606
   78loPI    C2 1234   0.513   1.573   9.958  0.1192 -0.2115  0.1708
   78loPI    C3 1235   0.163   1.693  10.111  0.2353  0.2580  0.0837
   78loPI   PO4 1236   0.316   1.761   9.489  0.0413 -0.0507 -0.0463
   78loPI   GL1 1237   0.143   1.640   9.135  0.0874 -0.0929  0.1979
   78loPI   GL2 1238  -0.174   1.789   8.940 -0.2491 -0.2415 -0.1583
   78loPI   C1A 1239   0.337   1.731   8.768 -0.3366 -0.1129  0.2384
   78loPI   C2A 1240   0.413   1.467   8.436  0.0065  0.0607 -0.1569
   78loPI   C3A 1241   0.739   1.264   8.295 -0.0205 -0.0601  0.0193
   78loPI   C4A 1242   0.926   1.165   7.943  0.2160 -0.0675 -0.0969
   78loPI   C5A 1243   1.259   1.225   7.590  0.0494 -0.1418 -0.2909
   78loPI   C6A 1244   1.661   1.210   7.388 -0.3008  0.0849  0.2818
   78loPI   C1B 1245  -0.051   1.732   8.488  0.4146 -0.0593 -0.1408
   78loPI   C2B 1246   0.115   1.716   8.097 -0.1216  0.0829  0.1151
   78loPI   C3B 1247   0.167   1.712   7.642 -0.0182 -0.0652 -0.1677
   78loPI   C4B 1248   0.025   1.551   7.257  0.3684  0.3537  0.1538
   79loPI    C1 1249  14.665   2.118   9.197  0.0059  0.2529 -0.0015
   79loPI    C2 1250  14.712   1.996   9.576  0.0505  0.1491 -0.0402
   79loPI    C3 1251  14.422   2.256   9.483 -0.1532 -0.0548  0.0158
   79loPI   PO4 1252  14.618   1.952   9.053  0.0706 -0.0658  0.2274
   79loPI   GL1 1253  14.625   2.069   8.700  0.0135  0.0630  0.1005
   79loPI   GL2 1254  14.797   2.325   8.749 -0.1698 -0.0445 -0.0629
   79loPI   C1A 1255  14.764   1.830   8.376  0.3415 -0.1664  0.1989
   79loPI   C2A 1256  14.919   1.826   7.904 -0.1140  0.0363 -0.0893
   79loPI   C3A 1257  15.177   1.699   7.512 -0.4310 -0.2075  0.3150
   79loPI   C4A 1258  14.934   1.638   7.100 -0.3262 -0.1413 -0.0332
   79loPI   C5A 1259  14.669   1.556   6.832  0.3160 -0.1713  0.0597
   79loPI   C6A 1260  14.591   1.253   6.426  0.1913  0.3074  0.0970
   79loPI   C1B 1261  14.702   2.352   8.312  0.0159 -0.1211 -0.1182
   79loPI   C2B 1262  14.863   2.397   7.825  0.0091 -0.0952  0.1802
   79loPI   C3B 1263  14.800   2.116   7.468 -0.0819  0.1572 -0.1540
   79loPI   C4B 1264  15.021   2.316   7.179  0.0527 -0.2021  0.0021
   80loPI    C1 1265  16.126   6.643   9.188 -0.0144 -0.1732 -0.0882
   80loPI    C2 1266  16.204   6.531   9.564 -0.2082 -0.0170  0.0004
   80loPI    C3 1267  16.188   6.257   9.273  0.3568 -0.0923  0.0280
   80loPI   PO4 1268  16.167   6.691   8.983  0.5657 -0.1782  0.0443
   80loPI   GL1 1269  16.620   6.673   8.682  0.0965  0.0771 -0.2495
   80loPI   GL2 1270  16.288   6.716   8.502  0.4123  0.0170 -0.2807
   80loPI   C1A 1271  16.761   6.742   8.233  0.1841  0.0910 -0.1078
   80loPI   C2A 1272  16.963   6.790   7.774  0.2088  0.2970 -0.2197
   80loPI   C3A 1273  17.199   6.608   7.401  0.1081  0.3927  0.1306
   80loPI   C4A 1274  17.521   6.268   7.280  0.0733 -0.1697 -0.1970
   80loPI   C5A 1275  17.833   6.084   7.510  0.3185 -0.2459 -0.1020
   80loPI   C6A 1276  18.096   5.741   7.389  0.1077  0.2471  0.2378
   80loPI   C1B 1277  16.426   7.200   8.468  0.1425  0.2341 -0.2630
   80loPI   C2B 1278  16.517   7.432   8.075  0.2609  0.4686 -0.0999
   80loPI   C3B 1279  16.564   7.815   7.866  0.0779  0.0583 -0.1276
   80loPI   C4B 1280  16.846   8.153   7.640  0.4742  0.3514  0.0593
   81loPI    C1 1281   1.274  13.451  10.015  0.0225 -0.0392 -0.1109
   81loPI    C2 1282   1.636  13.308  10.104 -0.0395 -0.0961  0.0551
   81loPI    C3 1283   1.337  13.269  10.365 -0.1211  0.1105 -0.0056
   81loPI   PO4 1284   1.346  13.650   9.871 -0.1019  0.1653 -0.2822
   81loPI   GL1 1285   1.296  13.704   9.475  0.0033  0.1468  0.1347
   81loPI   GL2 1286   1.641  13.783   9.393  0.0651 -0.0516 -0.3292
   81loPI   C1A 1287   1.281  13.927   9.031  0.1002  0.1648 -0.0373
   81loPI   C2A 1288   1.240  13.961   8.600  0.1205 -0.0316  0.1809
   81loPI   C3A 1289   1.304  14.016   8.128 -0.0618 -0.0758  0.0987
   81loPI   C4A 1290   1.370  13.970   7.744 -0.0707 -0.1327  0.0707
   81loPI   C5A 1291   1.660  13.741   7.530 -0.1394 -0.3534  0.2079
   81loPI   C6A 1292   1.900  13.344   7.547  0.0953 -0.1560  0.3913
   81loPI   C1B 1293   1.796  13.530   8.995  0.0107  0.1337  0.2230
   81loPI   C2B 1294   1.640  13.540   8.564 -0.0965 -0.0213 -0.1752
   81loPI   C3B 1295   1.710  13.362   8.127 -0.0898 -0.1418 -0.0910
   81loPI   C4B 1296   2.045  13.006   7.985  0.3276  0.0161 -0.0915
   82loPI    C1 1297   8.453   3.776   9.269  0.4035 -0.2383  0.1598
   82loPI    C2 1298   8.505   3.698   9.658 -0.1673 -0.0398  0.2863
   82loPI    C3 1299   8.243   3.484   9.445 -0.0527  0.0277  0.0750
   82loPI   PO4 1300   8.488   4.094   9.243 -0.3163 -0.1711 -0.1188
   82loPI   GL1 1301   8.699   4.240   8.915  0.1672  0.1246  0.2699
   82loPI   GL2 1302   8.459   4.228   8.656 -0.3303  0.0140 -0.2990
   82loPI   C1A 1303   8.954   4.213   8.410 -0.0325  0.1059  0.2163
   82loPI   C2A 1304   9.178   4.310   8.078  0.0412  0.2457  0.1769
   82loPI   C3A 1305   9.223   4.387   7.604  0.4490  0.0914  0.0838
   82loPI   C4A 1306   9.132   4.539   7.208 -0.4324 -0.0210 -0.2643
   82loPI   C5A 1307   9.109   4.784   6.788 -0.3224 -0.2629 -0.0446
   82loPI   C6A 1308   8.660   4.785   6.628  0.2881 -0.0944 -0.1398
   82loPI   C1B 1309   8.488   4.035   8.154 -0.2166 -0.1988  0.0388
   82loPI   C2B 1310   8.306   3.853   7.779 -0.0759 -0.0355 -0.1424
   82loPI   C3B 1311   8.087   3.995   7.439 -0.1627  0.3651  0.1794
   82loPI   C4B 1312   7.702   3.816   7.270  0.2936  0.0117  0.3060
   83loPI    C1 1313  13.593  11.479   9.178  0.0498 -0.1456  0.1299
   83loPI    C2 1314  13.918  11.699   9.099 -0.1045  0.0998  0.1705
   83loPI    C3 1315  13.866  11.543   9.464  0.2201 -0.3754  0.0223
   83loPI   PO4 1316  13.349  11.650   9.103 -0.2584 -0.0922 -0.3187
   83loPI   GL1 1317  13.096  11.794   8.814  0.0493 -0.0537 -0.0358
   83loPI   GL2 1318  12.958  11.564   8.584  0.1518 -0.0354  0.0963
   83loPI   C1A 1319  13.372  11.887   8.475 -0.2149 -0.1658  0.0910
   83loPI   C2A 1320  13.200  11.988   8.127 -0.1892  0.0692 -0.4179
   83loPI   C3A 1321  13.238  12.066   7.680 -0.2142  0.0444 -0.0751
   83loPI   C4A 1322  13.146  12.279   7.213 -0.7949  0.1751 -0.0184
   83loPI   C5A 1323  12.889  12.569   6.932 -0.0400 -0.0381  0.2897
   83loPI   C6A 1324  12.657  12.711   6.613 -0.1550  0.1680 -0.0697
   83loPI   C1B 1325  13.164  11.447   8.163 -0.3038 -0.0511  0.3157
   83loPI   C2B 1326  13.059  11.453   7.677  0.0158 -0.1647  0.0380
   83loPI   C3B 1327  12.761  11.432   7.353  0.0600  0.1384 -0.3911
   83loPI   C4B 1328  12.628  11.094   7.039  0.2308  0.0587 -0.2173
   84loPI    C1 1329   7.995  12.328   9.877 -0.0505 -0.1277 -0.1388
   84loPI    C2 1330   8.288  12.248  10.137 -0.2226  0.0086  0.1016
   84loPI    C3 1331   8.185  11.976   9.862 -0.0941 -0.1709  0.2288
   84loPI   PO4 1332   7.961  12.475   9.637  0.0179 -0.0588 -0.1192
   84loPI   GL1 1333   8.090  12.397   9.302  0.0459 -0.1487  0.0759
   84loPI   GL2 1334   8.063  12.215   9.042  0.1293 -0.3775  0.1445
   84loPI   C1A 1335   8.080  12.764   8.954 -0.0480  0.4536  0.1810
   84loPI   C2A 1336   8.149  12.704   8.524  0.0395  0.1078 -0.5013
   84loPI   C3A 1337   7.822  12.472   8.302 -0.1392  0.1174  0.3701
   84loPI   C4A 1338   7.770  12.356   7.927 -0.0796  0.1697 -0.0007
   84loPI   C5A 1339   7.398  12.341   7.666 -0.1315 -0.1540 -0.0639
   84loPI   C6A 1340   7.192  12.431   7.220  0.2197 -0.1355 -0.4522
   84loPI   C1B 1341   8.127  11.921   8.588 -0.3091  0.0163 -0.3480
   84loPI   C2B 1342   8.107  12.007   8.200 -0.0466  0.0487  0.0782
   84loPI   C3B 1343   8.171  11.934   7.825  0.2702  0.3816 -0.3477
   84loPI   C4B 1344   8.261  11.890   7.382  0.1162 -0.0395 -0.0292
   85loPI    C1 1345   1.942  14.529   9.794  0.2173 -0.1594  0.2667
   85loPI    C2 1346   2.028  14.917   9.838  0.1316 -0.0991 -0.0668
   85loPI    C3 1347   1.771  14.739  10.088 -0.2407  0.1929 -0.2314
   85loPI   PO4 1348   1.814  14.539   9.501  0.2738  0.0530 -0.0982
   85loPI   GL1 1349   1.901  14.829   9.223 -0.1662  0.3625 -0.1005
   85loPI   GL2 1350   2.161  15.006   9.243  0.1562  0.1581  0.2217
   85loPI   C1A 1351   1.830  14.607   8.818 -0.0319 -0.0826 -0.0536
   85loPI   C2A 1352   1.707  14.486   8.494 -0.2303  0.4329  0.1335
   85loPI   C3A 1353   1.799  14.336   8.016  0.1067 -0.1285 -0.1209
   85loPI   C4A 1354   1.598  14.359   7.618  0.0812  0.0323 -0.0465
   85loPI   C5A 1355   1.674  14.585   7.222  0.2642 -0.3615  0.2009
   85loPI   C6A 1356   1.416  14.840   6.913  0.1765  0.0838 -0.0568
   85loPI   C1B 1357   1.986  15.116   8.824  0.1157  0.0159  0.0491
   85loPI   C2B 1358   1.886  15.016   8.452 -0.2554  0.1781  0.0792
   85loPI   C3B 1359   1.733  14.834   8.067  0.0615  0.0195  0.3675
   85loPI   C4B 1360   1.689  14.917   7.613  0.0189  0.0237 -0.1052
   86loPI    C1 1361   0.194  15.779   9.864 -0.0152 -0.2429  0.1020
   86loPI    C2 1362   0.593  15.801   9.855  0.0018 -0.5827 -0.3650
   86loPI    C3 1363   0.408  15.629  10.166  0.1835  0.0062  0.0878
   86loPI   PO4 1364   0.137  15.712   9.548 -0.0761 -0.2149 -0.3942
   86loPI   GL1 1365  -0.198  15.724   9.408 -0.0882 -0.0369 -0.1953
   86loPI   GL2 1366  -0.030  15.987   9.193 -0.1057  0.2475 -0.0766
   86loPI   C1A 1367  -0.236  15.458   9.022 -0.0802  0.0803 -0.1421
   86loPI   C2A 1368  -0.276  15.623   8.617 -0.0652  0.2742 -0.1587
   86loPI   C3A 1369  -0.000  15.517   8.176  0.0459  0.1404 -0.2673
   86loPI   C4A 1370   0.306  15.528   7.808  0.0463  0.0987  0.3654
   86loPI   C5A 1371   0.666  15.433   7.790 -0.2523 -0.0446 -0.0686
   86loPI   C6A 1372   1.046  15.503   7.976 -0.1217  0.0310  0.4650
   86loPI   C1B 1373   0.156  15.747   8.902  0.0887  0.0189 -0.1287
   86loPI   C2B 1374   0.218  15.780   8.597  0.0108  0.0389  0.1772
   86loPI   C3B 1375   0.414  15.853   8.227  0.2394  0.0015 -0.0979
   86loPI   C4B 1376   0.732  15.904   8.021  0.1022 -0.0484 -0.2528
   87loPI    C1 1377   9.109   1.919   9.458  0.0660 -0.2927  0.2729
   87loPI    C2 1378   9.366   1.620   9.520  0.3410 -0.1145  0.0189
   87loPI    C3 1379   9.323   1.907   9.796  0.5613 -0.0414 -0.0206
   87loPI   PO4 1380   9.237   2.000   9.210  0.0378 -0.3189 -0.1021
   87loPI   GL1 1381   9.356   1.910   8.814  0.3156  0.1889  0.0355
   87loPI   GL2 1382   9.217   1.623   8.711 -0.1916 -0.4232 -0.2268
   87loPI   C1A 1383   9.457   1.920   8.376 -0.0885  0.0767 -0.0412
   87loPI   C2A 1384   9.493   1.775   7.813  0.2618 -0.0148 -0.2432
   87loPI   C3A 1385   9.171   1.814   7.536  0.1312 -0.1972  0.3001
   87loPI   C4A 1386   8.851   1.476   7.437  0.0435  0.2592 -0.1930
   87loPI   C5A 1387   8.899   1.134   7.117 -0.1231 -0.0164 -0.1002
   87loPI   C6A 1388   8.621   0.898   6.687 -0.3342 -0.3044  0.5627
   87loPI   C1B 1389   9.372   1.422   8.300  0.0980  0.0832  0.0427
   87loPI   C2B 1390   9.583   1.213   7.965  0.0909  0.0387 -0.1694
   87loPI   C3B 1391   9.899   0.965   7.685  0.2995  0.1166  0.2004
   87loPI   C4B 1392  10.063   0.739   7.344 -0.1999  0.1352  0.0989
   88loPI    C1 1393   5.240   5.592   9.334  0.2999 -0.1428 -0.1474
   88loPI    C2 1394   5.142   5.241   9.501  0.0768  0.0746  0.1907
   88loPI    C3 1395   5.476   5.273   9.283 -0.0108 -0.3979 -0.0245
   88loPI   PO4 1396   5.083   5.670   9.227  0.2077 -0.0708 -0.2418
   88loPI   GL1 1397   5.015   5.643   8.807 -0.0053 -0.2417 -0.4083
   88loPI   GL2 1398   5.309   5.558   8.775  0.2101 -0.0430 -0.0058
   88loPI   C1A 1399   4.910   5.776   8.367  0.2567 -0.0118 -0.0435
   88loPI   C2A 1400   4.767   5.613   7.923  0.1531 -0.0971 -0.1706
   88loPI   C3A 1401   4.947   5.590   7.485  0.0540  0.2471 -0.2277
   88loPI   C4A 1402   5.115   5.883   7.109 -0.2680  0.1148 -0.4220
   88loPI   C5A 1403   5.058   6.246   7.030  0.1735  0.2097 -0.2295
   88loPI   C6A 1404   5.264   6.723   6.874 -0.0170  0.0796  0.2600
   88loPI   C1B 1405   5.641   5.779   8.439  0.1060 -0.1638 -0.1604
   88loPI   C2B 1406   5.852   5.885   8.055 -0.1034  0.5559 -0.2404
   88loPI   C3B 1407   6.209   5.794   7.736  0.2108 -0.1065 -0.2153
   88loPI   C4B 1408   6.417   5.655   7.270 -0.0764  0.1563  0.2793
   89loPI    C1 1409   8.007  15.863   9.392 -0.2612  0.0246 -0.1617
   89loPI    C2 1410   7.729  15.969   9.658 -0.0196  0.0194  0.0977
   89loPI    C3 1411   8.052  16.198   9.605  0.2210 -0.2811  0.2388
   89loPI   PO4 1412   7.996  15.548   9.373 -0.2306  0.0455 -0.2484
   89loPI   GL1 1413   7.842  15.491   9.007  0.2179 -0.2740 -0.2503
   89loPI   GL2 1414   7.758  15.128   8.959  0.1943  0.0411  0.2092
   89loPI   C1A 1415   7.959  15.533   8.565  0.0777  0.1138  0.2610
   89loPI   C2A 1416   7.972  15.428   8.191  0.1451  0.2581 -0.1164
   89loPI   C3A 1417   7.668  15.634   7.959 -0.2631  0.1861  0.1835
   89loPI   C4A 1418   7.552  15.524   7.538  0.1048 -0.0526  0.1749
   89loPI   C5A 1419   7.754  15.520   7.175 -0.0393 -0.1405 -0.2828
   89loPI   C6A 1420   7.896  15.472   6.792  0.3211  0.0159 -0.2244
   89loPI   C1B 1421   7.512  15.321   8.624 -0.1248  0.0132  0.4535
   89loPI   C2B 1422   7.433  15.326   8.252  0.2537 -0.2423 -0.2235
   89loPI   C3B 1423   7.281  15.343   7.907  0.2022 -0.1744  0.1291
   89loPI   C4B 1424   7.207  15.239   7.523 -0.3295  0.0112  0.2139
   90loPI    C1 1425   2.674   0.490   9.294 -0.0090 -0.0557 -0.0322
   90loPI    C2 1426   2.862   0.151   9.195  0.0275 -0.1140  0.2293
   90loPI    C3 1427   2.899   0.299   9.565 -0.0504  0.1353  0.1391
   90loPI   PO4 1428   2.504   0.436   9.068  0.0911 -0.4120 -0.1373
   90loPI   GL1 1429   2.324   0.453   8.753  0.2663 -0.1035  0.1691
   90loPI   GL2 1430   2.607   0.620   8.639 -0.1034  0.0316 -0.2379
   90loPI   C1A 1431   2.203   0.366   8.343  0.3632 -0.0105  0.1011
   90loPI   C2A 1432   2.199   0.280   7.949  0.1149 -0.2659 -0.0361
   90loPI   C3A 1433   2.165   0.258   7.544 -0.0706 -0.3375  0.1126
   90loPI   C4A 1434   2.377   0.363   7.174  0.1603  0.1258  0.1231
   90loPI   C5A 1435   2.383   0.158   6.753  0.1308  0.2228 -0.3143
   90loPI   C6A 1436   2.200  -0.190   6.619 -0.1567 -0.1688  0.3126
   90loPI   C1B 1437   2.926   0.821   8.438 -0.2166 -0.5881  0.0903
   90loPI   C2B 1438   3.023   0.927   8.033 -0.3033  0.1141 -0.1376
   90loPI   C3B 1439   3.133   0.805   7.600 -0.3881 -0.2772 -0.1649
   90loPI   C4B 1440   2.971   1.087   7.206 -0.1914 -0.2402 -0.0871
   91loPI    C1 1441  12.295   7.185   9.019 -0.1949 -0.0918  0.0601
   91loPI    C2 1442  12.419   7.023   9.363 -0.1670  0.1109  0.1467
   91loPI    C3 1443  12.137   7.307   9.366 -0.0969  0.1824  0.0100
   91loPI   PO4 1444  12.242   7.025   8.859  0.3489 -0.0477  0.1205
   91loPI   GL1 1445  12.187   6.901   8.428  0.0161 -0.0327  0.0330
   91loPI   GL2 1446  12.362   6.600   8.580 -0.3477 -0.1297  0.1586
   91loPI   C1A 1447  12.221   6.684   7.930 -0.2557 -0.1973 -0.0233
   91loPI   C2A 1448  12.195   6.601   7.518 -0.1119 -0.0800 -0.1658
   91loPI   C3A 1449  12.063   6.450   7.195  0.1664  0.0692 -0.0302
   91loPI   C4A 1450  12.287   6.207   6.808 -0.0981  0.2008  0.1938
   91loPI   C5A 1451  12.252   6.391   6.400  0.3228 -0.2069 -0.1761
   91loPI   C6A 1452  12.007   6.515   6.182 -0.2047  0.4916  0.0935
   91loPI   C1B 1453  12.665   6.785   8.202  0.1086 -0.0499  0.0574
   91loPI   C2B 1454  12.664   6.759   7.835  0.1712 -0.1174  0.3992
   91loPI   C3B 1455  12.772   6.579   7.374  0.2631  0.0960  0.0902
   91loPI   C4B 1456  12.474   6.707   7.122 -0.0617 -0.1282 -0.2706
   92loPI    C1 1457   0.650   2.347   9.102  0.2381 -0.0306  0.1371
   92loPI    C2 1458   0.354   2.081   9.057  0.1968  0.0493 -0.0801
   92loPI    C3 1459   0.436   2.230   9.419 -0.1146  0.1244 -0.0378
   92loPI   PO4 1460   0.831   2.254   8.984  0.0326  0.1518 -0.1955
   92loPI   GL1 1461   0.824   1.950   8.704 -0.0560  0.0577 -0.1574
   92loPI   GL2 1462   0.872   1.602   8.614 -0.0463 -0.3021  0.1324
   92loPI   C1A 1463   0.886   2.273   8.363  0.1027 -0.0142 -0.1401
   92loPI   C2A 1464   0.984   2.243   7.921 -0.0778 -0.0496  0.2381
   92loPI   C3A 1465   0.880   2.314   7.565 -0.1007  0.2308 -0.0251
   92loPI   C4A 1466   0.827   2.471   7.243  0.1656  0.0001 -0.0383
   92loPI   C5A 1467   0.945   2.429   6.822 -0.2688 -0.0075  0.1663
   92loPI   C6A 1468   1.010   2.041   6.503 -0.1013 -0.1401  0.3286
   92loPI   C1B 1469   0.678   1.786   8.208  0.1522  0.1232  0.1339
   92loPI   C2B 1470   0.644   1.811   7.769  0.0720  0.1813  0.0770
   92loPI   C3B 1471   0.988   1.665   7.501 -0.3619  0.0406  0.2361
   92loPI   C4B 1472   1.331   1.701   7.336  0.2703  0.2079  0.2141
   93loPI    C1 1473  10.711  14.864   9.279 -0.0583 -0.0710 -0.1063
   93loPI    C2 1474  10.527  14.910   9.631 -0.0932  0.1296 -0.1496
   93loPI    C3 1475  10.641  15.231   9.421  0.0569  0.0095 -0.2541
   93loPI   PO4 1476  10.647  14.510   9.181  0.0735 -0.2713  0.2151
   93loPI   GL1 1477  10.590  14.472   8.699 -0.0390 -0.1582 -0.4445
   93loPI   GL2 1478  10.479  14.702   8.753  0.0187  0.0495 -0.0499
   93loPI   C1A 1479  10.793  14.469   8.405  0.0233 -0.0738  0.1642
   93loPI   C2A 1480  10.630  14.573   7.988  0.3671 -0.2180 -0.1262
   93loPI   C3A 1481  10.685  14.612   7.595 -0.0497  0.2773 -0.0875
   93loPI   C4A 1482  10.633  14.738   7.207 -0.0231 -0.1885 -0.0524
   93loPI   C5A 1483  10.856  14.910   6.894  0.0043  0.1112  0.4014
   93loPI   C6A 1484  10.705  15.331   6.695  0.3081 -0.1291  0.2547
   93loPI   C1B 1485  10.303  14.865   8.374  0.0431 -0.2337 -0.1650
   93loPI   C2B 1486  10.220  14.869   8.100 -0.1727 -0.1307  0.2997
   93loPI   C3B 1487  10.126  14.952   7.634 -0.2771  0.1467 -0.3337
   93loPI   C4B 1488  10.415  15.143   7.290  0.0201 -0.1718  0.3691
   94loPI    C1 1489  11.155  18.577   9.582 -0.1713 -0.2041 -0.1227
   94loPI    C2 1490  11.124  18.187   9.499 -0.0282 -0.3310  0.3841
   94loPI    C3 1491  11.316  18.306   9.829 -0.2085  0.1636  0.3183
   94loPI   PO4 1492  10.906  18.677   9.546  0.0225 -0.0842  0.1862
   94loPI   GL1 1493  10.881  18.738   9.102 -0.3702 -0.3324 -0.3398
   94loPI   GL2 1494  11.151  19.014   9.051  0.2848 -0.0185  0.0507
   94loPI   C1A 1495  10.925  18.794   8.656 -0.0471  0.1144 -0.3055
   94loPI   C2A 1496  10.857  18.698   8.200  0.1895  0.0378 -0.0049
   94loPI   C3A 1497  10.740  18.733   7.756 -0.0011  0.3151  0.2006
   94loPI   C4A 1498  10.657  18.757   7.363 -0.1418 -0.3053  0.0315
   94loPI   C5A 1499  10.780  18.963   6.993 -0.0931 -0.0830 -0.1603
   94loPI   C6A 1500  10.423  18.763   6.609 -0.0271 -0.1834 -0.2143
   94loPI   C1B 1501  11.334  19.115   8.693  0.4316 -0.1516 -0.1451
   94loPI   C2B 1502  11.340  18.823   8.293 -0.0671  0.0697 -0.1160
   94loPI   C3B 1503  11.364  18.881   7.883 -0.0539 -0.0764 -0.2646
   94loPI   C4B 1504  11.210  18.737   7.471  0.1871 -0.2177 -0.0564
   95loPI    C1 1505   9.119   0.742   9.546  0.0876 -0.0262 -0.1976
   95loPI    C2 1506   8.875   0.426   9.530  0.0180 -0.0038  0.2862
   95loPI    C3 1507   8.725   0.796   9.508  0.0817  0.0031 -0.0970
   95loPI   PO4 1508   9.255   0.626   9.247 -0.4361  0.1107 -0.1466
   95loPI   GL1 1509   9.298   0.815   8.790 -0.4374  0.1975 -0.1139
   95loPI   GL2 1510   9.412   0.575   8.790 -0.0231 -0.0121  0.0432
   95loPI   C1A 1511   9.109   1.147   8.581  0.2098 -0.1427 -0.1662
   95loPI   C2A 1512   8.843   1.452   8.327 -0.1912  0.2731 -0.0952
   95loPI   C3A 1513   8.639   1.503   7.957  0.2668  0.1199  0.0918
   95loPI   C4A 1514   8.343   1.480   7.625 -0.1151 -0.0104 -0.0724
   95loPI   C5A 1515   8.364   1.469   7.270  0.1763 -0.1027  0.1261
   95loPI   C6A 1516   8.592   1.553   6.846 -0.1372 -0.1382 -0.1780
   95loPI   C1B 1517   9.275   0.318   8.408  0.1204  0.2767  0.0470
   95loPI   C2B 1518   9.316   0.287   7.987 -0.0881  0.0469 -0.1019
   95loPI   C3B 1519   9.376   0.173   7.568  0.1540  0.1578 -0.1622
   95loPI   C4B 1520   9.340   0.191   7.138  0.1378 -0.1295 -0.1130
   96loPI    C1 1521  11.479  16.396   9.443 -0.0481 -0.2802 -0.0251
   96loPI    C2 1522  11.281  16.631   9.699 -0.0511  0.0200 -0.2967
   96loPI    C3 1523  11.263  16.233   9.737  0.1102  0.0597  0.2873
   96loPI   PO4 1524  11.404  16.508   9.192  0.4689  0.3341 -0.0265
   96loPI   GL1 1525  11.535  16.605   8.837  0.1520  0.0789  0.1018
   96loPI   GL2 1526  11.161  16.658   8.579 -0.2517 -0.1323 -0.4866
   96loPI   C1A 1527  11.593  16.368   8.474  0.3113  0.2800 -0.1603
   96loPI   C2A 1528  11.801  16.247   8.125 -0.2733 -0.0765  0.0169
   96loPI   C3A 1529  11.848  16.265   7.756  0.0378  0.1624  0.0283
   96loPI   C4A 1530  11.813  16.094   7.404  0.1676 -0.0001  0.3321
   96loPI   C5A 1531  11.840  15.752   7.225 -0.2175  0.1903  0.0580
   96loPI   C6A 1532  11.954  15.345   7.239 -0.0525  0.2792  0.2314
   96loPI   C1B 1533  10.952  16.515   8.193  0.0757  0.0874  0.0898
   96loPI   C2B 1534  10.806  16.297   7.940 -0.0957 -0.4405  0.0253
   96loPI   C3B 1535  10.669  15.916   7.721 -0.0980  0.2597 -0.1506
   96loPI   C4B 1536  10.606  15.600   7.334 -0.0201 -0.1330  0.0722
   97loPI    C1 1537  14.349   6.651   9.316  0.0447 -0.1826 -0.0725
   97loPI    C2 1538  14.031   6.656   9.558  0.1533 -0.1934  0.0726
   97loPI    C3 1539  14.375   6.821   9.677  0.2527 -0.3373 -0.0119
   97loPI   PO4 1540  14.185   6.700   9.092 -0.0649  0.0373 -0.1581
   97loPI   GL1 1541  14.059   6.545   8.684  0.1212 -0.0683 -0.0446
   97loPI   GL2 1542  14.277   6.447   8.561 -0.0746  0.2703  0.2692
   97loPI   C1A 1543  14.037   6.971   8.532 -0.1936  0.0887  0.1393
   97loPI   C2A 1544  14.315   7.067   8.180 -0.4043 -0.2231  0.2135
   97loPI   C3A 1545  14.107   7.035   7.807  0.1246 -0.0004  0.2574
   97loPI   C4A 1546  14.260   7.034   7.420 -0.1476  0.0257 -0.1539
   97loPI   C5A 1547  14.533   7.143   7.070  0.2803 -0.1122 -0.2125
   97loPI   C6A 1548  14.896   7.152   6.900  0.1769  0.2742  0.0055
   97loPI   C1B 1549  14.470   6.117   8.350  0.2330  0.1277  0.3682
   97loPI   C2B 1550  14.655   6.101   7.902  0.0301  0.0061 -0.0851
   97loPI   C3B 1551  14.599   6.056   7.359 -0.2316  0.0579  0.0650
   97loPI   C4B 1552  14.795   6.009   7.126 -0.0755 -0.0048 -0.1273
   98loPI    C1 1553  14.270   5.858   9.041  0.1067  0.3106 -0.1819
   98loPI    C2 1554  14.346   6.091   9.357 -0.2864  0.2984 -0.0732
   98loPI    C3 1555  14.435   6.218   8.989  0.1424  0.3267  0.0359
   98loPI   PO4 1556  14.026   5.768   9.042  0.2539  0.1042 -0.0461
   98loPI   GL1 1557  13.649   5.864   8.710  0.1485  0.1007 -0.1346
   98loPI   GL2 1558  13.970   6.032   8.598  0.0857  0.2675  0.0826
   98loPI   C1A 1559  13.585   5.790   8.232  0.0638  0.0307  0.4362
   98loPI   C2A 1560  13.791   5.809   7.767 -0.2678  0.3315 -0.4624
   98loPI   C3A 1561  14.021   5.692   7.296  0.0857 -0.0525 -0.0460
   98loPI   C4A 1562  14.364   5.788   7.017  0.0303  0.2906 -0.0383
   98loPI   C5A 1563  14.630   5.664   6.676  0.0784  0.2196  0.0521
   98loPI   C6A 1564  14.934   5.531   6.503 -0.2062 -0.1623 -0.0340
   98loPI   C1B 1565  14.027   6.100   8.157  0.1357  0.0601  0.1749
   98loPI   C2B 1566  14.197   6.126   7.698  0.0770 -0.3074 -0.1122
   98loPI   C3B 1567  14.297   6.507   7.533 -0.2387  0.2137  0.0230
   98loPI   C4B 1568  14.432   6.663   7.047 -0.0457  0.1220  0.1396
   99loPI    C1 1569  12.016  17.119   9.543  0.0371 -0.0390 -0.1648
   99loPI    C2 1570  12.408  17.058   9.595  0.0216 -0.0452 -0.0529
   99loPI    C3 1571  12.167  17.093   9.912 -0.1041 -0.2687 -0.1217
   99loPI   PO4 1572  12.027  17.202   9.311  0.0851  0.1323 -0.2262
   99loPI   GL1 1573  11.991  17.545   9.062  0.1808  0.1214  0.1722
   99loPI   GL2 1574  11.853  17.782   9.016 -0.1508  0.1918 -0.1402
   99loPI   C1A 1575  11.990  17.212   8.661  0.0613  0.0944 -0.0171
   99loPI   C2A 1576  11.557  17.002   8.475 -0.3022 -0.1458  0.0557
   99loPI   C3A 1577  11.584  16.721   8.133  0.0005 -0.3526  0.2896
   99loPI   C4A 1578  11.355  16.381   7.911  0.0164  0.4382 -0.0254
   99loPI   C5A 1579  11.181  16.059   8.175 -0.0562  0.0588  0.2115
   99loPI   C6A 1580  10.820  15.665   8.198 -0.0986 -0.1079 -0.2575
   99loPI   C1B 1581  11.794  17.717   8.577  0.0248 -0.2071  0.0775
   99loPI   C2B 1582  11.374  17.526   8.318 -0.0930  0.0666  0.1801
   99loPI   C3B 1583  11.260  17.202   8.098  0.1466  0.0586  0.1014
   99loPI   C4B 1584  11.168  16.815   7.839  0.1592  0.1510 -0.3257
  100loPI    C1 1585   2.002  13.409   9.401 -0.3355 -0.0446  0.2878
  100loPI    C2 1586   2.279  13.516   9.669 -0.1156  0.0981  0.0082
  100loPI    C3 1587   1.891  13.542   9.761 -0.0421  0.1133  0.3228
  100loPI   PO4 1588   2.088  13.143   9.354 -0.2695  0.2514  0.3376
  100loPI   GL1 1589   2.203  12.954   8.937  0.1354 -0.0463 -0.2386
  100loPI   GL2 1590   2.291  12.728   8.691  0.1122 -0.0340  0.1844
  100loPI   C1A 1591   1.970  13.124   8.632 -0.0943  0.2357  0.2155
  100loPI   C2A 1592   1.729  12.927   8.321  0.0088 -0.0510 -0.1982
  100loPI   C3A 1593   1.798  12.619   7.891 -0.0586  0.2908 -0.1410
  100loPI   C4A 1594   1.716  12.686   7.439 -0.2732  0.3406 -0.1405
  100loPI   C5A 1595   2.013  12.713   7.033  0.0736  0.3285 -0.1311
  100loPI   C6A 1596   2.422  12.777   6.778 -0.3594 -0.0448 -0.0430
  100loPI   C1B 1597   2.181  12.708   8.325  0.3520 -0.1005 -0.0557
  100loPI   C2B 1598   2.226  12.414   8.019 -0.1653 -0.0466 -0.0305
  100loPI   C3B 1599   2.002  12.262   7.601  0.2770 -0.1432  0.1385
  100loPI   C4B 1600   2.188  12.287   7.161  0.2694  0.1021 -0.0503
  101loPI    C1 1601   2.655  13.751  10.070  0.0409 -0.0198  0.1086
  101loPI    C2 1602   2.277  13.877  10.039  0.0418 -0.0644 -0.0912
  101loPI    C3 1603   2.520  14.041  10.311 -0.1808 -0.1837  0.1847
  101loPI   PO4 1604   2.717  13.762   9.890  0.0140  0.3313  0.0940
  101loPI   GL1 1605   2.696  13.603   9.412  0.1544 -0.0497 -0.1906
  101loPI   GL2 1606   2.369  13.682   9.217  0.0414  0.0271  0.0698
  101loPI   C1A 1607   2.822  13.870   9.011 -0.1510 -0.1010  0.1201
  101loPI   C2A 1608   2.817  13.650   8.662  0.3011  0.3435 -0.0467
  101loPI   C3A 1609   2.804  13.553   8.220 -0.5498  0.0567 -0.4307
  101loPI   C4A 1610   2.919  13.440   7.804 -0.0925  0.2137 -0.0762
  101loPI   C5A 1611   2.831  13.382   7.388  0.0012 -0.1437  0.1687
  101loPI   C6A 1612   2.675  13.134   7.008 -0.0089  0.1540 -0.0032
  101loPI   C1B 1613   2.314  13.455   8.821 -0.1223  0.1138  0.1447
  101loPI   C2B 1614   2.385  13.190   8.371  0.1285  0.1553 -0.1349
  101loPI   C3B 1615   2.527  13.049   7.933  0.2760  0.2681  0.0970
  101loPI   C4B 1616   2.290  12.760   7.632 -0.1488  0.1806  0.5061
  102loPI    C1 1617   3.484  18.569   9.733  0.3550  0.1335  0.1308
  102loPI    C2 1618   3.397  18.623  10.119  0.2831  0.1569  0.1114
  102loPI    C3 1619   3.609  18.899   9.922  0.2501  0.1836  0.1131
  102loPI   PO4 1620   3.244  18.500   9.585 -0.2018  0.2517 -0.0975
  102loPI   GL1 1621   3.208  18.341   9.217 -0.2319  0.0333  0.0001
  102loPI   GL2 1622   2.989  18.297   9.060 -0.2853  0.2133  0.0924
  102loPI   C1A 1623   3.403  18.370   8.785  0.5357  0.3339 -0.3111
  102loPI   C2A 1624   3.405  18.561   8.449  0.0315 -0.2534  0.0017
  102loPI   C3A 1625   3.543  18.675   8.062  0.3572 -0.3986  0.3920
  102loPI   C4A 1626   3.574  18.689   7.609  0.2490 -0.0129 -0.0555
  102loPI   C5A 1627   3.565  18.506   7.174  0.0655 -0.3159 -0.1984
  102loPI   C6A 1628   3.339  18.528   6.838  0.0140  0.0042  0.1603
  102loPI   C1B 1629   2.920  18.428   8.712  0.2532  0.0595 -0.0457
  102loPI   C2B 1630   2.869  18.524   8.358  0.3131  0.0089 -0.0012
  102loPI   C3B 1631   3.093  18.423   7.944  0.1195 -0.0642  0.0256
  102loPI   C4B 1632   3.168  18.431   7.505 -0.2214 -0.0440 -0.1676
  103loPI    C1 1633   3.835  15.813   9.878 -0.1608  0.2515  0.0937
  103loPI    C2 1634   4.108  16.104   9.849  0.0963 -0.0081 -0.1514
  103loPI    C3 1635   4.154  15.812  10.119 -0.0973  0.1084  0.0104
  103loPI   PO4 1636   3.686  15.957   9.630  0.3237 -0.2244  0.1137
  103loPI   GL1 1637   3.663  15.812   9.256  0.0886 -0.0921  0.0760
  103loPI   GL2 1638   3.531  16.208   9.227 -0.3211  0.3969  0.0607
  103loPI   C1A 1639   3.525  15.684   8.901  0.1423 -0.2071 -0.1462
  103loPI   C2A 1640   3.318  15.619   8.407 -0.1350  0.3307 -0.0791
  103loPI   C3A 1641   3.168  15.483   7.966  0.3118  0.1537 -0.0726
  103loPI   C4A 1642   2.956  15.266   7.653 -0.0833 -0.4830  0.0458
  103loPI   C5A 1643   2.696  15.246   7.258 -0.1339 -0.2091 -0.0107
  103loPI   C6A 1644   2.520  15.511   6.986 -0.2617 -0.0340 -0.2378
  103loPI   C1B 1645   3.650  16.166   8.781 -0.1674  0.4245 -0.1985
  103loPI   C2B 1646   3.575  16.043   8.347  0.0334  0.0222  0.1174
  103loPI   C3B 1647   3.567  15.789   7.987  0.3180  0.2722  0.0231
  103loPI   C4B 1648   3.517  15.555   7.591 -0.1980  0.0822  0.2599
  104loPI    C1 1649  15.121  16.739   9.974 -0.0024 -0.1151 -0.0140
  104loPI    C2 1650  15.512  16.688   9.906  0.0055  0.0174 -0.0699
  104loPI    C3 1651  15.389  16.904  10.220 -0.0204  0.0954 -0.1333
  104loPI   PO4 1652  15.037  16.724   9.681  0.3605  0.0617 -0.0306
  104loPI   GL1 1653  14.823  16.623   9.377  0.0776  0.0540 -0.2279
  104loPI   GL2 1654  14.501  16.595   9.271  0.3578 -0.1166 -0.3701
  104loPI   C1A 1655  15.091  16.610   8.956  0.4422 -0.1656 -0.0260
  104loPI   C2A 1656  15.082  16.702   8.661  0.3706  0.0328 -0.1150
  104loPI   C3A 1657  14.936  16.661   8.298  0.3171  0.2968  0.0866
  104loPI   C4A 1658  14.881  16.685   7.886 -0.2633  0.1626 -0.0858
  104loPI   C5A 1659  15.140  16.852   7.581  0.0460 -0.0171  0.2074
  104loPI   C6A 1660  15.119  17.052   7.210 -0.1104 -0.4272  0.2910
  104loPI   C1B 1661  14.573  16.573   8.949  0.1529  0.3829 -0.0009
  104loPI   C2B 1662  14.758  16.280   8.544 -0.0261 -0.0190 -0.3015
  104loPI   C3B 1663  14.804  16.167   8.163 -0.0204 -0.2118  0.3491
  104loPI   C4B 1664  14.798  16.190   7.760  0.1208  0.2103 -0.3381
  105loPI    C1 1665  18.090  18.603   9.703 -0.1535  0.0386 -0.2180
  105loPI    C2 1666  18.064  18.317   9.424 -0.0565 -0.0439 -0.1436
  105loPI    C3 1667  17.884  18.269   9.778  0.1427 -0.1100 -0.0502
  105loPI   PO4 1668  18.110  18.825   9.492  0.0381  0.0582  0.0503
  105loPI   GL1 1669  18.137  18.643   9.057 -0.0444  0.2666 -0.0534
  105loPI   GL2 1670  18.246  18.373   8.930  0.0744 -0.3771 -0.0568
  105loPI   C1A 1671  18.309  18.766   8.578 -0.2597  0.1506  0.2312
  105loPI   C2A 1672  18.272  18.686   8.229  0.0413 -0.5353  0.0683
  105loPI   C3A 1673  18.248  18.936   7.939 -0.2592 -0.0083 -0.2044
  105loPI   C4A 1674  18.026  18.962   7.511 -0.2239 -0.0900  0.0266
  105loPI   C5A 1675  17.622  19.097   7.387 -0.2830 -0.0397 -0.1182
  105loPI   C6A 1676  17.381  19.062   7.090  0.3099 -0.1794  0.3359
  105loPI   C1B 1677  18.311  18.267   8.600 -0.0254 -0.1989 -0.2025
  105loPI   C2B 1678  18.426  18.214   8.158 -0.1612 -0.1443  0.2382
  105loPI   C3B 1679  18.456  18.353   7.785  0.1993  0.0754 -0.0426
  105loPI   C4B 1680  18.277  18.506   7.373  0.3537  0.1769 -0.1047
  106loPI    C1 1681  17.519  11.761   9.404  0.0418 -0.0560  0.1053
  106loPI    C2 1682  17.357  11.434   9.568 -0.2207  0.1609  0.2883
  106loPI    C3 1683  17.739  11.526   9.641 -0.1089 -0.1682  0.1357
  106loPI   PO4 1684  17.440  11.725   9.152 -0.5336  0.0815 -0.3823
  106loPI   GL1 1685  17.712  11.883   8.818  0.1576 -0.1546  0.0375
  106loPI   GL2 1686  17.915  11.770   8.721  0.1381 -0.2250  0.0289
  106loPI   C1A 1687  17.698  12.273   8.535  0.1905 -0.1200  0.3229
  106loPI   C2A 1688  17.797  12.539   8.127  0.1672  0.2416  0.2561
  106loPI   C3A 1689  17.793  12.660   7.670 -0.1721  0.0372 -0.1056
  106loPI   C4A 1690  17.760  12.720   7.216  0.0138  0.1626 -0.2285
  106loPI   C5A 1691  17.742  12.980   6.896  0.2363 -0.0966  0.1119
  106loPI   C6A 1692  17.796  13.474   6.965 -0.0468  0.2215 -0.2125
  106loPI   C1B 1693  18.035  11.555   8.359 -0.1709  0.1191 -0.1809
  106loPI   C2B 1694  18.250  11.457   8.064 -0.0790  0.1624  0.2567
  106loPI   C3B 1695  18.376  11.837   7.862  0.1179 -0.3007  0.0773
  106loPI   C4B 1696  18.423  11.868   7.392 -0.1500 -0.0430  0.0125
  107loPI    C1 1697  15.587   9.663   9.305 -0.1328 -0.0216 -0.0332
  107loPI    C2 1698  15.960   9.795   9.361 -0.1289  0.0013 -0.1114
  107loPI    C3 1699  15.762   9.620   9.662 -0.0311 -0.0719 -0.0891
  107loPI   PO4 1700  15.610   9.504   9.137  0.1257  0.0379 -0.1343
  107loPI   GL1 1701  15.524   9.392   8.734  0.3224  0.1167 -0.2877
  107loPI   GL2 1702  15.795   9.270   8.766 -0.3673  0.0167  0.2734
  107loPI   C1A 1703  15.599   9.723   8.501  0.1678 -0.0461  0.1184
  107loPI   C2A 1704  15.669   9.876   8.082  0.0351  0.1483  0.0676
  107loPI   C3A 1705  15.618   9.874   7.652 -0.0276 -0.0954 -0.1050
  107loPI   C4A 1706  15.945   9.857   7.376  0.0790  0.1222  0.2112
  107loPI   C5A 1707  15.979   9.851   6.949 -0.3736  0.3040  0.0752
  107loPI   C6A 1708  15.984   9.543   6.615 -0.1394 -0.1556 -0.2865
  107loPI   C1B 1709  15.790   9.260   8.240 -0.0524  0.1920 -0.1678
  107loPI   C2B 1710  15.784   9.381   7.810 -0.0516 -0.0218 -0.1958
  107loPI   C3B 1711  15.673   9.464   7.355 -0.1423  0.0386 -0.0067
  107loPI   C4B 1712  15.471   9.583   6.986  0.1974  0.0965  0.0218
  108loPI    C1 1713   6.552  10.915  10.321  0.0289 -0.1544 -0.2369
  108loPI    C2 1714   6.453  10.553  10.458 -0.0830  0.0065  0.1201
  108loPI    C3 1715   6.807  10.713  10.554  0.0235 -0.0614 -0.1496
  108loPI   PO4 1716   6.452  10.826  10.006  0.0212  0.0217  0.2556
  108loPI   GL1 1717   6.325  10.801   9.494 -0.2238 -0.0552  0.0650
  108loPI   GL2 1718   6.627  10.992   9.253  0.0928  0.2049 -0.1641
  108loPI   C1A 1719   6.156  10.792   9.046  0.1619  0.0834 -0.1024
  108loPI   C2A 1720   6.100  10.823   8.606  0.0886  0.0577 -0.1505
  108loPI   C3A 1721   6.053  10.950   8.226  0.1873 -0.2302  0.1393
  108loPI   C4A 1722   5.948  10.912   7.749 -0.2173  0.0259 -0.1424
  108loPI   C5A 1723   5.952  11.112   7.420  0.1681 -0.4155  0.0174
  108loPI   C6A 1724   5.855  11.400   7.116  0.2386  0.2094  0.0686
  108loPI   C1B 1725   6.592  10.885   8.802 -0.0141  0.0948  0.1089
  108loPI   C2B 1726   6.531  10.827   8.345  0.0974  0.0396 -0.0579
  108loPI   C3B 1727   6.386  10.805   7.854 -0.0119  0.3218 -0.1212
  108loPI   C4B 1728   6.204  10.566   7.525 -0.0469 -0.0760  0.2116
  109loPI    C1 1729   7.342   6.544   9.387 -0.0042  0.0985  0.2571
  109loPI    C2 1730   7.734   6.592   9.451  0.0485  0.0338 -0.0041
  109loPI    C3 1731   7.470   6.831   9.634  0.2038  0.0166  0.2465
  109loPI   PO4 1732   7.362   6.556   9.134 -0.0192  0.2116 -0.1766
  109loPI   GL1 1733   7.269   6.502   8.676 -0.0913  0.2569 -0.0899
  109loPI   GL2 1734   6.970   6.308   8.692  0.3744 -0.0265 -0.1687
  109loPI   C1A 1735   7.305   6.299   8.300  0.0303  0.0447  0.0119
  109loPI   C2A 1736   7.210   6.309   7.897  0.0225  0.0601  0.0138
  109loPI   C3A 1737   7.035   6.154   7.544  0.1371  0.0626  0.0016
  109loPI   C4A 1738   6.881   6.094   7.173 -0.0746 -0.4126  0.0570
  109loPI   C5A 1739   6.550   6.302   7.004 -0.1613  0.1305  0.2921
  109loPI   C6A 1740   6.370   6.831   7.054 -0.1023 -0.1948 -0.0627
  109loPI   C1B 1741   6.519   6.192   8.674  0.1139 -0.0898  0.1724
  109loPI   C2B 1742   6.308   6.217   8.324  0.1183 -0.1487 -0.0303
  109loPI   C3B 1743   6.245   6.371   7.940  0.0160  0.2686  0.3295
  109loPI   C4B 1744   6.298   6.676   7.645 -0.0517 -0.0598 -0.0990
  110loPI    C1 1745   6.817  16.815   9.558 -0.0874 -0.0024  0.0120
  110loPI    C2 1746   7.044  16.602   9.808  0.0899  0.0422 -0.1091
  110loPI    C3 1747   6.994  16.994   9.869  0.0630  0.0366 -0.0948
  110loPI   PO4 1748   6.844  16.698   9.337  0.3453  0.0149  0.1329
  110loPI   GL1 1749   7.073  16.740   8.981  0.2810  0.2367  0.1797
  110loPI   GL2 1750   7.342  16.656   8.976  0.1915  0.0588 -0.0872
  110loPI   C1A 1751   6.730  16.979   8.782 -0.0398 -0.3625  0.0901
  110loPI   C2A 1752   6.344  16.911   8.588  0.0474 -0.0185 -0.2206
  110loPI   C3A 1753   6.217  17.002   8.140 -0.0071 -0.0735  0.3084
  110loPI   C4A 1754   6.221  16.988   7.633  0.0869 -0.1724  0.0125
  110loPI   C5A 1755   6.468  16.987   7.363  0.0823  0.1724  0.3508
  110loPI   C6A 1756   6.535  16.994   6.883  0.0602  0.0905 -0.0762
  110loPI   C1B 1757   7.237  16.329   8.766  0.1434  0.4917 -0.0516
  110loPI   C2B 1758   6.982  16.131   8.401  0.2256  0.1185  0.1529
  110loPI   C3B 1759   6.807  16.132   8.013 -0.0578  0.2470 -0.0002
  110loPI   C4B 1760   6.440  16.071   7.699  0.0715 -0.0071  0.1107
  111loPI    C1 1761   5.472   9.870  10.303  0.1267  0.1191 -0.1305
  111loPI    C2 1762   5.613  10.218  10.440 -0.0635  0.1246  0.0563
  111loPI    C3 1763   5.421   9.969  10.687 -0.2038  0.0275 -0.1477
  111loPI   PO4 1764   5.707   9.812  10.115 -0.1369 -0.3585 -0.5079
  111loPI   GL1 1765   5.970  10.023   9.659  0.1756 -0.2331  0.1535
  111loPI   GL2 1766   6.183  10.306   9.715  0.1366 -0.0841  0.2672
  111loPI   C1A 1767   5.665  10.173   9.384  0.0846 -0.1512  0.0205
  111loPI   C2A 1768   5.417  10.193   9.038 -0.2634  0.4612  0.1023
  111loPI   C3A 1769   5.514  10.075   8.650  0.0705 -0.1306  0.0943
  111loPI   C4A 1770   5.608  10.081   8.211  0.0517  0.0530 -0.1696
  111loPI   C5A 1771   5.831   9.937   7.827 -0.0401  0.1975 -0.1942
  111loPI   C6A 1772   5.906  10.008   7.378 -0.1739  0.0897  0.0652
  111loPI   C1B 1773   6.101  10.329   9.245 -0.1893  0.0533 -0.1207
  111loPI   C2B 1774   6.011  10.337   8.848 -0.0465  0.0760 -0.3446
  111loPI   C3B 1775   5.991  10.320   8.475 -0.2357 -0.1213  0.0464
  111loPI   C4B 1776   6.032  10.461   8.056  0.0613  0.0654 -0.2304
  112loPI    C1 1777   5.367   1.757   9.988  0.0345  0.2584  0.1602
  112loPI    C2 1778   5.064   1.725  10.248  0.0320  0.0172  0.1295
  112loPI    C3 1779   5.321   1.422  10.201  0.0325  0.0583 -0.1495
  112loPI   PO4 1780   5.231   1.750   9.738  0.2139  0.0446  0.1209
  112loPI   GL1 1781   4.994   1.735   9.296 -0.2150  0.0132 -0.0557
  112loPI   GL2 1782   5.179   1.475   9.290  0.0386  0.1859  0.0024
  112loPI   C1A 1783   4.977   1.865   8.824  0.2059  0.1104 -0.2419
  112loPI   C2A 1784   4.628   1.923   8.534 -0.1342  0.3366 -0.2157
  112loPI   C3A 1785   4.496   2.060   8.157 -0.1554 -0.0210  0.0567
  112loPI   C4A 1786   4.414   2.150   7.767 -0.0596  0.0165 -0.1674
  112loPI   C5A 1787   4.622   2.250   7.454  0.1574 -0.1478  0.0232
  112loPI   C6A 1788   4.686   2.533   7.014 -0.4598 -0.0147 -0.0232
  112loPI   C1B 1789   5.303   1.390   8.919 -0.1711 -0.3250 -0.0297
  112loPI   C2B 1790   5.279   1.598   8.485  0.4238  0.2250  0.2269
  112loPI   C3B 1791   5.297   1.666   8.128  0.1388  0.0858 -0.1737
  112loPI   C4B 1792   5.426   1.611   7.788 -0.4001  0.2924  0.1226
  113loPI    C1 1793   0.361  14.883   9.733  0.0748  0.1352  0.0599
  113loPI    C2 1794   0.074  15.152   9.661  0.0439  0.1409  0.2027
  113loPI    C3 1795   0.426  15.270   9.811  0.1227  0.1343  0.0255
  113loPI   PO4 1796   0.345  14.657   9.578 -0.0611  0.0225  0.0729
  113loPI   GL1 1797   0.536  14.462   9.233  0.0208 -0.1857  0.3232
  113loPI   GL2 1798   0.199  14.401   9.027 -0.1566 -0.0393 -0.1752
  113loPI   C1A 1799   0.466  14.782   8.926 -0.0030 -0.1324 -0.2997
  113loPI   C2A 1800   0.669  14.987   8.576 -0.1989  0.3426  0.3756
  113loPI   C3A 1801   0.841  14.994   8.217 -0.1213 -0.2240 -0.1731
  113loPI   C4A 1802   0.845  15.005   7.792 -0.1542 -0.0077 -0.1859
  113loPI   C5A 1803   0.910  15.270   7.411 -0.1925  0.0219 -0.0048
  113loPI   C6A 1804   0.687  15.638   7.247 -0.3166 -0.0208  0.2686
  113loPI   C1B 1805  -0.148  14.214   8.814 -0.1644  0.1897  0.2116
  113loPI   C2B 1806  -0.007  14.124   8.434 -0.0750 -0.2361 -0.0586
  113loPI   C3B 1807   0.226  14.267   8.227  0.1907  0.0477  0.2105
  113loPI   C4B 1808   0.462  14.169   7.866  0.1987  0.0189 -0.4202
  114loPI    C1 1809   3.289   1.836   9.252 -0.0335 -0.0218  0.0297
  114loPI    C2 1810   3.354   1.671   9.610 -0.1499  0.1042  0.1100
  114loPI    C3 1811   3.019   1.879   9.544  0.0003  0.3197  0.0156
  114loPI   PO4 1812   3.552   1.936   9.198  0.0613 -0.1189  0.0100
  114loPI   GL1 1813   3.696   1.875   8.792  0.0781  0.0522 -0.4143
  114loPI   GL2 1814   3.649   2.174   8.734  0.0538  0.2503 -0.0319
  114loPI   C1A 1815   3.418   1.683   8.503  0.1654 -0.2179  0.1980
  114loPI   C2A 1816   3.210   1.772   8.142 -0.0990 -0.3886 -0.0885
  114loPI   C3A 1817   3.318   2.009   7.676  0.1396 -0.1532 -0.2578
  114loPI   C4A 1818   3.498   2.203   7.308  0.3660  0.0554 -0.1490
  114loPI   C5A 1819   3.265   2.313   7.009 -0.1754 -0.2503 -0.1912
  114loPI   C6A 1820   2.992   2.294   6.559 -0.6616  0.1879 -0.3220
  114loPI   C1B 1821   3.881   2.407   8.403  0.2084  0.0208  0.1707
  114loPI   C2B 1822   3.966   2.649   8.057  0.1496  0.1077 -0.2043
  114loPI   C3B 1823   4.224   2.636   7.675  0.0813 -0.2387 -0.3200
  114loPI   C4B 1824   4.176   2.691   7.253  0.2600 -0.1121 -0.3548
  115loPI    C1 1825   7.044  15.384   9.858 -0.1369  0.0018 -0.2919
  115loPI    C2 1826   6.808  15.626  10.072 -0.2395 -0.3050 -0.0517
  115loPI    C3 1827   7.190  15.724  10.008 -0.3152 -0.0163 -0.0720
  115loPI   PO4 1828   7.001  15.424   9.560 -0.0133 -0.0666  0.2645
  115loPI   GL1 1829   6.801  15.454   9.118  0.0127  0.1643 -0.2317
  115loPI   GL2 1830   7.131  15.299   8.990  0.2747  0.0190  0.2521
  115loPI   C1A 1831   6.722  15.250   8.686  0.1827 -0.0958 -0.1035
  115loPI   C2A 1832   6.909  15.181   8.381 -0.0919  0.0774 -0.2347
  115loPI   C3A 1833   6.805  15.087   8.040 -0.1486  0.1491  0.2850
  115loPI   C4A 1834   6.997  14.844   7.739  0.0633 -0.3004 -0.0947
  115loPI   C5A 1835   6.931  14.613   7.473  0.0572 -0.0057  0.0404
  115loPI   C6A 1836   6.890  14.254   7.214 -0.2558 -0.0093 -0.0124
  115loPI   C1B 1837   7.027  15.646   8.667  0.1188 -0.0719 -0.0170
  115loPI   C2B 1838   6.792  15.670   8.258 -0.0242 -0.1636 -0.1207
  115loPI   C3B 1839   6.739  15.592   7.840 -0.2170 -0.0222  0.2725
  115loPI   C4B 1840   6.652  15.260   7.574 -0.1615  0.2621 -0.3931
  116loPI    C1 1841   4.827  19.529   9.763  0.0390  0.1333 -0.0747
  116loPI    C2 1842   5.027  19.231   9.586 -0.2534  0.1045 -0.3682
  116loPI    C3 1843   4.688  19.154   9.782  0.0535  0.1402  0.1982
  116loPI   PO4 1844   4.682  19.683   9.527  0.0666  0.0046 -0.2799
  116loPI   GL1 1845   4.923  19.768   9.113 -0.0754  0.2964  0.0744
  116loPI   GL2 1846   4.889  19.393   9.115  0.3348  0.2779 -0.0655
  116loPI   C1A 1847   4.594  19.768   8.771 -0.0509 -0.1564  0.0137
  116loPI   C2A 1848   4.503  19.688   8.331  0.3345 -0.0926 -0.2672
  116loPI   C3A 1849   4.311  19.778   7.968 -0.1423 -0.3836 -0.0701
  116loPI   C4A 1850   4.385  19.858   7.520 -0.0410  0.2123  0.1816
  116loPI   C5A 1851   4.174  19.882   7.150  0.0855 -0.1685  0.1186
  116loPI   C6A 1852   3.888  19.796   6.740  0.2698  0.0068  0.0843
  116loPI   C1B 1853   4.534  19.211   8.845 -0.1535  0.3057 -0.1684
  116loPI   C2B 1854   4.470  19.218   8.430 -0.1700 -0.0045 -0.4596
  116loPI   C3B 1855   4.471  19.266   8.022  0.1216 -0.3783  0.0070
  116loPI   C4B 1856   4.481  19.301   7.620 -0.2233 -0.3261  0.1942
  117loPI    C1 1857  18.876   8.476   9.509  0.1177 -0.0339  0.0679
  117loPI    C2 1858  18.577   8.605   9.740  0.0652  0.0637 -0.0530
  117loPI    C3 1859  18.897   8.431   9.906  0.0344  0.1442  0.0933
  117loPI   PO4 1860  18.698   8.420   9.307  0.1436 -0.0459 -0.0434
  117loPI   GL1 1861  18.410   8.525   9.071  0.0261  0.1838  0.0970
  117loPI   GL2 1862  18.632   8.735   8.825  0.0150  0.2477 -0.0700
  117loPI   C1A 1863  18.297   8.526   8.594 -0.0470 -0.0305  0.0872
  117loPI   C2A 1864  18.242   8.433   8.146  0.2495  0.1285 -0.1245
  117loPI   C3A 1865  18.193   8.380   7.737 -0.0980  0.0094 -0.0791
  117loPI   C4A 1866  18.329   8.184   7.350  0.3842  0.3006  0.1287
  117loPI   C5A 1867  17.935   8.175   7.031  0.3100 -0.1823  0.0125
  117loPI   C6A 1868  17.685   8.557   6.774  0.1289 -0.3011 -0.0009
  117loPI   C1B 1869  18.649   9.079   8.624 -0.3066  0.2115  0.0648
  117loPI   C2B 1870  18.420   9.397   8.401  0.1433  0.2334 -0.0185
  117loPI   C3B 1871  18.605   9.556   7.922  0.0450  0.1586 -0.0648
  117loPI   C4B 1872  18.826   9.887   7.740 -0.2116  0.0378  0.2196
  118loPI    C1 1873   9.529   8.640   9.151  0.1708 -0.1378  0.0817
  118loPI    C2 1874   9.412   8.353   8.898  0.1930  0.0839 -0.1848
  118loPI    C3 1875   9.802   8.423   8.955  0.2048 -0.3470  0.3538
  118loPI   PO4 1876   9.374   8.695   9.320 -0.1282 -0.1255  0.4868
  118loPI   GL1 1877   9.034   8.763   8.958  0.1355  0.0169 -0.0481
  118loPI   GL2 1878   9.207   8.893   8.852  0.1414 -0.1431 -0.1595
  118loPI   C1A 1879   8.743   8.802   8.648  0.3479  0.2350  0.1919
  118loPI   C2A 1880   8.785   8.791   8.167  0.1983 -0.5483  0.0684
  118loPI   C3A 1881   8.816   8.768   7.752 -0.0250 -0.1332 -0.0281
  118loPI   C4A 1882   8.783   8.589   7.314 -0.3110  0.0085 -0.0321
  118loPI   C5A 1883   8.887   8.700   6.874  0.0870  0.0644 -0.2239
  118loPI   C6A 1884   8.846   8.863   6.494  0.0315  0.0039 -0.1474
  118loPI   C1B 1885   9.095   9.073   8.429 -0.1472 -0.0615 -0.1940
  118loPI   C2B 1886   9.068   9.134   7.970  0.4502  0.0709 -0.4133
  118loPI   C3B 1887   9.052   9.247   7.648  0.1505  0.1052  0.0540
  118loPI   C4B 1888   9.146   9.134   7.159  0.1002  0.3109  0.1360
  119loPI    C1 1889  16.951  10.552   9.456 -0.0528  0.0997  0.0513
  119loPI    C2 1890  16.656  10.370   9.655  0.0493 -0.1542 -0.0254
  119loPI    C3 1891  16.927  10.586   9.854  0.0518 -0.2648  0.0930
  119loPI   PO4 1892  16.900  10.514   9.251  0.1886  0.2787  0.0346
  119loPI   GL1 1893  16.899  10.597   8.914 -0.4035  0.1151 -0.2692
  119loPI   GL2 1894  17.107  10.804   8.823  0.1883 -0.0898  0.1073
  119loPI   C1A 1895  16.863  10.818   8.320 -0.1689 -0.5602 -0.4274
  119loPI   C2A 1896  17.005  10.938   7.905  0.3100 -0.2216  0.0214
  119loPI   C3A 1897  17.173  11.221   7.769  0.0482 -0.2815 -0.1638
  119loPI   C4A 1898  17.409  11.249   7.417  0.0118  0.0007  0.0499
  119loPI   C5A 1899  17.627  11.442   7.057 -0.1962 -0.3528 -0.1732
  119loPI   C6A 1900  17.613  11.739   6.689 -0.2969  0.0894 -0.0190
  119loPI   C1B 1901  17.380  10.799   8.410  0.1466  0.0707 -0.1213
  119loPI   C2B 1902  17.525  10.958   8.025  0.2992 -0.0642  0.1904
  119loPI   C3B 1903  17.652  10.892   7.636  0.0944 -0.0335  0.1520
  119loPI   C4B 1904  18.022  10.719   7.509 -0.0711 -0.3219 -0.1233
  120loPI    C1 1905  17.788  15.271   9.623 -0.2901 -0.0649 -0.2972
  120loPI    C2 1906  17.503  15.525   9.741 -0.0501  0.0776 -0.0105
  120loPI    C3 1907  17.859  15.665   9.624  0.0349 -0.1190  0.0105
  120loPI   PO4 1908  17.662  15.089   9.473 -0.0976  0.2062 -0.0388
  120loPI   GL1 1909  17.652  15.241   9.093 -0.3159 -0.2989 -0.0179
  120loPI   GL2 1910  17.639  15.551   9.072 -0.4501  0.1731 -0.5817
  120loPI   C1A 1911  17.386  15.264   8.766  0.0512 -0.1642 -0.0643
  120loPI   C2A 1912  17.336  15.433   8.332  0.1660  0.1219  0.0568
  120loPI   C3A 1913  17.461  15.671   7.988 -0.2295  0.0896 -0.2111
  120loPI   C4A 1914  17.886  15.500   7.761  0.1375  0.0602 -0.0731
  120loPI   C5A 1915  18.079  15.367   7.386 -0.0479 -0.6282 -0.1271
  120loPI   C6A 1916  17.938  15.438   7.008 -0.2886  0.3517 -0.0539
  120loPI   C1B 1917  17.824  15.563   8.701 -0.3019 -0.1515  0.0345
  120loPI   C2B 1918  18.078  15.570   8.358  0.0482  0.1923  0.4224
  120loPI   C3B 1919  18.362  15.392   8.135  0.1999  0.1175 -0.0156
  120loPI   C4B 1920  18.453  15.291   7.681  0.2897  0.0104  0.0436
  121loPI    C1 1921  18.040  13.024   9.746  0.0300 -0.2830 -0.1424
  121loPI    C2 1922  17.671  13.147   9.842  0.0589 -0.1024 -0.2577
  121loPI    C3 1923  17.988  13.282  10.047  0.1064  0.1616 -0.4985
  121loPI   PO4 1924  18.020  13.110   9.451 -0.0277  0.0374 -0.1756
  121loPI   GL1 1925  18.302  13.161   9.099 -0.2570  0.2395  0.1797
  121loPI   GL2 1926  18.084  13.142   8.851  0.1802 -0.0742  0.0447
  121loPI   C1A 1927  18.530  13.393   8.891  0.1750  0.1533  0.0220
  121loPI   C2A 1928  18.728  13.682   8.524  0.0181  0.1523 -0.0642
  121loPI   C3A 1929  18.858  13.627   8.090 -0.1258 -0.3153  0.1866
  121loPI   C4A 1930  19.000  13.641   7.640 -0.1074 -0.1980  0.1884
  121loPI   C5A 1931  19.259  13.641   7.298 -0.2127  0.0327  0.3129
  121loPI   C6A 1932  19.386  13.838   6.993 -0.0366  0.0742 -0.0034
  121loPI   C1B 1933  18.280  13.196   8.526  0.0472  0.0984  0.1817
  121loPI   C2B 1934  18.445  13.276   8.095 -0.2395  0.0355 -0.1829
  121loPI   C3B 1935  18.533  13.351   7.723 -0.1969 -0.1457 -0.0631
  121loPI   C4B 1936  18.770  13.215   7.445  0.1373 -0.0164 -0.0774
  122loPI    C1 1937  13.177   6.941   9.151 -0.0494 -0.2102  0.1267
  122loPI    C2 1938  13.132   6.780   9.515  0.0357  0.1936  0.3208
  122loPI    C3 1939  13.376   7.093   9.463 -0.1602  0.2921 -0.0385
  122loPI   PO4 1940  13.231   6.737   8.970 -0.0382  0.0329  0.1439
  122loPI   GL1 1941  13.261   6.784   8.645 -0.0780 -0.0709 -0.0696
  122loPI   GL2 1942  13.625   6.746   8.639  0.4335  0.0311  0.3713
  122loPI   C1A 1943  13.267   6.832   8.185 -0.0093 -0.1601 -0.0994
  122loPI   C2A 1944  13.144   6.890   7.781 -0.1279 -0.2072 -0.3580
  122loPI   C3A 1945  13.181   6.784   7.402 -0.1127  0.4519  0.0348
  122loPI   C4A 1946  13.424   6.565   7.039  0.1227 -0.1305  0.0505
  122loPI   C5A 1947  13.740   6.328   6.788  0.1805 -0.0397 -0.1118
  122loPI   C6A 1948  13.673   6.335   6.333  0.0093 -0.0160 -0.0686
  122loPI   C1B 1949  13.837   6.653   8.195 -0.2336 -0.0231 -0.0232
  122loPI   C2B 1950  13.669   6.719   7.796  0.3842  0.1255 -0.2738
  122loPI   C3B 1951  13.842   6.768   7.334 -0.0797 -0.1918  0.1823
  122loPI   C4B 1952  13.929   6.823   6.948 -0.1329  0.0517  0.1647
  123loPI    C1 1953   4.425  14.653   9.972  0.2376  0.0066  0.0483
  123loPI    C2 1954   4.782  14.813  10.057  0.2405  0.0768 -0.0943
  123loPI    C3 1955   4.530  14.719  10.352  0.3289  0.1378  0.0011
  123loPI   PO4 1956   4.373  14.726   9.736 -0.1890  0.0789  0.0292
  123loPI   GL1 1957   4.291  14.895   9.355 -0.4799 -0.0966  0.0385
  123loPI   GL2 1958   4.455  15.174   9.340  0.1529  0.1705  0.2669
  123loPI   C1A 1959   4.028  14.948   8.997 -0.0205 -0.2447 -0.0257
  123loPI   C2A 1960   3.902  14.817   8.524  0.1857  0.1069 -0.1476
  123loPI   C3A 1961   3.715  14.819   8.180  0.2379  0.3257 -0.0805
  123loPI   C4A 1962   3.787  14.841   7.702 -0.1948  0.1809 -0.0041
  123loPI   C5A 1963   3.684  14.752   7.328  0.1091 -0.2677 -0.2035
  123loPI   C6A 1964   3.514  14.504   6.945  0.0105  0.2116  0.1963
  123loPI   C1B 1965   4.494  15.149   8.970 -0.0441 -0.0579  0.0691
  123loPI   C2B 1966   4.353  15.207   8.649  0.1570 -0.0379 -0.2037
  123loPI   C3B 1967   4.252  15.277   8.281  0.2699 -0.0227 -0.2231
  123loPI   C4B 1968   4.441  15.466   7.992  0.1258  0.3046 -0.0875
  124loPI    C1 1969   9.944  10.062   9.209 -0.1013  0.1944  0.2066
  124loPI    C2 1970   9.772   9.942   9.550 -0.1383  0.0141  0.1256
  124loPI    C3 1971  10.170   9.931   9.512 -0.1236  0.1853  0.2193
  124loPI   PO4 1972   9.962  10.252   9.013 -0.0214  0.3516 -0.1417
  124loPI   GL1 1973   9.757  10.158   8.673 -0.1142 -0.1414 -0.0113
  124loPI   GL2 1974   9.416  10.001   8.628  0.2523 -0.1165  0.2461
  124loPI   C1A 1975  10.060   9.960   8.337 -0.1162 -0.1054 -0.1991
  124loPI   C2A 1976  10.334   9.712   8.086  0.1934  0.3524  0.2402
  124loPI   C3A 1977  10.370   9.458   7.689 -0.1424 -0.0829  0.2134
  124loPI   C4A 1978  10.420   9.427   7.231 -0.1528  0.3641  0.0482
  124loPI   C5A 1979  10.585   9.091   7.014 -0.2042  0.0989  0.0779
  124loPI   C6A 1980  11.020   8.927   6.954 -0.0161  0.0483  0.0593
  124loPI   C1B 1981   9.459  10.074   8.172 -0.1843  0.1370 -0.0102
  124loPI   C2B 1982   9.799  10.137   7.903  0.0443  0.0385  0.0223
  124loPI   C3B 1983  10.118  10.023   7.665 -0.5160 -0.0214 -0.0043
  124loPI   C4B 1984  10.645   9.897   7.627  0.3134 -0.3098 -0.1375
  125loPI    C1 1985   6.871   9.547   9.950 -0.1853 -0.3016 -0.1488
  125loPI    C2 1986   6.679   9.721  10.255 -0.0281 -0.0647 -0.1829
  125loPI    C3 1987   7.040   9.559  10.313  0.0271  0.0313 -0.2540
  125loPI   PO4 1988   6.779   9.402   9.835 -0.2007 -0.3436  0.0484
  125loPI   GL1 1989   6.790   9.571   9.454  0.0089  0.2806 -0.0407
  125loPI   GL2 1990   6.685   9.276   9.301  0.0526 -0.1575 -0.0626
  125loPI   C1A 1991   6.506   9.855   9.223 -0.2008 -0.2707 -0.4789
  125loPI   C2A 1992   6.329   9.923   8.828 -0.1750 -0.1211  0.3569
  125loPI   C3A 1993   6.355   9.880   8.350  0.2524 -0.1843 -0.0352
  125loPI   C4A 1994   6.464   9.856   7.954 -0.1576  0.0209  0.2422
  125loPI   C5A 1995   6.253   9.675   7.674 -0.0093  0.3260 -0.0998
  125loPI   C6A 1996   5.895   9.484   7.580  0.0213  0.0351 -0.1409
  125loPI   C1B 1997   6.645   9.407   8.884 -0.2372 -0.1153 -0.2835
  125loPI   C2B 1998   6.337   9.430   8.689  0.3358  0.2062  0.0240
  125loPI   C3B 1999   6.262   9.222   8.298  0.1126 -0.0948 -0.1545
  125loPI   C4B 2000   6.268   9.149   7.900 -0.0775 -0.1388 -0.3588
  126loPI    C1 2001   3.681  11.277  10.205  0.1528  0.0438  0.2602
  126loPI    C2 2002   3.405  11.066  10.403  0.0375 -0.1401 -0.0872
  126loPI    C3 2003   3.378  11.465  10.387 -0.1090 -0.1443  0.0289
  126loPI   PO4 2004   3.657  11.002   9.925  0.0507  0.4013 -0.1056
  126loPI   GL1 2005   3.509  11.225   9.520  0.0953 -0.0079 -0.2308
  126loPI   GL2 2006   3.460  11.497   9.489 -0.1923  0.0528  0.3593
  126loPI   C1A 2007   3.621  11.140   9.105  0.5674  0.2876 -0.0090
  126loPI   C2A 2008   3.582  11.192   8.559 -0.1322 -0.0979 -0.0755
  126loPI   C3A 2009   3.676  11.124   8.003  0.2364  0.1552 -0.3778
  126loPI   C4A 2010   3.752  11.065   7.505  0.0153  0.0335  0.1347
  126loPI   C5A 2011   3.751  10.998   7.128 -0.0353 -0.0569  0.3153
  126loPI   C6A 2012   4.220  10.960   6.902 -0.1013 -0.0608 -0.2330
  126loPI   C1B 2013   3.405  11.807   9.095  0.0470  0.0984  0.0021
  126loPI   C2B 2014   3.458  11.890   8.626  0.0109 -0.3188 -0.4257
  126loPI   C3B 2015   3.754  11.648   8.306  0.2285  0.0733 -0.3989
  126loPI   C4B 2016   4.116  11.347   8.260  0.0727 -0.0604 -0.0647
  127loPI    C1 2017   5.226  14.226   9.384 -0.2046  0.1003  0.0926
  127loPI    C2 2018   5.555  14.443   9.315 -0.0297 -0.1753  0.0478
  127loPI    C3 2019   5.243  14.608   9.502  0.0261  0.1697 -0.1555
  127loPI   PO4 2020   5.378  14.005   9.494  0.1676 -0.0456  0.1381
  127loPI   GL1 2021   5.718  13.966   9.225 -0.0535  0.1539 -0.2272
  127loPI   GL2 2022   5.794  13.586   9.097  0.0483 -0.0350  0.1690
  127loPI   C1A 2023   5.651  13.871   8.681  0.0031 -0.0656 -0.1228
  127loPI   C2A 2024   5.708  13.858   8.318 -0.2231 -0.2002 -0.2667
  127loPI   C3A 2025   5.468  13.675   8.069  0.1518  0.4020  0.1167
  127loPI   C4A 2026   5.161  13.594   7.866  0.0060 -0.1562 -0.2568
  127loPI   C5A 2027   4.818  13.508   7.853  0.0289  0.0055  0.3531
  127loPI   C6A 2028   4.505  13.643   7.613  0.0628 -0.3806 -0.0107
  127loPI   C1B 2029   6.006  13.538   8.690  0.0331  0.0542  0.0248
  127loPI   C2B 2030   6.146  13.285   8.435  0.0683  0.0506  0.0025
  127loPI   C3B 2031   6.086  13.386   7.985  0.0397  0.0706  0.2786
  127loPI   C4B 2032   5.857  13.700   7.810 -0.0706  0.2872  0.1389
  128loPI    C1 2033  19.086  11.733   9.599 -0.2518 -0.1335 -0.0699
  128loPI    C2 2034  18.808  11.635   9.869 -0.1491  0.1228  0.1325
  128loPI    C3 2035  18.837  12.012   9.740  0.0361  0.0755  0.0324
  128loPI   PO4 2036  19.119  11.634   9.337 -0.0368 -0.1867 -0.1462
  128loPI   GL1 2037  18.934  11.659   8.957  0.3603  0.0855  0.1843
  128loPI   GL2 2038  18.817  11.313   8.946 -0.0389  0.0105 -0.1822
  128loPI   C1A 2039  19.187  11.667   8.573  0.6641 -0.0931  0.0094
  128loPI   C2A 2040  19.214  11.713   8.168 -0.1377  0.1453 -0.2240
  128loPI   C3A 2041  19.286  11.500   7.734  0.1157 -0.2330  0.0243
  128loPI   C4A 2042  19.388  11.328   7.336 -0.1303 -0.3224  0.2070
  128loPI   C5A 2043  19.549  10.883   7.173 -0.0717 -0.0640  0.0241
  128loPI   C6A 2044  19.346  10.715   6.863 -0.2019  0.0548 -0.0427
  128loPI   C1B 2045  18.941  11.227   8.519  0.3246  0.1903 -0.3188
  128loPI   C2B 2046  19.060  11.199   8.118 -0.0150 -0.3383  0.2068
  128loPI   C3B 2047  19.022  10.991   7.660 -0.1518  0.2860  0.1676
  128loPI   C4B 2048  19.216  10.636   7.654 -0.2669 -0.0019  0.1854
  129loPI    C1 2049  11.954   0.730   9.787  0.1270 -0.0800 -0.1206
  129loPI    C2 2050  11.626   0.530   9.901  0.0848  0.1610  0.1944
  129loPI    C3 2051  11.989   0.383   9.983  0.0551  0.0548  0.1362
  129loPI   PO4 2052  11.767   0.828   9.486  0.1695 -0.2633  0.0845
  129loPI   GL1 2053  11.324   0.925   9.291 -0.2586 -0.0558  0.0573
  129loPI   GL2 2054  11.249   1.267   9.087  0.2933 -0.2585  0.0509
  129loPI   C1A 2055  11.240   0.709   8.857 -0.1129 -0.1198  0.1744
  129loPI   C2A 2056  11.256   0.624   8.413  0.3934 -0.1029 -0.0201
  129loPI   C3A 2057  11.277   0.368   8.020  0.2179 -0.0007  0.0510
  129loPI   C4A 2058  11.383   0.226   7.627 -0.1532 -0.3006  0.1667
  129loPI   C5A 2059  11.685   0.201   7.208 -0.3813  0.1868 -0.5353
  129loPI   C6A 2060  12.042   0.119   7.069 -0.0158  0.1420  0.0086
  129loPI   C1B 2061  11.355   1.209   8.683 -0.2295  0.3416 -0.2807
  129loPI   C2B 2062  11.503   1.227   8.273 -0.0954  0.1823 -0.1516
  129loPI   C3B 2063  11.774   1.100   7.860  0.0121 -0.2209  0.1453
  129loPI   C4B 2064  11.902   1.103   7.291 -0.0709  0.0802  0.4099
  130loPI    C1 2065   4.170  15.378   9.838  0.0712 -0.0447  0.1463
  130loPI    C2 2066   4.526  15.196   9.834  0.1795  0.1645  0.1375
  130loPI    C3 2067   4.369  15.318  10.181  0.1405  0.1191  0.1357
  130loPI   PO4 2068   4.044  15.134   9.702  0.0398 -0.3810 -0.5574
  130loPI   GL1 2069   3.898  15.263   9.359 -0.1566 -0.1630 -0.4977
  130loPI   GL2 2070   3.675  15.248   9.143 -0.1965  0.1811  0.1491
  130loPI   C1A 2071   4.021  15.522   8.997  0.1700 -0.0746 -0.1023
  130loPI   C2A 2072   3.963  15.647   8.498  0.1516  0.1581  0.2706
  130loPI   C3A 2073   4.053  15.773   8.070 -0.2157  0.0770 -0.1359
  130loPI   C4A 2074   3.914  15.916   7.600  0.1740  0.0681 -0.2069
  130loPI   C5A 2075   3.937  16.224   7.579  0.0222 -0.0014  0.0405
  130loPI   C6A 2076   4.021  16.661   7.583  0.1599 -0.0718 -0.0904
  130loPI   C1B 2077   3.721  15.237   8.692  0.1894 -0.2263  0.2348
  130loPI   C2B 2078   3.741  15.293   8.189  0.1926 -0.2966 -0.2216
  130loPI   C3B 2079   3.951  15.364   7.751 -0.1618 -0.0691  0.2983
  130loPI   C4B 2080   4.222  15.529   7.455 -0.0050 -0.2402 -0.2026
  131loPI    C1 2081  15.519  10.500   9.671 -0.0555 -0.2384 -0.1710
  131loPI    C2 2082  15.179  10.488   9.880  0.1140 -0.0312  0.1238
  131loPI    C3 2083  15.511  10.319  10.027  0.2100  0.0249 -0.0260
  131loPI   PO4 2084  15.620  10.444   9.344  0.0470 -0.1211  0.2018
  131loPI   GL1 2085  15.928  10.205   9.031 -0.0409 -0.1440 -0.2390
  131loPI   GL2 2086  15.813   9.903   8.882  0.0078  0.0967  0.1092
  131loPI   C1A 2087  16.325  10.038   8.796  0.0002 -0.0131 -0.1011
  131loPI   C2A 2088  16.467   9.938   8.352  0.1810 -0.0184 -0.0122
  131loPI   C3A 2089  16.636  10.002   7.969 -0.2172 -0.2723  0.1666
  131loPI   C4A 2090  16.854  10.116   7.653 -0.1713 -0.2093  0.0358
  131loPI   C5A 2091  17.049  10.226   7.323  0.1150 -0.0501  0.0846
  131loPI   C6A 2092  16.978  10.122   6.875  0.1046  0.0809  0.0562
  131loPI   C1B 2093  15.974  10.069   8.418  0.2600 -0.2268 -0.1660
  131loPI   C2B 2094  16.105  10.191   7.987  0.0237  0.0583 -0.0795
  131loPI   C3B 2095  16.315  10.157   7.590  0.1890 -0.0627  0.1665
  131loPI   C4B 2096  16.486   9.800   7.407  0.1881 -0.0467 -0.0199
  132loPI    C1 2097   4.493  18.675   9.864  0.1432 -0.0469 -0.1458
  132loPI    C2 2098   4.235  18.852   9.615 -0.3591 -0.2855  0.1891
  132loPI    C3 2099   4.242  18.954  10.002  0.1718 -0.1668  0.1561
  132loPI   PO4 2100   4.519  18.430   9.638  0.1200 -0.1330  0.1244
  132loPI   GL1 2101   4.405  18.457   9.258 -0.2059  0.3007 -0.0266
  132loPI   GL2 2102   4.693  18.254   9.091 -0.5939 -0.2189  0.0555
  132loPI   C1A 2103   4.556  18.671   8.928 -0.0396 -0.1851  0.0212
  132loPI   C2A 2104   4.577  18.763   8.561 -0.0233 -0.2459  0.0069
  132loPI   C3A 2105   4.379  18.770   8.084  0.0658 -0.3618 -0.0400
  132loPI   C4A 2106   4.559  18.788   7.722  0.4455 -0.0785  0.1212
  132loPI   C5A 2107   4.635  18.566   7.395 -0.1560  0.2001  0.2214
  132loPI   C6A 2108   4.326  18.522   7.092 -0.0612 -0.0788  0.0174
  132loPI   C1B 2109   4.570  18.259   8.655 -0.4216  0.0456  0.0391
  132loPI   C2B 2110   4.485  18.250   8.109  0.2104  0.3063  0.2031
  132loPI   C3B 2111   4.669  18.134   7.712 -0.1996 -0.2386  0.1847
  132loPI   C4B 2112   4.862  18.102   7.454 -0.0149  0.0909  0.0723
  133loPI    C1 2113  13.329   8.245   9.256 -0.0610  0.0712 -0.3109
  133loPI    C2 2114  12.994   8.100   9.421  0.1388 -0.1965 -0.1320
  133loPI    C3 2115  13.348   7.937   9.511  0.3269  0.1282 -0.2655
  133loPI   PO4 2116  13.296   8.167   8.986 -0.0516  0.1221 -0.2196
  133loPI   GL1 2117  13.134   8.232   8.618  0.2696 -0.0820 -0.0943
  133loPI   GL2 2118  13.111   8.580   8.629  0.2443 -0.0918  0.1557
  133loPI   C1A 2119  13.527   8.175   8.277 -0.1167 -0.1298 -0.4831
  133loPI   C2A 2120  13.627   8.127   7.846  0.3618 -0.0511  0.1136
  133loPI   C3A 2121  13.774   7.895   7.471  0.2432 -0.1173  0.1101
  133loPI   C4A 2122  13.992   7.848   7.095 -0.0237 -0.2269  0.1027
  133loPI   C5A 2123  13.962   8.218   6.745 -0.2147  0.0377 -0.0890
  133loPI   C6A 2124  13.934   8.368   6.225  0.0166  0.1409 -0.1311
  133loPI   C1B 2125  13.139   8.478   8.172 -0.3082  0.0581 -0.0403
  133loPI   C2B 2126  13.113   8.334   7.774 -0.2618  0.1342  0.2856
  133loPI   C3B 2127  13.161   8.165   7.335  0.1492 -0.1947 -0.0784
  133loPI   C4B 2128  13.413   8.044   7.017  0.1464  0.0282 -0.2474
  134loPI    C1 2129  14.517  13.742   9.373 -0.0762 -0.2930 -0.2929
  134loPI    C2 2130  14.244  13.785   9.662  0.1636  0.1273 -0.1194
  134loPI    C3 2131  14.162  13.907   9.290  0.1144  0.2534 -0.0676
  134loPI   PO4 2132  14.662  13.400   9.220 -0.0020  0.3893  0.1189
  134loPI   GL1 2133  14.734  13.446   8.750 -0.0737  0.0446  0.1964
  134loPI   GL2 2134  14.491  13.640   8.752 -0.0065 -0.0260  0.2173
  134loPI   C1A 2135  14.403  13.335   8.369 -0.0357 -0.3198  0.2000
  134loPI   C2A 2136  14.392  13.268   8.013  0.2620 -0.3192 -0.1963
  134loPI   C3A 2137  14.529  13.417   7.644 -0.1915 -0.0596 -0.3203
  134loPI   C4A 2138  14.858  13.277   7.337 -0.2984 -0.0296 -0.1828
  134loPI   C5A 2139  15.272  13.074   7.405  0.0928 -0.2986 -0.0714
  134loPI   C6A 2140  15.579  12.745   7.359  0.0231 -0.0234 -0.0058
  134loPI   C1B 2141  14.135  13.751   8.451 -0.3568 -0.0076  0.0024
  134loPI   C2B 2142  13.936  13.544   8.112  0.1309  0.0110 -0.1640
  134loPI   C3B 2143  13.907  13.253   7.719  0.0551  0.1119  0.0025
  134loPI   C4B 2144  14.299  13.041   7.445  0.1694 -0.3147 -0.1123
  135loPI    C1 2145  18.175  11.359   9.611  0.0322  0.0105 -0.1109
  135loPI    C2 2146  18.071  11.024   9.803 -0.1428 -0.0831 -0.3628
  135loPI    C3 2147  18.047  11.378   9.990  0.1422 -0.2178 -0.0613
  135loPI   PO4 2148  18.274  11.267   9.446  0.1660  0.0101  0.2184
  135loPI   GL1 2149  18.200  11.144   9.014  0.2100 -0.0002 -0.0797
  135loPI   GL2 2150  18.215  11.462   8.890  0.1357  0.1777 -0.0328
  135loPI   C1A 2151  18.284  10.983   8.577 -0.2769  0.1450 -0.3954
  135loPI   C2A 2152  18.444  10.955   8.218  0.0502 -0.0929 -0.0571
  135loPI   C3A 2153  18.579  11.097   7.913  0.0339  0.3006 -0.3298
  135loPI   C4A 2154  18.378  11.326   7.430 -0.0525  0.3249  0.1654
  135loPI   C5A 2155  18.542  11.450   7.086 -0.1674  0.1318 -0.2540
  135loPI   C6A 2156  18.907  11.472   6.710  0.0640 -0.0629  0.1079
  135loPI   C1B 2157  18.478  11.507   8.607  0.0041  0.4902  0.0898
  135loPI   C2B 2158  18.724  11.529   8.178 -0.1447 -0.0494  0.1183
  135loPI   C3B 2159  18.742  11.534   7.679 -0.0360  0.1861  0.0695
  135loPI   C4B 2160  18.958  11.698   7.256  0.1096 -0.0153 -0.2293
  136loPI    C1 2161  14.644  17.473   9.910 -0.0580  0.0707  0.0829
  136loPI    C2 2162  14.898  17.165   9.936 -0.1326  0.0005 -0.0112
  136loPI    C3 2163  15.036  17.540   9.957 -0.0035 -0.0346 -0.1971
  136loPI   PO4 2164  14.502  17.421   9.578 -0.0598 -0.4111 -0.1774
  136loPI   GL1 2165  14.559  17.517   9.228 -0.1839 -0.2197  0.1609
  136loPI   GL2 2166  14.246  17.616   9.116  0.2981 -0.3853  0.0444
  136loPI   C1A 2167  14.738  17.812   8.981 -0.0688 -0.3502  0.3578
  136loPI   C2A 2168  14.748  17.929   8.589 -0.3298 -0.2426  0.0742
  136loPI   C3A 2169  14.598  17.979   8.228 -0.0476  0.1708  0.0330
  136loPI   C4A 2170  14.213  18.197   8.140  0.0535 -0.1684 -0.4442
  136loPI   C5A 2171  14.049  18.160   7.656 -0.1254  0.0373 -0.1783
  136loPI   C6A 2172  13.694  18.218   7.414 -0.0315  0.1742 -0.1692
  136loPI   C1B 2173  14.418  17.392   8.765 -0.1000 -0.0689  0.5020
  136loPI   C2B 2174  14.775  17.402   8.532 -0.0683 -0.0093 -0.0355
  136loPI   C3B 2175  14.930  17.568   8.111  0.0246 -0.2721 -0.2980
  136loPI   C4B 2176  15.012  17.899   7.969  0.0654 -0.0069  0.3270
  137loPI    C1 2177   0.164  18.360   9.370  0.4495 -0.1370 -0.3105
  137loPI    C2 2178   0.037  17.984   9.321  0.2176 -0.1115  0.0551
  137loPI    C3 2179   0.193  18.099   9.672  0.2592  0.1417 -0.0440
  137loPI   PO4 2180   0.336  18.367   9.146  0.1717  0.0137 -0.0323
  137loPI   GL1 2181   0.519  18.626   8.893 -0.0904  0.0686  0.0938
  137loPI   GL2 2182   0.144  18.750   8.871 -0.2660  0.1354 -0.2791
  137loPI   C1A 2183   0.742  18.768   8.536  0.0413 -0.1102  0.0864
  137loPI   C2A 2184   0.719  18.843   8.040 -0.3758 -0.2791  0.3907
  137loPI   C3A 2185   0.977  18.864   7.589  0.1288 -0.0142 -0.0904
  137loPI   C4A 2186   1.193  18.883   7.156  0.0453  0.1551  0.0930
  137loPI   C5A 2187   1.429  18.781   6.794 -0.1234 -0.2113 -0.0177
  137loPI   C6A 2188   1.434  18.636   6.348 -0.0394 -0.2900  0.0683
  137loPI   C1B 2189   0.147  18.719   8.601 -0.3441 -0.1959  0.2056
  137loPI   C2B 2190   0.286  18.737   8.173 -0.2973  0.0279 -0.3642
  137loPI   C3B 2191   0.275  18.761   7.724 -0.1457 -0.0487 -0.1721
  137loPI   C4B 2192   0.485  18.961   7.544 -0.3028 -0.1243 -0.1131
  138loPI    C1 2193  14.424  16.469   9.770  0.0814 -0.1038 -0.0217
  138loPI    C2 2194  14.350  16.342  10.142  0.2352  0.3276  0.1634
  138loPI    C3 2195  14.276  16.722  10.043  0.1272  0.1989 -0.2716
  138loPI   PO4 2196  14.627  16.304   9.681  0.0753  0.1905 -0.3768
  138loPI   GL1 2197  14.791  16.153   9.318  0.2389 -0.1993  0.0920
  138loPI   GL2 2198  15.026  16.034   9.131 -0.2205 -0.2802  0.1970
  138loPI   C1A 2199  14.523  16.020   8.904 -0.3373  0.0804 -0.1973
  138loPI   C2A 2200  14.397  15.965   8.495 -0.0654  0.1763  0.1791
  138loPI   C3A 2201  14.335  16.010   8.112 -0.1880  0.2139  0.1486
  138loPI   C4A 2202  14.326  16.257   7.767 -0.0043  0.0592  0.0382
  138loPI   C5A 2203  14.499  16.402   7.457  0.2083 -0.1760 -0.2258
  138loPI   C6A 2204  14.889  16.492   7.273 -0.1031  0.0555 -0.1756
  138loPI   C1B 2205  15.201  16.188   8.768  0.0555 -0.0325 -0.0105
  138loPI   C2B 2206  15.296  16.311   8.422  0.1836 -0.1052 -0.0235
  138loPI   C3B 2207  15.325  16.279   7.966 -0.1015  0.1867  0.0553
  138loPI   C4B 2208  15.265  16.427   7.630  0.1325  0.2243  0.3878
  139loPI    C1 2209   3.171   6.967   9.618 -0.1414 -0.1558 -0.1811
  139loPI    C2 2210   2.884   6.794   9.836  0.1390 -0.0728  0.2667
  139loPI    C3 2211   3.259   6.659   9.857  0.2473  0.2029  0.1537
  139loPI   PO4 2212   3.110   7.041   9.366 -0.0607 -0.1287  0.2388
  139loPI   GL1 2213   3.148   6.838   8.959 -0.3321  0.2293  0.0762
  139loPI   GL2 2214   3.358   6.653   8.757 -0.2578 -0.0967 -0.0041
  139loPI   C1A 2215   3.182   7.089   8.699  0.3372  0.0409 -0.0289
  139loPI   C2A 2216   3.270   7.181   8.146  0.1553 -0.0256 -0.3820
  139loPI   C3A 2217   3.191   6.998   7.761 -0.0062 -0.4022 -0.3744
  139loPI   C4A 2218   2.923   7.000   7.452 -0.0895  0.0919 -0.0459
  139loPI   C5A 2219   2.930   6.995   6.951  0.2808 -0.1317 -0.1226
  139loPI   C6A 2220   2.711   7.043   6.536 -0.0520  0.2011 -0.0108
  139loPI   C1B 2221   3.254   6.208   8.557 -0.2789  0.3260  0.0747
  139loPI   C2B 2222   3.177   5.686   8.390 -0.0362 -0.2747 -0.0707
  139loPI   C3B 2223   2.785   5.506   8.202 -0.0261  0.1167  0.2281
  139loPI   C4B 2224   2.393   5.507   8.366 -0.1472 -0.0240 -0.1219
  140loPI    C1 2225   1.058   1.649   9.046 -0.0444  0.1995  0.0310
  140loPI    C2 2226   0.664   1.698   9.097 -0.0722 -0.1564  0.1866
  140loPI    C3 2227   0.923   1.895   9.331 -0.1523  0.1547  0.0188
  140loPI   PO4 2228   1.082   1.359   9.124 -0.2505  0.1103  0.1011
  140loPI   GL1 2229   1.188   1.132   8.882 -0.1097 -0.2197 -0.2093
  140loPI   GL2 2230   1.353   1.430   8.654  0.1264  0.0988 -0.3497
  140loPI   C1A 2231   1.011   0.888   8.612 -0.0268  0.1124  0.0331
  140loPI   C2A 2232   0.817   0.739   8.267 -0.2772  0.1097  0.3010
  140loPI   C3A 2233   0.803   0.688   7.800 -0.2423 -0.2276  0.1411
  140loPI   C4A 2234   0.951   0.529   7.525  0.1952 -0.1378  0.1861
  140loPI   C5A 2235   0.916   0.128   7.352 -0.0565 -0.0456  0.0139
  140loPI   C6A 2236   1.071  -0.192   7.170 -0.0798 -0.1774  0.4003
  140loPI   C1B 2237   1.539   1.390   8.329 -0.1941  0.0059 -0.1076
  140loPI   C2B 2238   1.729   1.161   7.913  0.0853 -0.0932  0.3254
  140loPI   C3B 2239   2.108   1.093   7.643  0.2616  0.1203 -0.2197
  140loPI   C4B 2240   2.555   1.021   7.859  0.2587 -0.0918  0.0682
  141loPI    C1 2241  12.950  14.897   9.589 -0.2576  0.0198  0.1249
  141loPI    C2 2242  12.907  15.046   9.958 -0.2963 -0.0678  0.1561
  141loPI    C3 2243  13.203  15.176   9.723 -0.2756 -0.0068  0.2156
  141loPI   PO4 2244  12.951  14.612   9.593  0.1861  0.0096  0.0061
  141loPI   GL1 2245  12.617  14.416   9.311 -0.0938  0.4070 -0.1630
  141loPI   GL2 2246  12.593  14.770   9.178 -0.0060  0.1381  0.1449
  141loPI   C1A 2247  12.867  14.383   8.865 -0.0369  0.1691  0.0141
  141loPI   C2A 2248  12.860  14.379   8.355  0.0451  0.0987  0.2664
  141loPI   C3A 2249  12.666  14.393   7.909 -0.1505  0.4693 -0.0833
  141loPI   C4A 2250  12.847  14.391   7.463 -0.0696  0.1686 -0.0663
  141loPI   C5A 2251  12.854  13.956   7.250  0.1377 -0.1265 -0.2473
  141loPI   C6A 2252  13.015  13.604   7.037 -0.0691 -0.1780 -0.2891
  141loPI   C1B 2253  12.438  14.608   8.719  0.0037  0.3604 -0.0857
  141loPI   C2B 2254  12.342  14.438   8.340 -0.4401  0.1948 -0.0069
  141loPI   C3B 2255  12.117  14.342   8.050 -0.0671  0.3608 -0.2338
  141loPI   C4B 2256  11.996  14.434   7.700 -0.0854 -0.1256  0.0932
  142loPI    C1 2257  10.054  15.174   9.733 -0.1907 -0.0654  0.2441
  142loPI    C2 2258   9.950  14.800   9.637 -0.1604 -0.0038 -0.0364
  142loPI    C3 2259   9.697  15.032   9.842 -0.2548 -0.1160 -0.0256
  142loPI   PO4 2260  10.110  15.312   9.514 -0.0541 -0.0928  0.2575
  142loPI   GL1 2261   9.907  15.269   9.126 -0.3031 -0.0306  0.0918
  142loPI   GL2 2262   9.660  15.083   9.076  0.1797  0.0079  0.0879
  142loPI   C1A 2263   9.970  15.088   8.702 -0.0584  0.1114 -0.0678
  142loPI   C2A 2264   9.923  15.182   8.298  0.4793  0.1214 -0.2021
  142loPI   C3A 2265   9.769  14.907   7.956  0.1372 -0.0796  0.0085
  142loPI   C4A 2266   9.533  14.721   7.582  0.0580  0.0202  0.1192
  142loPI   C5A 2267   9.237  14.842   7.302 -0.0324  0.1791 -0.2458
  142loPI   C6A 2268   9.080  15.163   7.075 -0.3489  0.1478  0.2005
  142loPI   C1B 2269   9.465  14.961   8.649 -0.2108 -0.0618  0.0614
  142loPI   C2B 2270   9.308  14.870   8.310  0.3574  0.1097  0.0918
  142loPI   C3B 2271   9.317  14.506   8.010 -0.0302  0.1519 -0.0503
  142loPI   C4B 2272   9.239  14.284   7.798 -0.1332  0.2038 -0.0460
  143loPI    C1 2273  18.203   8.902   9.445 -0.0033  0.1838  0.0343
  143loPI    C2 2274  17.891   9.063   9.637 -0.2118 -0.0820 -0.0758
  143loPI    C3 2275  18.047   8.717   9.763 -0.1574 -0.1051 -0.2053
  143loPI   PO4 2276  18.185   8.908   9.191  0.0998 -0.1776  0.0941
  143loPI   GL1 2277  18.210   9.040   8.840  0.1258 -0.1713 -0.0371
  143loPI   GL2 2278  17.941   8.773   8.825 -0.0987  0.2980 -0.0834
  143loPI   C1A 2279  18.222   8.958   8.354 -0.1152  0.0418  0.2935
  143loPI   C2A 2280  18.097   8.838   7.960  0.0383 -0.0150 -0.0351
  143loPI   C3A 2281  18.326   8.862   7.483 -0.2683  0.0525 -0.0458
  143loPI   C4A 2282  18.305   8.628   7.078 -0.2775 -0.1368  0.1945
  143loPI   C5A 2283  18.527   8.412   6.814  0.0120 -0.1748 -0.1082
  143loPI   C6A 2284  18.702   8.049   7.041  0.0283 -0.5388  0.1890
  143loPI   C1B 2285  17.797   8.627   8.412 -0.0970 -0.3416  0.1794
  143loPI   C2B 2286  17.753   8.465   8.018 -0.3939  0.1105  0.3115
  143loPI   C3B 2287  17.673   8.475   7.567  0.7429  0.3313 -0.1200
  143loPI   C4B 2288  17.791   8.618   7.248 -0.1999 -0.1690  0.2680
  144loPI    C1 2289  14.833  15.684   9.691  0.0303  0.2825 -0.0175
  144loPI    C2 2290  15.098  15.820   9.958  0.0160  0.0224  0.1318
  144loPI    C3 2291  14.712  15.921   9.990  0.0798  0.3319 -0.0363
  144loPI   PO4 2292  14.959  15.713   9.493 -0.1103  0.1272  0.0931
  144loPI   GL1 2293  14.695  15.588   9.073 -0.1204 -0.1894 -0.0723
  144loPI   GL2 2294  14.455  15.389   8.991  0.0818 -0.2283 -0.0968
  144loPI   C1A 2295  14.908  15.781   8.741  0.0882  0.0768 -0.0944
  144loPI   C2A 2296  14.964  15.853   8.426 -0.3884 -0.0060  0.0153
  144loPI   C3A 2297  15.104  15.809   8.032 -0.0837 -0.3672  0.3066
  144loPI   C4A 2298  15.207  15.930   7.610  0.1286  0.0670 -0.1900
  144loPI   C5A 2299  15.092  15.804   7.131 -0.0127  0.0556  0.0033
  144loPI   C6A 2300  15.115  15.749   6.703 -0.3011  0.2943  0.0296
  144loPI   C1B 2301  14.212  15.568   8.699 -0.1576  0.3338  0.1130
  144loPI   C2B 2302  14.153  15.548   8.294 -0.0242  0.1322 -0.1640
  144loPI   C3B 2303  14.175  15.432   7.845  0.0032 -0.2595 -0.0516
  144loPI   C4B 2304  14.164  15.461   7.431 -0.1938 -0.0080  0.2343
  145loPI    C1 2305  13.968   9.889   9.439 -0.1662 -0.1380 -0.2594
  145loPI    C2 2306  13.709  10.137   9.616  0.1671 -0.1276  0.2375
  145loPI    C3 2307  14.067  10.272   9.499  0.2433 -0.3115  0.2554
  145loPI   PO4 2308  13.916   9.693   9.215  0.1664 -0.1362 -0.1015
  145loPI   GL1 2309  13.901   9.582   8.727 -0.2341 -0.3104 -0.3860
  145loPI   GL2 2310  13.931   9.820   8.447  0.0602 -0.3791 -0.0605
  145loPI   C1A 2311  13.619   9.493   8.389  0.2620 -0.0780 -0.2396
  145loPI   C2A 2312  13.675   9.428   7.963  0.0940  0.0799 -0.2333
  145loPI   C3A 2313  13.349   9.184   7.777 -0.3599  0.3501  0.0379
  145loPI   C4A 2314  13.389   9.073   7.401 -0.4230  0.2702 -0.3319
  145loPI   C5A 2315  13.439   9.041   6.986  0.3280 -0.1603 -0.4187
  145loPI   C6A 2316  13.507   9.249   6.624  0.1354 -0.0195 -0.0952
  145loPI   C1B 2317  14.032   9.697   8.132  0.0456 -0.2348 -0.4006
  145loPI   C2B 2318  14.063   9.708   7.624 -0.2354  0.1373  0.2426
  145loPI   C3B 2319  13.898   9.836   7.212 -0.1335 -0.4614  0.1115
  145loPI   C4B 2320  13.716  10.011   6.794 -0.4057 -0.0296 -0.0130
  146loPI    C1 2321  16.022   0.199   9.774  0.1212 -0.0376 -0.0326
  146loPI    C2 2322  15.737   0.139  10.048  0.0574  0.3376 -0.0110
  146loPI    C3 2323  16.114   0.203  10.163  0.0574  0.3496 -0.0178
  146loPI   PO4 2324  15.800   0.332   9.544 -0.0261  0.1529  0.1354
  146loPI   GL1 2325  15.909   0.460   9.086  0.4779  0.3126 -0.3062
  146loPI   GL2 2326  15.813   0.189   9.024 -0.0954 -0.3328 -0.0105
  146loPI   C1A 2327  16.131   0.496   8.783 -0.0326  0.1901  0.2153
  146loPI   C2A 2328  16.326   0.565   8.304 -0.0112  0.0666  0.0666
  146loPI   C3A 2329  16.410   0.499   7.961  0.2648 -0.2280 -0.0760
  146loPI   C4A 2330  16.660   0.380   7.662  0.2237 -0.0626 -0.2380
  146loPI   C5A 2331  16.501   0.344   7.232  0.1303  0.2780  0.1789
  146loPI   C6A 2332  16.395   0.767   7.073 -0.0584  0.2006 -0.0943
  146loPI   C1B 2333  15.698   0.307   8.516 -0.1269 -0.0381  0.0324
  146loPI   C2B 2334  15.867   0.413   8.175  0.1155 -0.4989 -0.0828
  146loPI   C3B 2335  15.818   0.448   7.815  0.1306  0.0556  0.0858
  146loPI   C4B 2336  16.086   0.514   7.524 -0.2448  0.1781  0.0588
  147loPI    C1 2337   1.847   8.299   9.764 -0.0259  0.3255 -0.1251
  147loPI    C2 2338   2.035   8.411  10.099 -0.2340  0.0550  0.0869
  147loPI    C3 2339   1.635   8.409  10.085 -0.2333 -0.3641 -0.0091
  147loPI   PO4 2340   1.966   8.372   9.591 -0.0717  0.0067  0.0189
  147loPI   GL1 2341   2.154   8.182   9.216 -0.0675  0.2560 -0.0376
  147loPI   GL2 2342   2.450   8.059   9.268 -0.0042 -0.1204 -0.1917
  147loPI   C1A 2343   2.059   8.417   8.766 -0.3118 -0.4230 -0.0139
  147loPI   C2A 2344   2.178   8.696   8.404 -0.1191 -0.1289 -0.0321
  147loPI   C3A 2345   2.510   8.869   8.055 -0.1029 -0.1606 -0.1583
  147loPI   C4A 2346   2.678   9.006   7.678 -0.1527  0.0436  0.1227
  147loPI   C5A 2347   2.712   8.916   7.243  0.4124 -0.2282 -0.1671
  147loPI   C6A 2348   2.454   8.748   6.956 -0.3285  0.3277  0.0729
  147loPI   C1B 2349   2.683   8.148   8.884  0.2074 -0.3422  0.0475
  147loPI   C2B 2350   3.046   8.185   8.705 -0.1959  0.2599 -0.0751
  147loPI   C3B 2351   3.114   8.101   8.353  0.1967  0.1406 -0.0521
  147loPI   C4B 2352   3.134   7.847   7.958 -0.4519 -0.4556 -0.0889
  148loPI    C1 2353  12.304   8.164   8.974  0.2841 -0.2167  0.0898
  148loPI    C2 2354  12.495   8.240   9.317 -0.0012  0.1681  0.1696
  148loPI    C3 2355  12.123   8.093   9.323  0.0515  0.0255  0.0221
  148loPI   PO4 2356  12.395   8.293   8.792  0.0940  0.0900  0.1742
  148loPI   GL1 2357  12.610   8.453   8.517  0.0852  0.1600 -0.2710
  148loPI   GL2 2358  12.685   8.159   8.419 -0.2051  0.0075 -0.4163
  148loPI   C1A 2359  12.722   8.690   8.143 -0.0922  0.1306  0.1406
  148loPI   C2A 2360  12.924   8.788   7.767  0.0683 -0.3551 -0.1214
  148loPI   C3A 2361  12.973   8.870   7.288 -0.2142 -0.2356  0.3158
  148loPI   C4A 2362  12.886   9.130   6.964 -0.0855 -0.2646  0.1465
  148loPI   C5A 2363  12.928   9.501   6.738 -0.0414  0.1045  0.0330
  148loPI   C6A 2364  12.883   9.493   6.308  0.0315 -0.0650  0.1297
  148loPI   C1B 2365  12.666   8.144   7.920 -0.0912  0.3463  0.1452
  148loPI   C2B 2366  12.636   8.298   7.575 -0.0114 -0.0998 -0.1881
  148loPI   C3B 2367  12.335   8.267   7.307 -0.3846 -0.1936  0.1990
  148loPI   C4B 2368  11.932   7.972   7.522  0.3592 -0.2057  0.1321
  149loPI    C1 2369  15.329   4.805   9.530 -0.2945 -0.0542  0.0241
  149loPI    C2 2370  15.584   4.584   9.745 -0.1903 -0.0330 -0.0771
  149loPI    C3 2371  15.283   4.775   9.926  0.0357  0.1770  0.0835
  149loPI   PO4 2372  15.230   4.683   9.352  0.2811 -0.1098 -0.1110
  149loPI   GL1 2373  15.313   4.731   8.903 -0.1617 -0.0415  0.0113
  149loPI   GL2 2374  15.081   4.580   8.734  0.5377 -0.1812 -0.2433
  149loPI   C1A 2375  15.604   4.761   8.536  0.1367  0.2226  0.2744
  149loPI   C2A 2376  15.342   4.518   8.244  0.1306 -0.0265 -0.2114
  149loPI   C3A 2377  15.393   4.152   8.162  0.2257  0.2354 -0.2367
  149loPI   C4A 2378  15.518   3.754   8.331 -0.4325 -0.3060  0.0160
  149loPI   C5A 2379  15.581   3.543   7.948  0.1875  0.0520  0.0646
  149loPI   C6A 2380  15.741   3.335   7.674 -0.2564 -0.1477  0.1820
  149loPI   C1B 2381  15.168   4.954   8.431 -0.0573 -0.0481 -0.1794
  149loPI   C2B 2382  15.203   5.376   8.305  0.1720  0.0172 -0.0922
  149loPI   C3B 2383  15.355   5.630   7.995  0.2745 -0.1618 -0.0541
  149loPI   C4B 2384  15.217   5.671   7.578  0.3088  0.0832  0.2876
  150loPI    C1 2385  11.231   0.532   9.586  0.2702  0.0316  0.0437
  150loPI    C2 2386  11.380   0.342   9.267 -0.1134 -0.0066 -0.1185
  150loPI    C3 2387  11.393   0.169   9.627 -0.2989 -0.2680 -0.2341
  150loPI   PO4 2388  10.985   0.597   9.516  0.1029 -0.5123 -0.0746
  150loPI   GL1 2389  10.830   0.556   9.227 -0.2494 -0.0909  0.2776
  150loPI   GL2 2390  10.766   0.707   9.014  0.2304  0.0286 -0.3473
  150loPI   C1A 2391  10.962   0.313   8.858 -0.1172  0.1443  0.1062
  150loPI   C2A 2392  11.148   0.070   8.461 -0.0515 -0.0383 -0.0659
  150loPI   C3A 2393  11.221  -0.130   8.141  0.1385  0.0440 -0.1745
  150loPI   C4A 2394  11.520  -0.153   7.939  0.0725  0.0071  0.0755
  150loPI   C5A 2395  11.444  -0.529   7.749 -0.0060 -0.0208  0.0188
  150loPI   C6A 2396  11.575  -0.836   7.398 -0.2402 -0.0637  0.2643
  150loPI   C1B 2397  10.595   0.595   8.738 -0.4432 -0.0782 -0.0107
  150loPI   C2B 2398  10.301   0.591   8.485 -0.1614  0.1502  0.1643
  150loPI   C3B 2399  10.202   0.479   7.996 -0.1043  0.1161 -0.1928
  150loPI   C4B 2400  10.286   0.400   7.650 -0.1385 -0.2429  0.3326
  151loPI    C1 2401  13.513  18.038   9.794  0.0277  0.2424 -0.0369
  151loPI    C2 2402  13.772  17.850  10.033 -0.0912  0.1672  0.0337
  151loPI    C3 2403  13.799  18.246   9.981  0.0698  0.1526 -0.0009
  151loPI   PO4 2404  13.565  17.856   9.502 -0.0091  0.0637 -0.0134
  151loPI   GL1 2405  13.727  17.730   9.091 -0.0067  0.1159  0.0551
  151loPI   GL2 2406  13.355  17.748   9.053 -0.1021 -0.1457  0.2258
  151loPI   C1A 2407  13.851  17.447   8.708 -0.2263  0.0205  0.3409
  151loPI   C2A 2408  13.780  17.296   8.337 -0.2592  0.1077  0.0698
  151loPI   C3A 2409  13.611  17.035   7.987  0.1408  0.0362 -0.1514
  151loPI   C4A 2410  13.586  17.114   7.594  0.1814 -0.2356 -0.0534
  151loPI   C5A 2411  13.197  17.029   7.413  0.3058  0.1585  0.2143
  151loPI   C6A 2412  13.033  17.230   7.042  0.0267 -0.3954 -0.0105
  151loPI   C1B 2413  13.336  17.690   8.613  0.1488 -0.1247  0.0552
  151loPI   C2B 2414  13.213  17.850   8.162 -0.0974 -0.0809 -0.2375
  151loPI   C3B 2415  12.989  18.150   7.856  0.3505  0.3730 -0.0666
  151loPI   C4B 2416  12.801  18.269   7.563  0.3477 -0.0343  0.1434
  152loPI    C1 2417   2.709  19.579   9.354  0.2819 -0.0489 -0.3153
  152loPI    C2 2418   2.939  19.291   9.509  0.4098  0.1618 -0.1064
  152loPI    C3 2419   2.891  19.636   9.706 -0.0139  0.1566 -0.1905
  152loPI   PO4 2420   2.781  19.567   9.103 -0.1341 -0.0366  0.2760
  152loPI   GL1 2421   2.637  19.542   8.707  0.1243 -0.0121 -0.0104
  152loPI   GL2 2422   2.425  19.785   8.801 -0.0724 -0.1134  0.1290
  152loPI   C1A 2423   2.852  19.949   8.546 -0.0674 -0.0697  0.0886
  152loPI   C2A 2424   3.054  20.252   8.229  0.0730 -0.2457 -0.1588
  152loPI   C3A 2425   2.987  20.276   7.784  0.0361  0.1373  0.0186
  152loPI   C4A 2426   2.849  20.403   7.279 -0.0086 -0.0796 -0.1294
  152loPI   C5A 2427   2.658  20.515   6.836  0.0179  0.1966 -0.3950
  152loPI   C6A 2428   2.545  20.975   6.848  0.2227  0.2758  0.0230
  152loPI   C1B 2429   2.210  19.723   8.391  0.0369  0.0418  0.0843
  152loPI   C2B 2430   2.135  19.555   7.927 -0.1941  0.1841  0.2352
  152loPI   C3B 2431   1.972  19.520   7.601 -0.0368  0.2385 -0.2204
  152loPI   C4B 2432   1.707  19.803   7.440 -0.0271 -0.2492  0.0802
  153loPI    C1 2433  13.234   5.602   9.400  0.3569 -0.3436  0.0678
  153loPI    C2 2434  13.267   5.628   9.002 -0.1115  0.0507  0.0459
  153loPI    C3 2435  13.512   5.840   9.237 -0.1907  0.2447 -0.0446
  153loPI   PO4 2436  12.917   5.465   9.368  0.3380 -0.1892  0.3901
  153loPI   GL1 2437  12.767   5.459   8.977 -0.0579 -0.2564  0.1739
  153loPI   GL2 2438  12.755   5.750   8.810 -0.1273 -0.2598 -0.0124
  153loPI   C1A 2439  12.812   5.238   8.643 -0.1417 -0.0797 -0.2066
  153loPI   C2A 2440  12.812   5.007   8.261 -0.0803  0.1257 -0.0904
  153loPI   C3A 2441  12.778   5.293   7.856  0.3362 -0.0051 -0.2237
  153loPI   C4A 2442  12.491   5.234   7.605 -0.5129  0.1038  0.0431
  153loPI   C5A 2443  12.530   5.218   7.154 -0.0209  0.2747 -0.1327
  153loPI   C6A 2444  12.606   4.919   6.817  0.0258 -0.2537  0.0161
  153loPI   C1B 2445  12.822   5.618   8.297 -0.0534  0.3703 -0.2494
  153loPI   C2B 2446  12.461   5.748   7.956 -0.0036  0.0213 -0.0915
  153loPI   C3B 2447  12.280   5.805   7.470  0.2607 -0.2237 -0.3116
  153loPI   C4B 2448  11.924   5.941   7.212  0.3990 -0.3162 -0.0577
  154loPI    C1 2449   4.162  13.055   9.727  0.1215 -0.3371  0.0612
  154loPI    C2 2450   3.940  13.338   9.903  0.0973 -0.1694 -0.2328
  154loPI    C3 2451   4.253  13.180  10.096 -0.0800 -0.1729  0.0569
  154loPI   PO4 2452   4.158  13.205   9.446 -0.1518  0.0174 -0.3993
  154loPI   GL1 2453   4.083  13.124   9.055  0.1767  0.0095 -0.0453
  154loPI   GL2 2454   3.866  13.383   9.068 -0.2781  0.0478  0.2002
  154loPI   C1A 2455   4.250  12.989   8.657  0.0812 -0.3331  0.2648
  154loPI   C2A 2456   4.243  12.827   8.187  0.0171  0.1522 -0.0187
  154loPI   C3A 2457   4.062  12.798   7.756  0.0372  0.2850 -0.1888
  154loPI   C4A 2458   4.119  12.542   7.389 -0.2500  0.3259  0.2146
  154loPI   C5A 2459   4.327  12.131   7.252 -0.2233  0.0521  0.1696
  154loPI   C6A 2460   4.552  11.748   6.958 -0.2358  0.2891  0.2277
  154loPI   C1B 2461   3.763  13.333   8.652 -0.0068  0.0589 -0.0197
  154loPI   C2B 2462   3.748  13.157   8.228 -0.1751  0.1117 -0.1274
  154loPI   C3B 2463   3.604  12.846   7.872  0.1554 -0.3129  0.1336
  154loPI   C4B 2464   3.549  12.512   7.722  0.0144  0.0159 -0.0760
  155loPI    C1 2465   7.038  13.532   9.918 -0.0500 -0.2800  0.0765
  155loPI    C2 2466   7.193  13.164   9.946  0.2082 -0.1853 -0.0697
  155loPI    C3 2467   7.296  13.445  10.211  0.2454 -0.1360 -0.1364
  155loPI   PO4 2468   6.898  13.546   9.750  0.2442 -0.0738  0.4407
  155loPI   GL1 2469   6.721  13.653   9.381 -0.2762 -0.0140  0.0337
  155loPI   GL2 2470   6.976  13.566   9.223 -0.2793  0.2535 -0.1462
  155loPI   C1A 2471   6.502  13.521   8.998  0.1321 -0.1151 -0.1045
  155loPI   C2A 2472   6.461  13.698   8.591  0.0999 -0.3791  0.0141
  155loPI   C3A 2473   6.432  13.809   8.116  0.2689 -0.0342  0.3787
  155loPI   C4A 2474   6.300  13.738   7.698  0.1737  0.3029 -0.0601
  155loPI   C5A 2475   6.157  13.860   7.308 -0.1405  0.0492  0.0361
  155loPI   C6A 2476   6.314  14.286   7.265  0.1391  0.4519  0.2280
  155loPI   C1B 2477   6.858  13.814   8.906 -0.2377 -0.3357  0.0022
  155loPI   C2B 2478   7.114  13.846   8.564  0.1270 -0.1207 -0.2400
  155loPI   C3B 2479   7.076  13.948   8.113  0.0025  0.0331  0.0389
  155loPI   C4B 2480   7.096  14.092   7.606 -0.1742  0.3310 -0.1012
  156loPI    C1 2481  19.651   0.978   9.632  0.1825 -0.1269  0.3168
  156loPI    C2 2482  19.861   0.896   9.301 -0.2853 -0.0071 -0.0206
  156loPI    C3 2483  19.860   1.267   9.451 -0.1425 -0.0417  0.0684
  156loPI   PO4 2484  19.370   0.850   9.521 -0.1020  0.2816 -0.1755
  156loPI   GL1 2485  19.136   0.608   9.162  0.0749 -0.2676 -0.1098
  156loPI   GL2 2486  18.989   0.332   8.984  0.0103 -0.1929 -0.4283
  156loPI   C1A 2487  19.048   0.923   8.875  0.1590 -0.3999  0.1516
  156loPI   C2A 2488  19.244   0.968   8.420 -0.1824 -0.2275 -0.2245
  156loPI   C3A 2489  19.415   1.350   8.187 -0.2082  0.2696 -0.0811
  156loPI   C4A 2490  19.449   1.416   7.734  0.1212 -0.0969  0.4303
  156loPI   C5A 2491  19.429   1.403   7.263  0.0519 -0.0518 -0.1985
  156loPI   C6A 2492  19.685   1.144   7.012  0.0544  0.1191 -0.2286
  156loPI   C1B 2493  19.074   0.063   8.621 -0.2822 -0.5327 -0.2187
  156loPI   C2B 2494  19.162   0.343   8.253 -0.0033  0.3629  0.1253
  156loPI   C3B 2495  18.823   0.559   8.054  0.0632 -0.2107  0.1271
  156loPI   C4B 2496  18.938   0.638   7.552  0.2140 -0.0212 -0.0659
  157loPI    C1 2497  10.306  13.706   9.751 -0.1080 -0.0642  0.1476
  157loPI    C2 2498  10.351  14.078   9.892  0.1068 -0.0014 -0.0797
  157loPI    C3 2499  10.494  13.766  10.099 -0.2447  0.0216  0.2078
  157loPI   PO4 2500  10.356  13.620   9.417 -0.3301 -0.2858  0.1130
  157loPI   GL1 2501  10.421  13.559   8.993  0.2365 -0.1479 -0.2529
  157loPI   GL2 2502  10.139  13.670   8.746  0.1060  0.0171 -0.0964
  157loPI   C1A 2503  10.680  13.580   8.711  0.0786  0.1131 -0.2753
  157loPI   C2A 2504  10.813  13.625   8.379  0.1264 -0.1983  0.0066
  157loPI   C3A 2505  10.900  13.602   7.899  0.2161  0.1402 -0.0394
  157loPI   C4A 2506  10.824  13.306   7.584  0.1105 -0.1116  0.1625
  157loPI   C5A 2507  11.024  13.300   7.270  0.0884 -0.0810  0.2126
  157loPI   C6A 2508  11.443  13.374   7.092 -0.2207 -0.0693  0.0629
  157loPI   C1B 2509  10.130  13.840   8.295 -0.1521  0.0298  0.1395
  157loPI   C2B 2510  10.083  13.980   7.834  0.2092  0.2901  0.1975
  157loPI   C3B 2511  10.198  13.965   7.423  0.2648 -0.1448 -0.3478
  157loPI   C4B 2512   9.833  13.729   7.239 -0.1464  0.2841  0.2545
  158loPI    C1 2513  12.513   0.665   9.765 -0.0083 -0.0579 -0.1425
  158loPI    C2 2514  12.869   0.733   9.594 -0.0085 -0.1459 -0.1786
  158loPI    C3 2515  12.833   0.740   9.993  0.0002  0.0215 -0.1805
  158loPI   PO4 2516  12.391   0.645   9.486  0.0974  0.0560 -0.1040
  158loPI   GL1 2517  12.152   0.940   9.142 -0.3584 -0.0654  0.3919
  158loPI   GL2 2518  12.020   1.211   9.165 -0.0928  0.1799 -0.0278
  158loPI   C1A 2519  12.259   0.887   8.635 -0.4063 -0.1178 -0.1553
  158loPI   C2A 2520  12.151   0.477   8.478  0.0408  0.2572 -0.0120
  158loPI   C3A 2521  12.344   0.392   8.033  0.1411  0.3344 -0.2099
  158loPI   C4A 2522  12.040   0.217   7.707 -0.1307 -0.1451 -0.2346
  158loPI   C5A 2523  11.902  -0.163   7.521  0.0879 -0.0767 -0.1554
  158loPI   C6A 2524  12.068  -0.489   7.242  0.1107 -0.0335 -0.0114
  158loPI   C1B 2525  11.765   0.940   8.843 -0.1295  0.1331 -0.1871
  158loPI   C2B 2526  11.705   0.822   8.461  0.1813 -0.4041  0.1048
  158loPI   C3B 2527  12.037   0.803   8.136  0.1408 -0.1271  0.2100
  158loPI   C4B 2528  12.107   0.703   7.717 -0.2192  0.1777  0.1727
  159loPI    C1 2529   9.284  16.780   9.819  0.1949 -0.1438  0.2042
  159loPI    C2 2530   9.017  16.644  10.084  0.2736 -0.1525  0.2793
  159loPI    C3 2531   9.100  17.034  10.068 -0.1435 -0.0710 -0.1102
  159loPI   PO4 2532   9.205  16.681   9.574 -0.0440 -0.0754 -0.1061
  159loPI   GL1 2533   9.205  16.828   9.164 -0.2292  0.0485 -0.0362
  159loPI   GL2 2534   9.485  16.801   9.031  0.0318  0.1090  0.2559
  159loPI   C1A 2535   8.996  16.960   8.741 -0.0899 -0.0315 -0.2701
  159loPI   C2A 2536   8.875  16.942   8.353  0.0688  0.0764  0.0170
  159loPI   C3A 2537   8.810  17.025   7.815  0.1676  0.2068 -0.3573
  159loPI   C4A 2538   8.736  16.932   7.270 -0.0881  0.0636 -0.0636
  159loPI   C5A 2539   8.666  17.055   6.991  0.0142 -0.1176  0.1704
  159loPI   C6A 2540   8.491  16.971   6.646 -0.1699  0.0917 -0.0576
  159loPI   C1B 2541   9.207  16.502   8.724  0.0782  0.2792  0.0823
  159loPI   C2B 2542   9.189  16.500   8.323  0.2007 -0.2255 -0.0375
  159loPI   C3B 2543   9.090  16.639   8.003  0.1451 -0.2912  0.0185
  159loPI   C4B 2544   9.304  16.791   7.625  0.0950  0.1589  0.1575
  160loPI    C1 2545  13.745   5.379   9.289  0.0098 -0.1460  0.1133
  160loPI    C2 2546  13.969   5.125   9.502  0.0790 -0.0587  0.1449
  160loPI    C3 2547  13.815   5.450   9.676  0.1677  0.0335  0.0532
  160loPI   PO4 2548  13.702   5.330   9.044 -0.1207 -0.1969 -0.1193
  160loPI   GL1 2549  13.899   5.374   8.733 -0.0488 -0.3061 -0.0708
  160loPI   GL2 2550  14.050   5.094   8.675  0.3579  0.0508 -0.2635
  160loPI   C1A 2551  14.063   5.593   8.329  0.0999  0.3499 -0.0364
  160loPI   C2A 2552  14.354   5.655   8.145  0.1106 -0.3573 -0.1867
  160loPI   C3A 2553  14.420   5.716   7.692  0.0163 -0.0704  0.5025
  160loPI   C4A 2554  14.584   5.495   7.366  0.2258  0.0918  0.0469
  160loPI   C5A 2555  14.604   5.274   7.007 -0.3256 -0.0787 -0.0762
  160loPI   C6A 2556  14.694   4.984   6.731  0.0888  0.4882  0.3243
  160loPI   C1B 2557  14.185   5.000   8.185 -0.0186 -0.1668 -0.2769
  160loPI   C2B 2558  14.246   4.870   7.799  0.0080  0.4446 -0.1180
  160loPI   C3B 2559  14.350   4.907   7.318 -0.2371  0.1622 -0.0022
  160loPI   C4B 2560  14.053   4.612   6.960 -0.2569 -0.1336  0.2291
  161loPI    C1 2561  19.075   2.359   9.811 -0.1190  0.0804  0.0489
  161loPI    C2 2562  19.371   2.255   9.564 -0.1056 -0.1092  0.1425
  161loPI    C3 2563  19.451   2.346   9.945 -0.1213  0.2211  0.0703
  161loPI   PO4 2564  18.832   2.212   9.605  0.3529  0.1851  0.1539
  161loPI   GL1 2565  18.677   2.103   9.240  0.2118  0.1325 -0.1767
  161loPI   GL2 2566  18.591   2.420   9.188  0.1182 -0.3387 -0.2007
  161loPI   C1A 2567  18.409   1.954   8.890  0.4490 -0.0285 -0.3487
  161loPI   C2A 2568  18.389   2.062   8.412 -0.2260 -0.1932  0.2716
  161loPI   C3A 2569  18.386   1.864   7.990  0.1440  0.1779  0.1074
  161loPI   C4A 2570  18.441   1.865   7.591 -0.1365 -0.1546  0.0973
  161loPI   C5A 2571  18.736   1.612   7.267 -0.0854  0.0034 -0.1478
  161loPI   C6A 2572  19.023   1.453   7.491  0.3718  0.0770 -0.0403
  161loPI   C1B 2573  18.679   2.299   8.757 -0.0543 -0.1785  0.0402
  161loPI   C2B 2574  18.788   2.406   8.296  0.0556 -0.0627  0.0314
  161loPI   C3B 2575  18.702   2.307   7.846 -0.0695 -0.1799  0.0842
  161loPI   C4B 2576  18.655   2.251   7.373 -0.1390 -0.0802 -0.0407
  162loPI    C1 2577   0.773   0.834   9.515  0.2289 -0.2492 -0.1471
  162loPI    C2 2578   1.085   1.041   9.654  0.1348 -0.0702 -0.1992
  162loPI    C3 2579   0.818   0.888   9.909 -0.0106  0.2148 -0.1760
  162loPI   PO4 2580   0.913   0.554   9.228 -0.0949 -0.0947 -0.0611
  162loPI   GL1 2581   1.042   0.462   8.883  0.3124  0.1494 -0.0862
  162loPI   GL2 2582   1.308   0.352   9.038  0.0408 -0.0234 -0.3074
  162loPI   C1A 2583   1.075   0.327   8.499  0.3427 -0.1290 -0.3286
  162loPI   C2A 2584   1.248   0.390   8.085 -0.1538 -0.2061  0.2177
  162loPI   C3A 2585   1.330   0.227   7.618  0.1951 -0.0104  0.1850
  162loPI   C4A 2586   1.516   0.387   7.298 -0.2115  0.1180 -0.0419
  162loPI   C5A 2587   1.592   0.632   6.863  0.1148 -0.2573  0.2516
  162loPI   C6A 2588   1.743   1.022   6.694  0.2300  0.0050 -0.1167
  162loPI   C1B 2589   1.393   0.052   8.744  0.2015  0.3571 -0.3005
  162loPI   C2B 2590   1.307  -0.229   8.341 -0.0002  0.0333 -0.3384
  162loPI   C3B 2591   1.096  -0.106   7.889 -0.0712  0.2105  0.3164
  162loPI   C4B 2592   0.860   0.229   7.911 -0.2188 -0.1695  0.2300
  163loPI    C1 2593   2.500   5.029   9.651  0.2392  0.0473 -0.1728
  163loPI    C2 2594   2.468   5.277   9.963  0.1121 -0.0990 -0.0681
  163loPI    C3 2595   2.773   5.019   9.943  0.0189 -0.2179  0.0296
  163loPI   PO4 2596   2.502   5.221   9.410  0.1224  0.1758 -0.1655
  163loPI   GL1 2597   2.747   5.448   9.078  0.0834 -0.1963 -0.3095
  163loPI   GL2 2598   2.935   5.222   9.034  0.0104  0.1234 -0.2011
  163loPI   C1A 2599   2.591   5.154   8.728 -0.2351 -0.1628  0.3069
  163loPI   C2A 2600   2.714   5.027   8.404 -0.1361 -0.0392  0.0305
  163loPI   C3A 2601   2.839   4.979   8.002  0.4286 -0.1118 -0.0038
  163loPI   C4A 2602   3.122   4.983   7.835  0.0822  0.1237 -0.0932
  163loPI   C5A 2603   3.505   4.677   7.774  0.2008  0.0066 -0.0090
  163loPI   C6A 2604   3.539   4.477   7.347 -0.0117  0.0792 -0.2869
  163loPI   C1B 2605   3.088   5.271   8.662  0.3068  0.1200  0.1860
  163loPI   C2B 2606   3.216   5.071   8.344  0.0910 -0.0775 -0.1968
  163loPI   C3B 2607   3.512   4.897   8.255  0.0203 -0.0165 -0.1383
  163loPI   C4B 2608   3.685   4.468   8.357 -0.0749  0.2363 -0.0473
  164loPI    C1 2609   9.925   6.628   9.209 -0.0810 -0.1962 -0.0154
  164loPI    C2 2610  10.172   6.860   9.422 -0.0805 -0.0594 -0.1634
  164loPI    C3 2611   9.800   6.792   9.551 -0.1147  0.1090 -0.1701
  164loPI   PO4 2612  10.031   6.712   8.922  0.0303  0.3545  0.1159
  164loPI   GL1 2613   9.880   7.029   8.659 -0.3774  0.1882  0.2106
  164loPI   GL2 2614  10.157   7.119   8.665 -0.0260 -0.2686 -0.3171
  164loPI   C1A 2615   9.749   7.287   8.365 -0.1981  0.0521 -0.0530
  164loPI   C2A 2616   9.677   7.678   8.404  0.0419 -0.0780  0.0530
  164loPI   C3A 2617   9.719   8.233   8.417 -0.0311  0.0181  0.0614
  164loPI   C4A 2618   9.763   8.475   8.091 -0.2370 -0.0925 -0.1814
  164loPI   C5A 2619   9.768   8.683   7.662 -0.0157  0.0185 -0.1594
  164loPI   C6A 2620   9.579   8.908   7.319  0.2169  0.0687 -0.1815
  164loPI   C1B 2621  10.304   6.921   8.293 -0.0027  0.0308  0.1036
  164loPI   C2B 2622  10.496   6.966   7.882  0.0805 -0.0689  0.0191
  164loPI   C3B 2623  10.704   7.171   7.719 -0.1503 -0.0171  0.0038
  164loPI   C4B 2624  10.918   7.115   7.258 -0.1740 -0.0261  0.0705
  165loPI    C1 2625   5.753  11.375   9.910  0.1655 -0.1217 -0.0950
  165loPI    C2 2626   5.957  11.639  10.130 -0.0161 -0.0237 -0.0416
  165loPI    C3 2627   5.649  11.440  10.290  0.0339 -0.1681 -0.1223
  165loPI   PO4 2628   5.836  11.553   9.623 -0.0013  0.4345  0.2676
  165loPI   GL1 2629   5.922  11.535   9.119  0.2539 -0.0618  0.1705
  165loPI   GL2 2630   6.069  11.815   9.263 -0.0153  0.0267 -0.0547
  165loPI   C1A 2631   5.960  11.554   8.703  0.0244  0.0454  0.1661
  165loPI   C2A 2632   5.980  11.395   8.319 -0.1040 -0.1771 -0.1686
  165loPI   C3A 2633   5.950  11.393   7.821  0.0293  0.2132  0.2712
  165loPI   C4A 2634   6.099  11.646   7.494  0.0194 -0.2195  0.0219
  165loPI   C5A 2635   6.102  11.835   7.005  0.2184  0.0608 -0.1803
  165loPI   C6A 2636   6.165  11.784   6.563 -0.1401  0.1162 -0.1291
  165loPI   C1B 2637   5.770  12.005   8.948  0.1413 -0.0358 -0.2518
  165loPI   C2B 2638   5.390  12.094   8.874  0.3104 -0.3025  0.0265
  165loPI   C3B 2639   5.131  12.182   8.546  0.0340  0.1455  0.1764
  165loPI   C4B 2640   4.932  12.289   8.105 -0.1811 -0.1295  0.0189
  166loPI    C1 2641   3.988  12.670  10.021  0.1513  0.2276  0.1261
  166loPI    C2 2642   3.946  12.518  10.389  0.0810 -0.3220 -0.0995
  166loPI    C3 2643   3.639  12.509  10.133  0.1980 -0.1506 -0.2479
  166loPI   PO4 2644   4.350  12.677  10.047 -0.2816 -0.0859  0.1274
  166loPI   GL1 2645   4.506  12.605   9.563  0.1939  0.0468  0.2066
  166loPI   GL2 2646   4.150  12.634   9.411  0.1258  0.3268  0.1901
  166loPI   C1A 2647   4.564  12.262   9.227 -0.0317  0.1181 -0.1231
  166loPI   C2A 2648   4.661  12.113   8.764  0.0675 -0.3764 -0.1639
  166loPI   C3A 2649   4.642  11.857   8.372 -0.0392 -0.0959 -0.2702
  166loPI   C4A 2650   4.672  11.881   7.925 -0.1839  0.1918  0.0118
  166loPI   C5A 2651   4.719  11.881   7.559 -0.2206  0.0038  0.0118
  166loPI   C6A 2652   5.119  11.788   7.346 -0.1624 -0.0956 -0.1857
  166loPI   C1B 2653   4.192  12.610   9.025 -0.2364  0.1206  0.0002
  166loPI   C2B 2654   4.336  12.494   8.574 -0.1292 -0.1351 -0.1929
  166loPI   C3B 2655   4.411  12.350   8.229  0.2750 -0.0269 -0.1831
  166loPI   C4B 2656   4.415  12.323   7.734  0.1896 -0.1239  0.2828
  167loPI    C1 2657   8.437   1.245   9.612  0.1113  0.1708 -0.1764
  167loPI    C2 2658   8.270   1.584   9.742 -0.2123 -0.1093  0.1647
  167loPI    C3 2659   8.454   1.340  10.000 -0.0741 -0.2466 -0.0600
  167loPI   PO4 2660   8.535   1.320   9.300  0.1845  0.0160  0.1175
  167loPI   GL1 2661   8.459   1.229   8.888  0.2107 -0.1695  0.0374
  167loPI   GL2 2662   8.678   1.484   8.821  0.1466  0.1468  0.1392
  167loPI   C1A 2663   8.635   1.042   8.470  0.3071 -0.0120  0.0728
  167loPI   C2A 2664   8.924   1.018   8.118 -0.1207  0.1248 -0.0594
  167loPI   C3A 2665   8.900   1.022   7.728  0.0722  0.1783  0.0526
  167loPI   C4A 2666   8.527   0.976   7.375 -0.5718 -0.1066 -0.0402
  167loPI   C5A 2667   8.300   1.068   7.025 -0.3441 -0.2724  0.2128
  167loPI   C6A 2668   8.218   1.296   6.673 -0.2696  0.0211  0.1320
  167loPI   C1B 2669   8.298   1.422   8.436  0.1833  0.1074 -0.1284
  167loPI   C2B 2670   8.016   1.212   8.237 -0.0009  0.0074 -0.1465
  167loPI   C3B 2671   7.958   1.047   7.820  0.3510  0.1369 -0.2568
  167loPI   C4B 2672   7.996   0.908   7.409  0.0586 -0.2214 -0.2550
  168loPI    C1 2673  13.091  12.697   9.346 -0.0829 -0.0773  0.0609
  168loPI    C2 2674  13.034  12.960   9.050 -0.0116 -0.2332 -0.0925
  168loPI    C3 2675  13.401  12.903   9.199 -0.0452 -0.1646  0.0171
  168loPI   PO4 2676  12.921  12.850   9.482 -0.1283 -0.2031  0.0492
  168loPI   GL1 2677  12.776  13.208   9.332 -0.2550 -0.4670  0.0735
  168loPI   GL2 2678  12.720  13.548   9.256 -0.0618 -0.4891  0.0302
  168loPI   C1A 2679  12.637  13.158   8.924 -0.0577  0.0844  0.0332
  168loPI   C2A 2680  12.750  12.877   8.594  0.1576 -0.3534  0.2281
  168loPI   C3A 2681  12.677  12.551   8.409  0.0952  0.0611  0.2471
  168loPI   C4A 2682  12.754  12.276   7.999  0.1060 -0.1045  0.2234
  168loPI   C5A 2683  12.797  12.342   7.576 -0.0650 -0.5085  0.3559
  168loPI   C6A 2684  12.713  12.051   7.121 -0.1976  0.1662  0.0394
  168loPI   C1B 2685  12.988  13.890   9.058  0.1730  0.2991 -0.0940
  168loPI   C2B 2686  13.305  14.181   8.760  0.3255  0.2808  0.3076
  168loPI   C3B 2687  13.339  14.153   8.394  0.3462  0.0711 -0.0507
  168loPI   C4B 2688  13.603  13.932   8.049  0.4922 -0.2445  0.2520
  169loPI    C1 2689  17.801  13.952   9.461  0.0738  0.0559  0.0959
  169loPI    C2 2690  17.434  13.877   9.600  0.0133 -0.1016 -0.1432
  169loPI    C3 2691  17.695  13.578   9.553  0.1451 -0.0019 -0.0530
  169loPI   PO4 2692  17.798  14.064   9.247  0.1869 -0.1616 -0.0125
  169loPI   GL1 2693  17.725  14.091   8.827 -0.0239  0.4393 -0.2411
  169loPI   GL2 2694  17.968  14.350   8.748 -0.0057 -0.2670 -0.0287
  169loPI   C1A 2695  17.819  13.966   8.383  0.0428  0.3290 -0.0425
  169loPI   C2A 2696  17.877  13.886   7.968 -0.0101 -0.1187 -0.2793
  169loPI   C3A 2697  18.113  14.020   7.552 -0.3781  0.0095  0.1096
  169loPI   C4A 2698  18.075  13.802   7.231  0.0289 -0.0358 -0.2309
  169loPI   C5A 2699  18.038  13.943   6.689  0.1766  0.1639 -0.1208
  169loPI   C6A 2700  17.798  14.175   6.429 -0.3093 -0.0072 -0.1388
  169loPI   C1B 2701  18.101  14.449   8.286 -0.0444  0.0962 -0.3402
  169loPI   C2B 2702  18.142  14.458   7.808  0.2460 -0.2558  0.0837
  169loPI   C3B 2703  18.095  14.438   7.264  0.2648 -0.1883 -0.2240
  169loPI   C4B 2704  17.815  14.319   6.973  0.2314  0.4034 -0.3233
  170loPI    C1 2705   6.475  14.388   9.692 -0.0225 -0.1192  0.0647
  170loPI    C2 2706   6.445  14.747   9.518 -0.2521 -0.1890 -0.0432
  170loPI    C3 2707   6.497  14.721   9.914  0.4220 -0.0254 -0.1089
  170loPI   PO4 2708   6.423  14.231   9.470  0.1712  0.2155  0.3835
  170loPI   GL1 2709   6.135  14.259   9.235  0.0898 -0.0303 -0.1577
  170loPI   GL2 2710   6.155  13.920   8.936 -0.0556 -0.0262  0.0390
  170loPI   C1A 2711   5.751  14.362   8.920  0.0403  0.0094 -0.0611
  170loPI   C2A 2712   5.769  14.313   8.396  0.0342 -0.2799  0.1164
  170loPI   C3A 2713   5.504  14.220   8.053  0.0521 -0.1263 -0.2301
  170loPI   C4A 2714   5.126  14.245   7.988  0.1062 -0.1440  0.0184
  170loPI   C5A 2715   5.121  14.575   8.289 -0.0659 -0.0177 -0.0980
  170loPI   C6A 2716   4.874  14.801   8.504 -0.0221  0.1607  0.1180
  170loPI   C1B 2717   6.115  14.069   8.580 -0.0150 -0.0213  0.1789
  170loPI   C2B 2718   6.035  14.135   7.983  0.4605 -0.1642 -0.0372
  170loPI   C3B 2719   5.872  14.211   7.537  0.2864 -0.1853 -0.2270
  170loPI   C4B 2720   5.865  14.292   7.142  0.0407 -0.2739 -0.1863
  171loPI    C1 2721   8.668  13.343   9.630 -0.1203 -0.0124  0.0249
  171loPI    C2 2722   8.552  13.581   9.930  0.0175  0.1584 -0.0563
  171loPI    C3 2723   8.514  13.185   9.964 -0.1605  0.1877  0.1027
  171loPI   PO4 2724   8.690  13.638   9.392  0.0917 -0.0343  0.2874
  171loPI   GL1 2725   8.768  13.741   8.972 -0.1668  0.0841 -0.1132
  171loPI   GL2 2726   8.403  13.826   8.886  0.0318  0.1571  0.2673
  171loPI   C1A 2727   8.800  13.485   8.578 -0.1667 -0.1755  0.4130
  171loPI   C2A 2728   8.718  13.524   8.161  0.1479 -0.3477 -0.0908
  171loPI   C3A 2729   8.500  13.668   7.746  0.0660 -0.0402  0.0617
  171loPI   C4A 2730   8.355  13.592   7.323 -0.1629  0.1283 -0.1514
  171loPI   C5A 2731   8.259  13.465   6.989  0.0489  0.3329  0.2395
  171loPI   C6A 2732   8.079  13.581   6.590  0.2177 -0.0524 -0.0261
  171loPI   C1B 2733   8.315  13.484   8.599 -0.1838 -0.0389 -0.0274
  171loPI   C2B 2734   8.215  13.196   8.290  0.2878  0.0918  0.0039
  171loPI   C3B 2735   7.895  12.913   8.039 -0.1221  0.0918  0.0577
  171loPI   C4B 2736   7.889  12.767   7.550  0.0538 -0.0808 -0.0677
  172loPI    C1 2737  17.335   4.952   9.303 -0.2500 -0.2863  0.0073
  172loPI    C2 2738  17.469   4.873   9.672 -0.0687 -0.2453 -0.0487
  172loPI    C3 2739  17.215   5.176   9.612 -0.1614 -0.3018  0.0534
  172loPI   PO4 2740  17.443   4.711   9.219 -0.0761 -0.0892 -0.3706
  172loPI   GL1 2741  17.682   4.647   8.883 -0.1772 -0.0040  0.0275
  172loPI   GL2 2742  18.088   4.507   8.992  0.0975 -0.1518  0.0027
  172loPI   C1A 2743  17.873   4.283   8.564 -0.0142 -0.2021  0.0939
  172loPI   C2A 2744  18.039   4.064   8.290  0.0911  0.1076 -0.0890
  172loPI   C3A 2745  18.144   4.093   7.830 -0.0159  0.2244 -0.1673
  172loPI   C4A 2746  18.227   3.901   7.495  0.2754  0.3082  0.0012
  172loPI   C5A 2747  18.063   3.509   7.333 -0.0528 -0.1186  0.2014
  172loPI   C6A 2748  18.047   3.320   6.831 -0.1399  0.0620  0.2383
  172loPI   C1B 2749  18.398   4.262   8.578 -0.0391  0.0855  0.2091
  172loPI   C2B 2750  18.476   4.294   8.176  0.4790 -0.3284 -0.2563
  172loPI   C3B 2751  18.548   4.587   8.033 -0.0933  0.1960 -0.4338
  172loPI   C4B 2752  18.373   4.854   7.766 -0.0602  0.1480 -0.1197
  173loPI    C1 2753   7.070  19.577   9.403 -0.1199 -0.1406 -0.1724
  173loPI    C2 2754   7.024  19.975   9.397 -0.0726 -0.1317  0.0048
  173loPI    C3 2755   7.163  19.794   9.726 -0.2322 -0.3104 -0.0240
  173loPI   PO4 2756   7.198  19.503   9.133  0.0268 -0.0613  0.0165
  173loPI   GL1 2757   7.484  19.511   8.839 -0.1464  0.3088  0.1250
  173loPI   GL2 2758   7.532  19.796   8.765  0.0795  0.1711 -0.2199
  173loPI   C1A 2759   7.342  19.518   8.358 -0.2793 -0.0378  0.3199
  173loPI   C2A 2760   7.271  19.945   8.242  0.1433  0.0712 -0.1595
  173loPI   C3A 2761   7.638  20.104   8.056  0.4584  0.0648  0.1380
  173loPI   C4A 2762   7.863  20.468   8.026  0.3321 -0.3269  0.2513
  173loPI   C5A 2763   8.277  20.511   7.698  0.0344  0.3079  0.1300
  173loPI   C6A 2764   8.300  20.124   7.321  0.0472  0.0418 -0.2624
  173loPI   C1B 2765   7.611  20.118   8.541  0.3195  0.2888 -0.0792
  173loPI   C2B 2766   7.977  20.449   8.568  0.3127 -0.0002 -0.0742
  173loPI   C3B 2767   8.261  20.604   8.336  0.2327 -0.2049 -0.2174
  173loPI   C4B 2768   8.386  20.881   7.994 -0.1187  0.0120  0.1056
  174loPI    C1 2769  10.069   0.446   9.497  0.2615 -0.2119 -0.1156
  174loPI    C2 2770   9.910   0.185   9.755  0.0369 -0.0901 -0.1284
  174loPI    C3 2771  10.071   0.526   9.889 -0.2338  0.0526 -0.1595
  174loPI   PO4 2772   9.891   0.359   9.279 -0.4187  0.1538  0.3633
  174loPI   GL1 2773   9.921   0.405   8.847 -0.2849  0.1258 -0.1224
  174loPI   GL2 2774  10.122   0.074   8.705 -0.0557  0.1164  0.0320
  174loPI   C1A 2775   9.811   0.436   8.468 -0.0482 -0.0447 -0.1145
  174loPI   C2A 2776   9.724   0.469   8.125 -0.2260 -0.0587 -0.0909
  174loPI   C3A 2777   9.772   0.448   7.629 -0.0565  0.0068  0.1088
  174loPI   C4A 2778   9.601   0.582   7.273 -0.3393  0.3804  0.0127
  174loPI   C5A 2779   9.119   0.715   7.085  0.0914 -0.2076 -0.0941
  174loPI   C6A 2780   8.670   0.638   7.059  0.0080  0.2515 -0.0115
  174loPI   C1B 2781  10.166   0.027   8.197 -0.3216 -0.1737 -0.1294
  174loPI   C2B 2782  10.164  -0.330   7.889  0.3677 -0.3034  0.1287
  174loPI   C3B 2783  10.072  -0.521   7.542  0.1005 -0.2043  0.0095
  174loPI   C4B 2784  10.072  -0.395   7.115  0.1618 -0.0116  0.0250
  175loPI    C1 2785   8.565   9.927   9.341 -0.0379 -0.1723 -0.2233
  175loPI    C2 2786   8.756   9.797   9.667 -0.1279  0.0861 -0.0647
  175loPI    C3 2787   8.872   9.673   9.305  0.0581 -0.0991  0.0561
  175loPI   PO4 2788   8.602  10.229   9.387 -0.0069 -0.4216 -0.1227
  175loPI   GL1 2789   8.669  10.509   9.052 -0.1237 -0.3692 -0.1805
  175loPI   GL2 2790   8.922  10.576   8.776 -0.1817 -0.2912  0.1551
  175loPI   C1A 2791   8.461  10.391   8.625 -0.0205  0.0872  0.0501
  175loPI   C2A 2792   8.549  10.572   8.240 -0.0074 -0.3774  0.1592
  175loPI   C3A 2793   8.700  10.663   7.857  0.0618  0.2039  0.2401
  175loPI   C4A 2794   8.812  10.570   7.401 -0.0665  0.0394  0.0826
  175loPI   C5A 2795   8.946  10.643   7.010  0.1252 -0.1820 -0.1712
  175loPI   C6A 2796   9.019  10.758   6.575  0.0853 -0.0589 -0.2150
  175loPI   C1B 2797   8.951  10.823   8.461 -0.0352  0.2357 -0.1353
  175loPI   C2B 2798   9.055  10.961   8.099 -0.5243  0.1995 -0.4308
  175loPI   C3B 2799   9.175  10.991   7.701 -0.1230 -0.2387  0.1357
  175loPI   C4B 2800   9.367  10.760   7.363  0.2281 -0.2090  0.0013
  176loPI    C1 2801  16.824  19.046   9.452 -0.2717 -0.1070 -0.1072
  176loPI    C2 2802  17.095  18.878   9.694  0.0459  0.4286 -0.0767
  176loPI    C3 2803  16.728  18.960   9.830  0.0307  0.1761  0.0389
  176loPI   PO4 2804  16.923  19.178   9.259 -0.0722  0.0574  0.1295
  176loPI   GL1 2805  16.946  19.070   8.925  0.0797 -0.1572  0.1256
  176loPI   GL2 2806  16.690  19.101   8.820  0.2530 -0.2920 -0.0908
  176loPI   C1A 2807  17.107  19.359   8.634 -0.0852 -0.2158  0.1082
  176loPI   C2A 2808  17.094  19.277   8.238  0.2348  0.0041  0.0459
  176loPI   C3A 2809  17.120  19.337   7.786 -0.0158 -0.0107 -0.2136
  176loPI   C4A 2810  16.966  19.360   7.341  0.0209  0.2058  0.1855
  176loPI   C5A 2811  16.535  19.290   7.114  0.1979 -0.0618 -0.0417
  176loPI   C6A 2812  16.343  19.226   6.674  0.1097 -0.2390  0.4334
  176loPI   C1B 2813  16.322  19.025   8.477  0.1221 -0.4341  0.3625
  176loPI   C2B 2814  16.136  19.048   8.070 -0.2608  0.1320 -0.0561
  176loPI   C3B 2815  16.016  19.243   7.645  0.0265 -0.1337  0.0144
  176loPI   C4B 2816  16.126  19.182   7.306  0.0741 -0.1740  0.1282
  177loPI    C1 2817  10.457   4.417   9.363  0.1535 -0.0193  0.0287
  177loPI    C2 2818  10.282   4.348   9.716  0.0280 -0.2876 -0.0835
  177loPI    C3 2819  10.162   4.656   9.491  0.2870  0.0449  0.2214
  177loPI   PO4 2820  10.463   4.164   9.228  0.0974  0.2973 -0.2031
  177loPI   GL1 2821  10.349   4.234   8.797  0.0030  0.0866  0.0158
  177loPI   GL2 2822  10.139   4.251   8.671  0.2852  0.1575 -0.2097
  177loPI   C1A 2823  10.352   3.873   8.480  0.1431  0.1491  0.0273
  177loPI   C2A 2824  10.458   3.878   8.057 -0.0944 -0.1748  0.0801
  177loPI   C3A 2825  10.583   3.886   7.613  0.0280  0.2334 -0.1669
  177loPI   C4A 2826  10.560   3.792   7.141  0.2450 -0.2393 -0.1301
  177loPI   C5A 2827  10.831   4.081   6.892  0.0282 -0.3041 -0.1247
  177loPI   C6A 2828  11.031   4.117   6.477  0.1143  0.1408 -0.2633
  177loPI   C1B 2829  10.107   4.236   8.203 -0.2979 -0.1645  0.0274
  177loPI   C2B 2830  10.396   4.379   7.878  0.1179  0.0910 -0.0652
  177loPI   C3B 2831  10.663   4.347   7.530  0.1574 -0.0296  0.0875
  177loPI   C4B 2832  11.109   4.233   7.328  0.3171 -0.2964  0.1155
  178loPI    C1 2833  10.439  19.681   9.330 -0.1116 -0.1757  0.0553
  178loPI    C2 2834  10.678  19.641   9.648 -0.0489 -0.0682  0.0223
  178loPI    C3 2835  10.290  19.724   9.699  0.0180  0.2289  0.0652
  178loPI   PO4 2836  10.583  19.582   9.141  0.2525 -0.0263  0.0000
  178loPI   GL1 2837  10.682  19.646   8.746  0.1125  0.2584  0.2325
  178loPI   GL2 2838  11.012  19.487   8.749 -0.2602 -0.0663 -0.1942
  178loPI   C1A 2839  10.635  19.967   8.546 -0.1763  0.3262 -0.0765
  178loPI   C2A 2840  10.755  20.091   8.062  0.3587 -0.1875 -0.0786
  178loPI   C3A 2841  10.828  20.107   7.585 -0.0600  0.2365 -0.0042
  178loPI   C4A 2842  11.041  19.958   7.255  0.0166 -0.2726 -0.3038
  178loPI   C5A 2843  11.153  19.929   6.902 -0.0300  0.0007  0.2349
  178loPI   C6A 2844  11.690  19.940   6.634 -0.0492 -0.2981  0.0260
  178loPI   C1B 2845  10.980  19.200   8.358  0.2307 -0.0687  0.4199
  178loPI   C2B 2846  11.019  19.231   7.930 -0.1839  0.0017 -0.0207
  178loPI   C3B 2847  11.026  19.163   7.565 -0.2334 -0.2121 -0.2254
  178loPI   C4B 2848  11.182  19.297   7.145 -0.0812 -0.1362  0.1424
  179loPI    C1 2849   8.654  16.104   9.387  0.0504 -0.0375  0.1745
  179loPI    C2 2850   8.775  16.336   9.690  0.2054 -0.0975  0.1591
  179loPI    C3 2851   9.041  16.195   9.427  0.0769 -0.0790  0.0178
  179loPI   PO4 2852   8.425  16.218   9.238 -0.0375  0.0653  0.0669
  179loPI   GL1 2853   8.346  16.445   8.882  0.3059 -0.0351 -0.2853
  179loPI   GL2 2854   7.974  16.537   9.017  0.1197 -0.0715  0.0856
  179loPI   C1A 2855   8.168  16.581   8.526  0.2555 -0.2703  0.0608
  179loPI   C2A 2856   8.083  16.510   8.174  0.0340 -0.2359  0.1634
  179loPI   C3A 2857   7.902  16.606   7.777  0.1295  0.0545 -0.0347
  179loPI   C4A 2858   7.968  16.385   7.269 -0.0283 -0.0529  0.0116
  179loPI   C5A 2859   7.900  16.366   6.917 -0.3775  0.0244 -0.2044
  179loPI   C6A 2860   7.718  16.184   6.602  0.0521 -0.0272  0.2325
  179loPI   C1B 2861   7.677  16.425   8.580 -0.2550  0.0316 -0.2531
  179loPI   C2B 2862   7.514  16.270   8.200  0.2390 -0.1116  0.0418
  179loPI   C3B 2863   7.486  16.300   7.813  0.1750 -0.3288  0.0650
  179loPI   C4B 2864   7.560  16.495   7.468  0.0457  0.2250 -0.0696
  180loPI    C1 2865  15.798  15.435   9.628  0.2498 -0.1351 -0.0207
  180loPI    C2 2866  15.648  15.121   9.825 -0.0191  0.0602  0.0913
  180loPI    C3 2867  15.983  15.297   9.955  0.0540 -0.0912  0.1102
  180loPI   PO4 2868  15.855  15.326   9.345  0.1037  0.0245 -0.1504
  180loPI   GL1 2869  15.867  15.698   9.048  0.1078  0.0830 -0.0470
  180loPI   GL2 2870  15.806  16.093   8.977  0.1079  0.1350 -0.2049
  180loPI   C1A 2871  15.782  15.375   8.710 -0.0628  0.0658  0.1040
  180loPI   C2A 2872  15.820  15.242   8.248 -0.0955  0.0154 -0.1631
  180loPI   C3A 2873  15.921  15.275   7.883  0.1938  0.0961  0.2899
  180loPI   C4A 2874  16.115  15.297   7.547 -0.3145 -0.3248 -0.1852
  180loPI   C5A 2875  16.118  15.658   7.253 -0.1470 -0.2702 -0.0898
  180loPI   C6A 2876  16.496  15.785   7.065 -0.0094 -0.0518  0.0070
  180loPI   C1B 2877  15.751  16.263   8.599  0.1394 -0.1792 -0.1328
  180loPI   C2B 2878  15.849  16.220   8.190  0.0192 -0.0612  0.1382
  180loPI   C3B 2879  15.741  16.172   7.744 -0.1902  0.1848 -0.1443
  180loPI   C4B 2880  15.702  16.149   7.296  0.2138 -0.3025  0.1765
  181loPI    C1 2881   7.656  11.895   9.699 -0.1367  0.0336 -0.0640
  181loPI    C2 2882   7.579  12.092  10.038 -0.1463 -0.1090  0.0175
  181loPI    C3 2883   7.705  11.713  10.052  0.0789 -0.0414 -0.1308
  181loPI   PO4 2884   7.801  12.011   9.503 -0.2063  0.1226  0.2664
  181loPI   GL1 2885   7.738  11.751   9.173 -0.1118 -0.2295  0.0937
  181loPI   GL2 2886   7.573  12.033   9.058  0.0186 -0.0789 -0.0413
  181loPI   C1A 2887   7.583  11.646   8.813 -0.0523  0.0643  0.2136
  181loPI   C2A 2888   7.627  11.629   8.358  0.1933  0.1038  0.1070
  181loPI   C3A 2889   7.400  11.400   8.121 -0.0064  0.3607 -0.1130
  181loPI   C4A 2890   7.194  11.331   7.755  0.1600  0.0929  0.1940
  181loPI   C5A 2891   6.873  11.041   7.790 -0.1936 -0.0274  0.2277
  181loPI   C6A 2892   6.677  10.755   7.471 -0.1554  0.1543  0.2430
  181loPI   C1B 2893   7.608  12.065   8.552  0.2306 -0.1427 -0.1095
  181loPI   C2B 2894   7.480  12.012   8.097  0.0109  0.1722  0.0582
  181loPI   C3B 2895   7.275  11.842   7.709  0.0077 -0.2427 -0.3094
  181loPI   C4B 2896   7.483  11.601   7.334  0.1085  0.2090 -0.1399
  182loPI    C1 2897   9.343   9.721   9.129 -0.2015  0.0113 -0.0647
  182loPI    C2 2898   9.467  10.100   9.105 -0.1207 -0.0077  0.0430
  182loPI    C3 2899   9.236   9.984   9.410 -0.1558 -0.0423  0.0035
  182loPI   PO4 2900   9.198   9.604   8.917  0.3196  0.0100  0.1170
  182loPI   GL1 2901   9.127   9.613   8.519  0.2365  0.0537  0.0289
  182loPI   GL2 2902   9.488   9.449   8.444 -0.0242  0.0769 -0.0217
  182loPI   C1A 2903   8.854   9.474   8.252 -0.0480  0.2405  0.3794
  182loPI   C2A 2904   8.796   9.643   7.828 -0.2577  0.1196 -0.2999
  182loPI   C3A 2905   8.396   9.715   7.514  0.1336  0.0278 -0.1308
  182loPI   C4A 2906   8.022   9.807   7.227 -0.1620 -0.0770  0.1687
  182loPI   C5A 2907   7.595   9.937   7.015  0.2461 -0.3963 -0.2147
  182loPI   C6A 2908   7.410  10.116   6.590  0.0683 -0.0101 -0.1844
  182loPI   C1B 2909   9.305   9.572   8.019 -0.0434 -0.4002 -0.0211
  182loPI   C2B 2910   9.168   9.731   7.535 -0.0739 -0.2989  0.1660
  182loPI   C3B 2911   8.962   9.573   7.282 -0.0303  0.0930  0.1973
  182loPI   C4B 2912   8.543   9.250   7.457  0.2277 -0.0372 -0.3131
  183loPI    C1 2913  17.342   3.171   9.670 -0.0143 -0.0196 -0.0263
  183loPI    C2 2914  17.365   3.566   9.732  0.1888 -0.0360  0.0095
  183loPI    C3 2915  17.041   3.363   9.851  0.0822  0.1200 -0.0120
  183loPI   PO4 2916  17.352   3.124   9.427 -0.0297  0.0207 -0.1381
  183loPI   GL1 2917  17.486   2.828   9.183 -0.0828 -0.4688  0.0834
  183loPI   GL2 2918  17.247   2.824   9.030 -0.1605  0.0954 -0.1221
  183loPI   C1A 2919  17.437   2.402   8.907 -0.0879 -0.1271 -0.1582
  183loPI   C2A 2920  17.408   2.264   8.456  0.2422 -0.0663  0.4474
  183loPI   C3A 2921  17.194   2.439   8.077  0.1982  0.2202  0.0408
  183loPI   C4A 2922  17.173   2.342   7.651  0.3024 -0.3957  0.1930
  183loPI   C5A 2923  17.236   2.241   7.272  0.1295 -0.1813  0.0998
  183loPI   C6A 2924  17.187   1.927   6.993  0.0608 -0.1490  0.1563
  183loPI   C1B 2925  17.494   2.811   8.625  0.0851  0.1285  0.1167
  183loPI   C2B 2926  17.755   2.671   8.399  0.3022  0.1190 -0.0593
  183loPI   C3B 2927  17.831   2.545   7.963  0.2067  0.2160  0.1930
  183loPI   C4B 2928  17.693   2.396   7.698 -0.1678  0.1797 -0.1725
  184loPI    C1 2929  12.350  14.204   9.816  0.0743  0.1313  0.1684
  184loPI    C2 2930  12.198  13.982  10.112 -0.0449  0.0578  0.0530
  184loPI    C3 2931  12.571  13.917   9.984 -0.0159  0.0462  0.1426
  184loPI   PO4 2932  12.165  14.151   9.559 -0.0834 -0.0148  0.0516
  184loPI   GL1 2933  12.000  13.878   9.190 -0.1235  0.1846 -0.3050
  184loPI   GL2 2934  11.905  14.016   8.966  0.2979 -0.0919  0.0831
  184loPI   C1A 2935  12.403  14.054   8.961  0.2403 -0.3846  0.1092
  184loPI   C2A 2936  12.765  13.971   8.536 -0.1746  0.0131 -0.0984
  184loPI   C3A 2937  12.981  14.031   8.034  0.0710 -0.1868 -0.2998
  184loPI   C4A 2938  13.143  13.810   7.668  0.0064 -0.1182 -0.0119
  184loPI   C5A 2939  13.181  13.335   7.535 -0.0663 -0.1273 -0.1167
  184loPI   C6A 2940  13.300  12.899   7.414 -0.0713  0.1715 -0.2205
  184loPI   C1B 2941  12.146  13.992   8.512  0.1735  0.1084 -0.3561
  184loPI   C2B 2942  12.456  13.929   8.184  0.3946 -0.1794 -0.0001
  184loPI   C3B 2943  12.411  13.966   7.772  0.1097  0.1635 -0.2913
  184loPI   C4B 2944  12.399  13.976   7.375 -0.1669  0.1437  0.0248
  185loPI    C1 2945  18.700  10.527   9.586  0.2048  0.1890  0.0478
  185loPI    C2 2946  18.450  10.712   9.837  0.1469 -0.0413  0.1626
  185loPI    C3 2947  18.566  10.337   9.911  0.3028 -0.0348 -0.0408
  185loPI   PO4 2948  18.913  10.749   9.626 -0.3714  0.1025  0.2502
  185loPI   GL1 2949  19.257  10.645   9.511 -0.0033  0.1240 -0.0935
  185loPI   GL2 2950  19.222  10.368   9.319  0.0602  0.3006 -0.0947
  185loPI   C1A 2951  19.235  10.738   9.044  0.1050 -0.0837  0.1652
  185loPI   C2A 2952  19.261  10.811   8.473 -0.3713 -0.0618 -0.1917
  185loPI   C3A 2953  19.404  10.735   8.115 -0.2013 -0.2041 -0.0648
  185loPI   C4A 2954  19.472  11.027   7.821 -0.4628  0.1939  0.0295
  185loPI   C5A 2955  19.844  11.051   7.563  0.0006  0.0139 -0.1467
  185loPI   C6A 2956  20.153  10.958   7.319 -0.1800 -0.1757 -0.0532
  185loPI   C1B 2957  19.541  10.370   8.890 -0.1959  0.2026  0.2295
  185loPI   C2B 2958  19.513  10.356   8.386 -0.0435 -0.0801 -0.1516
  185loPI   C3B 2959  19.632  10.353   7.911 -0.1779  0.0523  0.1639
  185loPI   C4B 2960  19.521  10.353   7.418  0.1918 -0.1280  0.2231
  186loPI    C1 2961  15.923  11.155   9.129  0.0296  0.0345 -0.0321
  186loPI    C2 2962  15.997  10.762   9.122 -0.3710 -0.0448 -0.0571
  186loPI    C3 2963  15.838  10.930   9.449  0.1618  0.1717  0.1010
  186loPI   PO4 2964  16.060  11.259   8.949  0.1448  0.1770 -0.1405
  186loPI   GL1 2965  16.060  11.414   8.573 -0.2042  0.1199 -0.1609
  186loPI   GL2 2966  16.180  11.664   8.521 -0.1765  0.0275  0.2661
  186loPI   C1A 2967  16.027  11.268   8.212 -0.2203  0.2465 -0.5700
  186loPI   C2A 2968  15.740  10.897   8.023  0.1356  0.1091  0.0923
  186loPI   C3A 2969  15.541  10.921   7.608 -0.2816  0.0335 -0.5599
  186loPI   C4A 2970  15.652  10.794   7.081 -0.2462 -0.0105  0.0397
  186loPI   C5A 2971  16.014  10.830   6.810 -0.2928 -0.1427  0.4071
  186loPI   C6A 2972  16.362  10.778   6.588  0.1029  0.2015 -0.3715
  186loPI   C1B 2973  16.058  11.873   8.090 -0.0730 -0.1346  0.3515
  186loPI   C2B 2974  16.028  11.811   7.734  0.1840 -0.2057 -0.1265
  186loPI   C3B 2975  15.872  11.666   7.484  0.2473  0.0419 -0.3113
  186loPI   C4B 2976  15.904  11.157   7.259  0.3223 -0.0572  0.1180
  187loPI    C1 2977  12.642   4.599   9.303  0.1451 -0.1305 -0.1956
  187loPI    C2 2978  12.693   4.910   9.057 -0.0558  0.1032  0.0514
  187loPI    C3 2979  12.431   4.934   9.357 -0.1297 -0.3351  0.0288
  187loPI   PO4 2980  12.684   4.320   9.063  0.1396 -0.2585  0.0101
  187loPI   GL1 2981  12.781   4.331   8.615  0.1166  0.0009  0.0183
  187loPI   GL2 2982  12.724   4.041   8.592 -0.2924 -0.0466 -0.1782
  187loPI   C1A 2983  12.825   4.512   8.184 -0.1422  0.2672  0.2730
  187loPI   C2A 2984  12.715   4.736   7.709  0.0174  0.1858 -0.1005
  187loPI   C3A 2985  12.775   4.755   7.315  0.2423  0.2139 -0.0912
  187loPI   C4A 2986  12.885   4.516   6.881  0.1608 -0.0868 -0.1263
  187loPI   C5A 2987  12.672   4.325   6.438 -0.0530  0.3267 -0.1931
  187loPI   C6A 2988  12.333   4.364   6.154 -0.2225  0.1658  0.3756
  187loPI   C1B 2989  12.637   4.080   8.124 -0.3114  0.1662  0.3194
  187loPI   C2B 2990  12.832   3.911   7.738 -0.3484 -0.2606  0.0788
  187loPI   C3B 2991  12.873   3.533   7.394  0.1974 -0.2388 -0.0704
  187loPI   C4B 2992  12.991   3.260   7.082 -0.2758 -0.2198  0.4134
  188loPI    C1 2993   8.325   7.705   9.454  0.0088  0.2693  0.0894
  188loPI    C2 2994   8.500   7.951   9.192  0.1811  0.2757  0.2088
  188loPI    C3 2995   8.569   7.994   9.584  0.2343  0.0220  0.2292
  188loPI   PO4 2996   8.273   7.489   9.335 -0.0635  0.3210 -0.1604
  188loPI   GL1 2997   8.341   7.242   8.911  0.2729  0.0382  0.0579
  188loPI   GL2 2998   8.024   7.271   8.941 -0.1976 -0.0439  0.2340
  188loPI   C1A 2999   8.406   7.329   8.581 -0.3517 -0.2037 -0.2978
  188loPI   C2A 3000   8.386   7.219   8.142 -0.2193  0.2157  0.0241
  188loPI   C3A 3001   8.490   7.306   7.714 -0.2726 -0.0309 -0.0447
  188loPI   C4A 3002   8.579   7.337   7.299  0.1296 -0.1666  0.0535
  188loPI   C5A 3003   8.865   7.345   6.930 -0.0028  0.0913  0.2216
  188loPI   C6A 3004   9.150   7.060   6.695 -0.1465 -0.1057 -0.0577
  188loPI   C1B 3005   8.037   7.053   8.586 -0.0289 -0.1695 -0.2603
  188loPI   C2B 3006   7.921   6.908   8.183  0.3327  0.0436  0.2632
  188loPI   C3B 3007   8.022   6.924   7.731  0.1085  0.0267 -0.0434
  188loPI   C4B 3008   8.152   7.053   7.373  0.1326  0.2252  0.1650
  189loPI    C1 3009   8.255  10.468   9.707  0.0622 -0.1202 -0.1505
  189loPI    C2 3010   8.240  10.379  10.096  0.2308 -0.0791 -0.1340
  189loPI    C3 3011   8.584  10.500   9.932  0.2153 -0.3109 -0.3427
  189loPI   PO4 3012   8.132  10.595   9.571  0.2094  0.1614 -0.3296
  189loPI   GL1 3013   8.180  10.703   9.180 -0.0987  0.0339  0.0465
  189loPI   GL2 3014   8.130  10.191   9.278 -0.0387  0.0172 -0.2155
  189loPI   C1A 3015   8.023  10.541   8.848 -0.0934  0.2082 -0.0709
  189loPI   C2A 3016   8.079  10.690   8.416 -0.2021 -0.1868 -0.1100
  189loPI   C3A 3017   8.148  10.795   7.963  0.0790  0.2272  0.0375
  189loPI   C4A 3018   8.165  11.066   7.602  0.0291 -0.1697 -0.1331
  189loPI   C5A 3019   8.050  10.998   7.152 -0.0115 -0.0578 -0.0007
  189loPI   C6A 3020   7.672  10.642   7.140  0.1447 -0.3529 -0.0050
  189loPI   C1B 3021   8.313   9.904   8.893  0.2134 -0.2663 -0.0313
  189loPI   C2B 3022   8.265   9.618   8.574  0.0995 -0.3225  0.2917
  189loPI   C3B 3023   8.122   9.570   8.162 -0.0998 -0.1207  0.0527
  189loPI   C4B 3024   7.957   9.878   7.795  0.1717  0.0924 -0.2343
  190loPI    C1 3025  17.354   0.265   9.691  0.1770 -0.0930  0.0899
  190loPI    C2 3026  17.512  -0.059   9.865  0.0610 -0.0033  0.3676
  190loPI    C3 3027  17.115  -0.020   9.838  0.0771 -0.0630 -0.0130
  190loPI   PO4 3028  17.579   0.292   9.503  0.0885 -0.0182  0.2214
  190loPI   GL1 3029  17.632   0.237   9.135  0.1511  0.1875  0.1856
  190loPI   GL2 3030  17.937   0.200   9.021 -0.1006  0.1272 -0.3172
  190loPI   C1A 3031  17.562   0.231   8.634  0.1264  0.0548 -0.2746
  190loPI   C2A 3032  17.602  -0.049   8.228  0.2272  0.0632 -0.1660
  190loPI   C3A 3033  17.553   0.045   7.866  0.0011  0.0810  0.0948
  190loPI   C4A 3034  17.729   0.200   7.485  0.0967 -0.0180 -0.1082
  190loPI   C5A 3035  17.945   0.509   7.191 -0.2755  0.1036 -0.1841
  190loPI   C6A 3036  18.249   0.765   7.022  0.0903 -0.1880  0.0859
  190loPI   C1B 3037  18.036   0.154   8.693  0.4965 -0.1876  0.0230
  190loPI   C2B 3038  17.995   0.248   8.358  0.2057  0.1012 -0.1739
  190loPI   C3B 3039  18.003   0.380   8.101  0.0563 -0.1463  0.1104
  190loPI   C4B 3040  18.000   0.635   7.748  0.0017 -0.0840 -0.2184
  191loPI    C1 3041  15.663   6.632   9.492 -0.1934  0.1187 -0.0974
  191loPI    C2 3042  15.486   6.950   9.325 -0.0727  0.2547  0.0306
  191loPI    C3 3043  15.533   6.932   9.722 -0.2672 -0.0203  0.0442
  191loPI   PO4 3044  15.604   6.432   9.246  0.3829  0.1062 -0.0053
  191loPI   GL1 3045  15.378   6.569   8.933 -0.0734  0.1748  0.3564
  191loPI   GL2 3046  15.626   6.764   8.873 -0.3376 -0.3195  0.0076
  191loPI   C1A 3047  15.318   6.625   8.494 -0.4831  0.0908 -0.1508
  191loPI   C2A 3048  15.479   6.630   8.094 -0.1734 -0.0014 -0.2894
  191loPI   C3A 3049  15.466   6.668   7.732  0.1300 -0.0044 -0.1794
  191loPI   C4A 3050  15.365   6.580   7.391 -0.1838  0.0015 -0.0889
  191loPI   C5A 3051  15.310   6.229   7.070  0.0433 -0.0540 -0.0546
  191loPI   C6A 3052  15.481   5.992   6.934 -0.0235 -0.1178  0.0747
  191loPI   C1B 3053  15.785   6.741   8.447 -0.2712 -0.1178 -0.4146
  191loPI   C2B 3054  15.993   6.850   8.148  0.1597  0.0934  0.1977
  191loPI   C3B 3055  16.022   7.056   8.024  0.4315  0.0322 -0.2276
  191loPI   C4B 3056  15.988   6.977   7.651  0.1972 -0.1738 -0.1002
  192loPI    C1 3057  19.589   6.130   9.654  0.0621 -0.0714 -0.0198
  192loPI    C2 3058  19.887   6.257   9.419  0.0467 -0.0891 -0.0491
  192loPI    C3 3059  19.847   5.867   9.498 -0.0682 -0.1050 -0.1817
  192loPI   PO4 3060  19.388   6.146   9.479  0.0925 -0.1168 -0.0327
  192loPI   GL1 3061  19.307   6.292   9.176 -0.2775 -0.0196  0.5684
  192loPI   GL2 3062  19.598   6.176   9.004 -0.1073  0.1988  0.1268
  192loPI   C1A 3063  19.181   6.201   8.733  0.2174 -0.0199 -0.0038
  192loPI   C2A 3064  19.134   6.298   8.383  0.3233 -0.0747 -0.0753
  192loPI   C3A 3065  18.877   6.519   8.201 -0.2281  0.1787 -0.1097
  192loPI   C4A 3066  18.609   6.424   7.880 -0.2251  0.4799 -0.1833
  192loPI   C5A 3067  18.492   6.653   7.513 -0.0501  0.0857  0.2539
  192loPI   C6A 3068  18.372   6.956   7.177 -0.2757  0.1257  0.1416
  192loPI   C1B 3069  19.680   6.416   8.635 -0.0200  0.1105  0.2290
  192loPI   C2B 3070  19.605   6.409   8.142 -0.0927 -0.3399  0.0817
  192loPI   C3B 3071  19.721   6.641   7.687 -0.0057  0.0229  0.2203
  192loPI   C4B 3072  19.857   6.645   7.241 -0.0054 -0.1295 -0.1720
  193loPI    C1 3073  15.331  17.611   9.480 -0.1642 -0.0737 -0.2384
  193loPI    C2 3074  15.193  17.913   9.258 -0.2784  0.1656  0.1494
  193loPI    C3 3075  14.945  17.714   9.501 -0.1507 -0.0771  0.0832
  193loPI   PO4 3076  15.451  17.417   9.325 -0.2035 -0.2693  0.0887
  193loPI   GL1 3077  15.311  16.985   9.300 -0.1403 -0.1717  0.2162
  193loPI   GL2 3078  15.445  16.641   9.311 -0.0172 -0.2395  0.1661
  193loPI   C1A 3079  15.336  17.101   8.795 -0.2171  0.2709 -0.0156
  193loPI   C2A 3080  15.166  17.090   8.351 -0.0248  0.1418  0.0090
  193loPI   C3A 3081  15.255  17.300   7.880  0.0113 -0.1166  0.0242
  193loPI   C4A 3082  15.560  17.198   7.524  0.2372 -0.2245 -0.1264
  193loPI   C5A 3083  15.472  16.747   7.187 -0.0052  0.1804  0.1828
  193loPI   C6A 3084  15.291  16.280   7.072 -0.1769  0.1584 -0.2013
  193loPI   C1B 3085  15.684  16.706   8.978  0.2119 -0.0125 -0.0838
  193loPI   C2B 3086  15.555  16.750   8.517 -0.0764 -0.3952  0.1758
  193loPI   C3B 3087  15.436  16.739   8.082  0.1100  0.0989  0.1109
  193loPI   C4B 3088  15.664  16.703   7.716  0.0683  0.1139  0.0149
  194loPI    C1 3089   4.841   0.913   9.725  0.1206 -0.1452  0.3199
  194loPI    C2 3090   5.187   0.723   9.789  0.1439 -0.1092  0.3009
  194loPI    C3 3091   5.064   1.006  10.043  0.1364 -0.1107  0.2988
  194loPI   PO4 3092   4.826   0.855   9.454 -0.0200  0.0052 -0.1566
  194loPI   GL1 3093   4.771   0.758   9.073 -0.2696 -0.0234  0.0253
  194loPI   GL2 3094   4.959   0.989   8.994  0.3304 -0.0099 -0.0605
  194loPI   C1A 3095   4.883   0.597   8.570  0.0084  0.1525  0.2025
  194loPI   C2A 3096   4.762   0.718   8.195  0.3142  0.1303 -0.0446
  194loPI   C3A 3097   4.701   0.734   7.731 -0.0002  0.0708  0.2481
  194loPI   C4A 3098   4.381   0.817   7.391 -0.0596 -0.1926  0.1775
  194loPI   C5A 3099   4.343   0.862   6.947  0.0460  0.0572  0.0458
  194loPI   C6A 3100   4.204   0.829   6.576 -0.0057 -0.3404  0.5301
  194loPI   C1B 3101   5.275   0.921   8.732  0.0954  0.0923  0.1050
  194loPI   C2B 3102   5.442   1.000   8.206  0.0497  0.0877  0.2024
  194loPI   C3B 3103   5.695   1.232   8.143  0.1867  0.1523 -0.1919
  194loPI   C4B 3104   5.654   1.324   8.523 -0.3229  0.0439  0.0869
  195loPI    C1 3105  10.825   9.247   9.653  0.0627  0.1863  0.1229
  195loPI    C2 3106  11.065   8.945   9.757 -0.0754  0.0305 -0.0042
  195loPI    C3 3107  10.669   8.911   9.803 -0.0929  0.1880 -0.0308
  195loPI   PO4 3108  10.891   9.345   9.497  0.0909  0.0109  0.1136
  195loPI   GL1 3109  10.854   9.091   9.167 -0.2029  0.2274  0.4195
  195loPI   GL2 3110  11.049   8.897   9.020  0.1091  0.0058 -0.3159
  195loPI   C1A 3111  10.629   9.154   8.755  0.0779 -0.0260 -0.3696
  195loPI   C2A 3112  10.436   9.275   8.366 -0.1465 -0.1770  0.1117
  195loPI   C3A 3113  10.153   9.169   8.002  0.0047  0.0787  0.0155
  195loPI   C4A 3114  10.036   9.086   7.588  0.0213 -0.3649 -0.1237
  195loPI   C5A 3115  10.153   8.997   7.178  0.0690  0.2742 -0.0302
  195loPI   C6A 3116   9.906   8.734   6.966 -0.1678  0.2657  0.2104
  195loPI   C1B 3117  10.853   8.715   8.603  0.2185  0.1911  0.2474
  195loPI   C2B 3118  10.612   8.608   8.250 -0.2374  0.1065 -0.1299
  195loPI   C3B 3119  10.590   8.424   7.814  0.4074 -0.2373  0.0487
  195loPI   C4B 3120  10.200   8.190   7.699  0.5275 -0.0075  0.0995
  196loPI    C1 3121   3.736  17.637   9.678 -0.0369 -0.1289 -0.0446
  196loPI    C2 3122   3.872  17.350   9.922 -0.0409  0.0773  0.2051
  196loPI    C3 3123   3.478  17.399   9.869 -0.0358 -0.1590 -0.0804
  196loPI   PO4 3124   3.907  17.626   9.515 -0.1116 -0.0711  0.1479
  196loPI   GL1 3125   3.922  17.855   9.145  0.2222 -0.1538  0.3582
  196loPI   GL2 3126   3.602  17.961   9.098 -0.0610  0.1962  0.0883
  196loPI   C1A 3127   4.163  18.082   8.872 -0.0305  0.0183  0.1417
  196loPI   C2A 3128   4.106  18.040   8.403 -0.3119  0.1811 -0.1158
  196loPI   C3A 3129   4.079  17.974   7.972 -0.1038 -0.0944 -0.0282
  196loPI   C4A 3130   4.231  17.940   7.537 -0.0801 -0.1949 -0.2328
  196loPI   C5A 3131   4.416  18.091   7.208  0.0221  0.1632  0.1863
  196loPI   C6A 3132   4.846  18.328   6.909  0.3167  0.0161  0.3411
  196loPI   C1B 3133   3.674  17.845   8.686 -0.1461  0.0692 -0.4719
  196loPI   C2B 3134   3.629  17.944   8.287 -0.0974  0.0130 -0.2435
  196loPI   C3B 3135   3.526  18.193   8.009 -0.2277 -0.3034 -0.0661
  196loPI   C4B 3136   3.741  18.108   7.677 -0.1859  0.0687 -0.1085
  197loPI    C1 3137  13.842  13.081   9.301 -0.1054 -0.2434 -0.2197
  197loPI    C2 3138  14.083  13.400   9.304 -0.1735 -0.1921  0.0520
  197loPI    C3 3139  13.687  13.449   9.325 -0.1994 -0.2850 -0.1865
  197loPI   PO4 3140  13.919  13.010   9.078  0.3785  0.1340  0.0962
  197loPI   GL1 3141  13.752  12.884   8.728 -0.1103 -0.1872  0.3008
  197loPI   GL2 3142  13.881  13.147   8.556  0.0066 -0.0808 -0.1844
  197loPI   C1A 3143  13.612  12.808   8.281  0.1311 -0.1451  0.2406
  197loPI   C2A 3144  13.609  12.897   7.849  0.1028 -0.1105 -0.0206
  197loPI   C3A 3145  13.783  12.930   7.345 -0.1159 -0.0279 -0.2206
  197loPI   C4A 3146  14.192  12.770   7.059 -0.1171  0.3469 -0.0442
  197loPI   C5A 3147  14.648  12.902   7.012 -0.0235  0.1166  0.0460
  197loPI   C6A 3148  15.041  12.848   7.082 -0.0622 -0.0999  0.0618
  197loPI   C1B 3149  13.599  13.292   8.355  0.0511 -0.1264 -0.1342
  197loPI   C2B 3150  13.470  13.443   7.975 -0.1189  0.2316 -0.2595
  197loPI   C3B 3151  13.656  13.552   7.414  0.3036 -0.2769  0.1919
  197loPI   C4B 3152  13.393  13.224   7.086  0.0226  0.0852  0.1872
  198loPI    C1 3153   8.560  11.530   9.619  0.0977 -0.0972  0.1101
  198loPI    C2 3154   8.707  11.331   9.933 -0.1719  0.0161  0.3118
  198loPI    C3 3155   8.769  11.194   9.562  0.1391 -0.1250  0.4129
  198loPI   PO4 3156   8.598  11.777   9.574  0.2102  0.1085 -0.1730
  198loPI   GL1 3157   8.500  12.052   9.251  0.3622 -0.1452  0.4305
  198loPI   GL2 3158   8.278  11.746   9.111 -0.0931 -0.0094  0.5524
  198loPI   C1A 3159   8.581  11.963   8.820  0.0640 -0.1792  0.2577
  198loPI   C2A 3160   8.617  11.825   8.400  0.2901 -0.2867 -0.3659
  198loPI   C3A 3161   8.629  11.757   8.022  0.3275  0.2429 -0.3627
  198loPI   C4A 3162   8.437  11.552   7.706  0.2026 -0.1538 -0.1165
  198loPI   C5A 3163   8.411  11.368   7.264 -0.1792 -0.1948 -0.0216
  198loPI   C6A 3164   8.559  10.955   7.097 -0.1251  0.1301 -0.0082
  198loPI   C1B 3165   8.073  11.471   8.907  0.1769  0.1924 -0.1614
  198loPI   C2B 3166   7.884  11.117   8.661  0.0631  0.1079 -0.0726
  198loPI   C3B 3167   7.704  10.998   8.287  0.2210  0.1245 -0.2128
  198loPI   C4B 3168   7.659  11.195   7.744  0.0234  0.5751 -0.2871
  199loPI    C1 3169  13.134   1.718   9.593  0.0839 -0.2551 -0.1638
  199loPI    C2 3170  13.533   1.745   9.587  0.0717 -0.0875 -0.3386
  199loPI    C3 3171  13.314   2.050   9.725  0.0121 -0.2997  0.0489
  199loPI   PO4 3172  13.103   1.652   9.381 -0.0245 -0.0045  0.0313
  199loPI   GL1 3173  12.956   1.708   8.984 -0.2458 -0.1706 -0.2074
  199loPI   GL2 3174  12.664   1.932   8.903  0.2686  0.2848  0.0250
  199loPI   C1A 3175  12.927   1.566   8.601  0.3955 -0.2356  0.1840
  199loPI   C2A 3176  12.894   1.497   8.176 -0.0395  0.1798  0.2112
  199loPI   C3A 3177  13.008   1.502   7.779 -0.0776  0.3246  0.0400
  199loPI   C4A 3178  12.909   1.739   7.322 -0.3009  0.2282 -0.0105
  199loPI   C5A 3179  12.719   1.950   6.957 -0.0663 -0.2814 -0.3018
  199loPI   C6A 3180  12.574   1.870   6.533  0.1571 -0.3044 -0.0259
  199loPI   C1B 3181  12.482   1.787   8.527  0.1436  0.0892 -0.0559
  199loPI   C2B 3182  12.447   1.715   7.956 -0.1541 -0.0993 -0.0095
  199loPI   C3B 3183  12.532   1.557   7.571 -0.3713  0.1855  0.2305
  199loPI   C4B 3184  12.805   1.243   7.275 -0.2862 -0.1560 -0.3899
  200loPI    C1 3185  18.701  19.495   9.531 -0.1626 -0.1413 -0.0192
  200loPI    C2 3186  18.783  19.742   9.835 -0.0327 -0.0139 -0.1561
  200loPI    C3 3187  18.768  19.347   9.896 -0.1692  0.0216  0.0490
  200loPI   PO4 3188  18.789  19.603   9.239  0.0507 -0.2332 -0.4147
  200loPI   GL1 3189  18.687  19.582   8.852  0.1140 -0.3431  0.0626
  200loPI   GL2 3190  18.987  19.508   8.801 -0.2837  0.1288 -0.0509
  200loPI   C1A 3191  18.509  19.828   8.504  0.1240  0.1160 -0.1769
  200loPI   C2A 3192  18.503  20.072   8.217  0.0702  0.0370  0.1788
  200loPI   C3A 3193  18.396  20.176   7.791  0.1259  0.2051 -0.2131
  200loPI   C4A 3194  18.220  20.001   7.396 -0.1957  0.0018 -0.1095
  200loPI   C5A 3195  18.271  20.066   7.004 -0.1573  0.2751 -0.1075
  200loPI   C6A 3196  18.005  20.328   6.687 -0.1552  0.0012 -0.1844
  200loPI   C1B 3197  18.835  19.467   8.305 -0.0502  0.2810 -0.0208
  200loPI   C2B 3198  18.934  19.392   7.870  0.3547  0.1488  0.0647
  200loPI   C3B 3199  19.033  19.586   7.564  0.1493  0.0741 -0.2315
  200loPI   C4B 3200  19.318  19.817   7.520 -0.0557 -0.0554  0.1105
  201loPI    C1 3201   4.158   5.455   9.284 -0.3938 -0.3109  0.1499
  201loPI    C2 3202   4.260   5.538   9.661  0.1982 -0.0393 -0.0574
  201loPI    C3 3203   4.028   5.791   9.457  0.1557 -0.0173  0.0176
  201loPI   PO4 3204   4.262   5.337   9.138 -0.0641 -0.2081  0.1488
  201loPI   GL1 3205   4.355   5.324   8.637 -0.0692  0.4374 -0.2449
  201loPI   GL2 3206   4.618   5.328   8.595  0.1647  0.5214 -0.1958
  201loPI   C1A 3207   4.364   5.629   8.361  0.2335 -0.3882  0.0992
  201loPI   C2A 3208   4.262   5.839   8.028 -0.0502 -0.2513 -0.0695
  201loPI   C3A 3209   4.331   6.081   7.599 -0.4076 -0.2073  0.0071
  201loPI   C4A 3210   4.119   6.434   7.482  0.1890  0.2515 -0.1781
  201loPI   C5A 3211   4.039   6.801   7.483 -0.1051  0.0191  0.4177
  201loPI   C6A 3212   4.328   6.950   7.113  0.1864 -0.1398  0.0123
  201loPI   C1B 3213   4.471   5.190   8.159  0.2295  0.1235  0.3052
  201loPI   C2B 3214   4.284   5.330   7.702 -0.3588 -0.0911  0.1555
  201loPI   C3B 3215   4.301   5.642   7.308 -0.1789 -0.1674  0.0583
  201loPI   C4B 3216   4.055   5.888   7.035 -0.1778  0.0628  0.1196
  202loPI    C1 3217  16.869  14.391   9.301 -0.0488  0.1404 -0.0337
  202loPI    C2 3218  16.875  14.747   9.482 -0.0065  0.1328 -0.0202
  202loPI    C3 3219  16.529  14.552   9.436 -0.0445  0.2232 -0.1210
  202loPI   PO4 3220  16.845  14.387   8.980 -0.3208  0.1296 -0.1851
  202loPI   GL1 3221  16.574  14.517   8.614 -0.2293 -0.3708  0.1402
  202loPI   GL2 3222  16.605  14.249   8.551 -0.1593 -0.0298 -0.5029
  202loPI   C1A 3223  16.636  14.773   8.378 -0.5619 -0.2515  0.0490
  202loPI   C2A 3224  16.685  14.795   7.864 -0.1412  0.0086  0.1645
  202loPI   C3A 3225  16.585  15.024   7.486 -0.2308  0.0834 -0.2058
  202loPI   C4A 3226  16.738  15.445   7.388 -0.1715 -0.4517 -0.2609
  202loPI   C5A 3227  17.226  15.620   7.330  0.0518 -0.0173  0.1398
  202loPI   C6A 3228  17.416  15.888   7.565  0.0023 -0.0679 -0.3818
  202loPI   C1B 3229  16.909  14.339   8.209 -0.2139 -0.3090  0.1012
  202loPI   C2B 3230  17.143  14.579   7.826  0.1169  0.0214 -0.1921
  202loPI   C3B 3231  17.138  14.898   7.616  0.1444  0.1766  0.0580
  202loPI   C4B 3232  17.037  15.061   7.242 -0.1730  0.2979  0.1844
  203loPI    C1 3233   1.913  11.520  10.017 -0.0591  0.1680 -0.0384
  203loPI    C2 3234   1.643  11.322  10.235  0.1273  0.0298  0.0700
  203loPI    C3 3235   2.024  11.338  10.356  0.1704  0.2159 -0.0860
  203loPI   PO4 3236   1.838  11.349   9.777 -0.3880 -0.1645  0.2303
  203loPI   GL1 3237   1.584  11.683   9.516 -0.4254  0.2216 -0.0094
  203loPI   GL2 3238   1.256  11.822   9.513 -0.1249 -0.3242  0.0132
  203loPI   C1A 3239   1.729  11.671   9.163 -0.2143  0.1292  0.4087
  203loPI   C2A 3240   1.524  11.541   8.757 -0.3137 -0.0621 -0.1687
  203loPI   C3A 3241   1.508  11.543   8.359 -0.2141  0.0703 -0.0140
  203loPI   C4A 3242   1.282  11.762   8.066 -0.1304  0.3666 -0.0231
  203loPI   C5A 3243   1.018  12.061   7.755 -0.0315  0.1480  0.1171
  203loPI   C6A 3244   0.685  12.252   7.508  0.1435  0.2028 -0.0075
  203loPI   C1B 3245   1.142  11.801   9.118  0.2102 -0.4137  0.1295
  203loPI   C2B 3246   1.083  11.690   8.631  0.2161  0.0304  0.0350
  203loPI   C3B 3247   1.015  11.358   8.264 -0.1945 -0.1404  0.1281
  203loPI   C4B 3248   1.051  11.203   7.846 -0.0342  0.0993  0.2146
  204loPI    C1 3249   8.892  18.547   9.879 -0.0206  0.0618  0.1232
  204loPI    C2 3250   8.806  18.345  10.214  0.0648 -0.0608  0.0716
  204loPI    C3 3251   9.178  18.476  10.149  0.0357  0.0121  0.0508
  204loPI   PO4 3252   8.693  18.462   9.715  0.2025  0.1860 -0.0549
  204loPI   GL1 3253   8.422  18.521   9.263 -0.0096  0.1571 -0.1408
  204loPI   GL2 3254   8.713  18.629   9.203 -0.2255  0.3161 -0.0332
  204loPI   C1A 3255   8.322  18.202   8.949 -0.0213 -0.0053 -0.2984
  204loPI   C2A 3256   8.289  18.293   8.543  0.0993  0.0048  0.1916
  204loPI   C3A 3257   8.150  18.220   8.228  0.0155  0.0700 -0.4863
  204loPI   C4A 3258   8.171  18.107   7.822 -0.1001 -0.0165  0.2101
  204loPI   C5A 3259   8.472  17.859   7.487  0.0550 -0.0747 -0.0630
  204loPI   C6A 3260   8.709  17.507   7.407  0.1581  0.0908  0.1145
  204loPI   C1B 3261   8.864  18.358   8.948  0.2457 -0.0792  0.1268
  204loPI   C2B 3262   8.853  18.141   8.623  0.0513 -0.0967  0.1316
  204loPI   C3B 3263   8.987  17.748   8.301  0.0949  0.1021  0.0284
  204loPI   C4B 3264   9.169  17.331   8.119  0.0871  0.1414  0.2578
  205loPI    C1 3265  12.034  10.105   9.383 -0.0273 -0.0369  0.0307
  205loPI    C2 3266  12.262   9.982   9.688 -0.0330 -0.0267  0.0390
  205loPI    C3 3267  11.881  10.085   9.752 -0.0298 -0.0101  0.0311
  205loPI   PO4 3268  12.156  10.188   9.221  0.2444 -0.2138  0.1413
  205loPI   GL1 3269  12.332  10.181   8.761 -0.2443 -0.3666 -0.1974
  205loPI   GL2 3270  12.417  10.090   8.476 -0.0107 -0.3613  0.0428
  205loPI   C1A 3271  11.991  10.364   8.558 -0.1508  0.3285  0.2108
  205loPI   C2A 3272  11.750  10.488   8.132  0.1647 -0.0200 -0.1705
  205loPI   C3A 3273  11.376  10.409   8.040  0.1134  0.3379 -0.0311
  205loPI   C4A 3274  11.060  10.578   7.872  0.1551 -0.0330  0.0819
  205loPI   C5A 3275  10.853  10.869   7.556  0.1604  0.1056 -0.3124
  205loPI   C6A 3276  10.720  10.758   7.155  0.1572 -0.0232 -0.1157
  205loPI   C1B 3277  12.163  10.250   8.107  0.1268  0.1454  0.2795
  205loPI   C2B 3278  11.900  10.276   7.678  0.0835  0.1078 -0.2800
  205loPI   C3B 3279  11.500  10.439   7.398  0.3067 -0.1496 -0.0611
  205loPI   C4B 3280  11.077  10.417   7.227 -0.0124 -0.0642 -0.0266
  206loPI    C1 3281   4.936   7.832   9.757  0.1051 -0.1103 -0.1691
  206loPI    C2 3282   5.259   8.065   9.792 -0.0809  0.1422 -0.1062
  206loPI    C3 3283   5.212   7.752  10.036  0.0180  0.2233  0.0188
  206loPI   PO4 3284   4.873   7.758   9.510 -0.3090 -0.2618 -0.0473
  206loPI   GL1 3285   5.133   7.787   9.153 -0.1086  0.1787  0.0524
  206loPI   GL2 3286   5.358   8.004   9.300  0.0224 -0.1656 -0.1368
  206loPI   C1A 3287   5.411   7.951   8.772 -0.0142  0.1640 -0.3155
  206loPI   C2A 3288   5.620   7.931   8.466 -0.1165 -0.0326  0.1846
  206loPI   C3A 3289   5.730   7.924   8.154  0.3686  0.1544  0.0905
  206loPI   C4A 3290   6.017   7.783   7.989  0.2073 -0.0008 -0.1250
  206loPI   C5A 3291   6.049   7.815   7.599 -0.0592 -0.1521  0.2527
  206loPI   C6A 3292   6.143   7.570   7.339 -0.0571  0.1217  0.0214
  206loPI   C1B 3293   5.075   8.257   8.937 -0.2238 -0.3043  0.2965
  206loPI   C2B 3294   5.046   8.416   8.530 -0.0355 -0.0569 -0.1422
  206loPI   C3B 3295   5.043   8.758   8.231 -0.0522  0.1815 -0.3853
  206loPI   C4B 3296   5.123   9.097   8.093 -0.1704 -0.1938 -0.2947
  207loPI    C1 3297   0.627  17.553   9.874 -0.1108  0.0405 -0.0653
  207loPI    C2 3298   0.666  17.949   9.841  0.1356  0.0324  0.1010
  207loPI    C3 3299   0.440  17.794  10.132 -0.0350  0.0511 -0.0201
  207loPI   PO4 3300   0.799  17.495   9.639 -0.0918  0.1085  0.1692
  207loPI   GL1 3301   0.836  17.381   9.185 -0.2123  0.1744  0.0433
  207loPI   GL2 3302   0.873  17.694   9.039 -0.0845  0.2851  0.1336
  207loPI   C1A 3303   0.670  17.314   8.740 -0.0997  0.4241  0.0725
  207loPI   C2A 3304   0.425  17.616   8.556  0.1263  0.1973  0.2129
  207loPI   C3A 3305   0.129  17.821   8.200  0.4102  0.1252 -0.1476
  207loPI   C4A 3306  -0.102  17.830   7.831  0.1391 -0.0756  0.0391
  207loPI   C5A 3307  -0.040  17.756   7.379 -0.0290 -0.0471  0.2561
  207loPI   C6A 3308  -0.365  17.644   7.121  0.0162 -0.1586 -0.2668
  207loPI   C1B 3309   0.913  17.812   8.641 -0.1931 -0.1467  0.0081
  207loPI   C2B 3310   0.751  17.788   8.249 -0.1942 -0.1301  0.1172
  207loPI   C3B 3311   0.843  17.913   7.775  0.1002 -0.2564 -0.0086
  207loPI   C4B 3312   0.878  18.059   7.373 -0.0484 -0.1071 -0.0737
  208loPI    C1 3313   5.873   2.246   9.448 -0.0373  0.1157 -0.1336
  208loPI    C2 3314   5.788   1.884   9.594  0.1403  0.2015  0.1945
  208loPI    C3 3315   5.698   2.210   9.806 -0.0424  0.3539 -0.1107
  208loPI   PO4 3316   5.844   2.257   9.187 -0.0127 -0.0534 -0.0199
  208loPI   GL1 3317   5.974   2.222   8.766  0.2969 -0.1615 -0.0128
  208loPI   GL2 3318   5.809   2.530   8.731 -0.0917  0.1519 -0.4029
  208loPI   C1A 3319   6.200   2.505   8.359  0.1990 -0.1211  0.0072
  208loPI   C2A 3320   6.258   2.777   8.075  0.2482 -0.1996  0.2079
  208loPI   C3A 3321   6.223   2.890   7.671  0.2218  0.0436  0.1872
  208loPI   C4A 3322   6.090   2.845   7.198  0.1746 -0.1961  0.1684
  208loPI   C5A 3323   6.028   2.898   6.810 -0.4017  0.0187  0.0894
  208loPI   C6A 3324   5.931   2.722   6.502 -0.0574  0.0434 -0.2422
  208loPI   C1B 3325   5.722   2.371   8.326 -0.0474 -0.2351 -0.0303
  208loPI   C2B 3326   5.728   2.577   7.876 -0.0240 -0.2226 -0.1817
  208loPI   C3B 3327   5.770   2.901   7.752 -0.1435  0.0502 -0.3831
  208loPI   C4B 3328   5.892   3.207   7.420  0.3396 -0.1162 -0.3855
  209loPI    C1 3329  19.689  11.995   9.870 -0.2278 -0.1868  0.2532
  209loPI    C2 3330  19.624  12.389   9.899  0.2221 -0.0494 -0.3862
  209loPI    C3 3331  19.868  12.207  10.158  0.0892  0.1069 -0.1474
  209loPI   PO4 3332  19.565  11.820   9.744  0.0568  0.1184  0.3067
  209loPI   GL1 3333  19.496  11.919   9.257 -0.4549  0.2853 -0.3453
  209loPI   GL2 3334  19.726  11.665   9.167 -0.3602  0.2265 -0.0986
  209loPI   C1A 3335  19.514  12.187   8.882 -0.3550  0.1218 -0.3813
  209loPI   C2A 3336  19.479  12.365   8.578  0.0554 -0.0451  0.2059
  209loPI   C3A 3337  19.676  12.397   8.173 -0.1541  0.1452  0.2724
  209loPI   C4A 3338  19.891  12.574   7.787 -0.2253 -0.1840  0.1810
  209loPI   C5A 3339  20.060  12.541   7.381 -0.3860  0.1109  0.1577
  209loPI   C6A 3340  20.447  12.498   6.976  0.0477  0.1981  0.0572
  209loPI   C1B 3341  19.603  11.655   8.764  0.1685  0.2196 -0.2386
  209loPI   C2B 3342  19.672  11.787   8.411 -0.2606 -0.0952 -0.3566
  209loPI   C3B 3343  19.677  11.943   7.933 -0.1275  0.0721  0.5441
  209loPI   C4B 3344  19.257  11.972   7.714 -0.3945 -0.1876 -0.0825
  210loPI    C1 3345  17.331   4.024   9.541 -0.1286  0.0185  0.0926
  210loPI    C2 3346  17.303   4.414   9.622 -0.3108  0.0069  0.0890
  210loPI    C3 3347  17.207   4.145   9.901  0.1813 -0.0399  0.2226
  210loPI   PO4 3348  17.184   4.048   9.287  0.0728  0.0154  0.0863
  210loPI   GL1 3349  17.253   3.791   8.952  0.1545 -0.2197  0.0574
  210loPI   GL2 3350  17.563   3.799   8.847  0.1471  0.0839 -0.1371
  210loPI   C1A 3351  17.305   3.526   8.560 -0.4736  0.0600  0.0817
  210loPI   C2A 3352  17.428   3.561   8.083 -0.4592  0.0624  0.1038
  210loPI   C3A 3353  17.448   3.138   7.865  0.3758 -0.0628 -0.1471
  210loPI   C4A 3354  17.415   2.772   7.666  0.1923  0.1191 -0.2533
  210loPI   C5A 3355  17.456   2.740   7.191  0.0331  0.2436 -0.0979
  210loPI   C6A 3356  17.464   2.878   6.830  0.2380  0.1600  0.1256
  210loPI   C1B 3357  17.638   3.849   8.523 -0.4482 -0.1484  0.0652
  210loPI   C2B 3358  17.255   4.009   8.209 -0.0499  0.1024  0.2043
  210loPI   C3B 3359  16.909   3.731   7.891  0.1146 -0.2270 -0.1353
  210loPI   C4B 3360  16.545   3.444   7.871 -0.0646 -0.0811  0.3973
  211loPI    C1 3361   3.562  12.901   9.823 -0.1138 -0.1115 -0.1696
  211loPI    C2 3362   3.344  13.234   9.862  0.0778  0.0295 -0.2823
  211loPI    C3 3363   3.188  12.879   9.963 -0.0756  0.1694 -0.0168
  211loPI   PO4 3364   3.691  12.911   9.608 -0.2751 -0.1481 -0.2633
  211loPI   GL1 3365   3.673  12.869   9.231 -0.2783  0.0750 -0.1135
  211loPI   GL2 3366   3.432  13.140   9.088  0.1171  0.3040  0.2898
  211loPI   C1A 3367   3.704  12.855   8.820 -0.4714 -0.1276 -0.0180
  211loPI   C2A 3368   3.857  12.755   8.532  0.1359  0.0701  0.0031
  211loPI   C3A 3369   3.848  12.493   8.209  0.0490 -0.1304  0.0440
  211loPI   C4A 3370   3.899  12.230   7.945  0.4577  0.0565  0.1127
  211loPI   C5A 3371   3.854  12.116   7.515  0.0201 -0.0467 -0.2798
  211loPI   C6A 3372   3.503  11.903   7.245  0.1074 -0.2571  0.3307
  211loPI   C1B 3373   3.290  13.091   8.625 -0.0300 -0.2367 -0.1397
  211loPI   C2B 3374   3.156  13.046   8.132  0.1296 -0.2662  0.3722
  211loPI   C3B 3375   3.177  12.931   7.725  0.2538 -0.1996  0.2296
  211loPI   C4B 3376   2.837  12.938   7.570  0.1296 -0.2499 -0.0105
  212loPI    C1 3377  18.125   7.864   9.792  0.0631  0.0945  0.1799
  212loPI    C2 3378  18.230   7.478   9.812 -0.1400  0.0210 -0.1136
  212loPI    C3 3379  18.173   7.687  10.148 -0.0164 -0.2002  0.0474
  212loPI   PO4 3380  17.970   7.886   9.520  0.3124 -0.3888  0.0088
  212loPI   GL1 3381  18.024   7.823   9.076  0.0010  0.0950  0.0850
  212loPI   GL2 3382  18.262   8.018   9.024 -0.1914  0.1274  0.1843
  212loPI   C1A 3383  17.842   7.684   8.709  0.2215 -0.0628 -0.0692
  212loPI   C2A 3384  17.966   7.539   8.328  0.0445  0.0267 -0.1049
  212loPI   C3A 3385  18.058   7.511   7.852 -0.2074 -0.1302 -0.0185
  212loPI   C4A 3386  18.233   7.635   7.382 -0.0754  0.2319  0.1461
  212loPI   C5A 3387  18.316   7.812   7.000  0.0298  0.0339  0.0045
  212loPI   C6A 3388  18.162   8.008   6.638 -0.1990  0.5884  0.1693
  212loPI   C1B 3389  17.963   8.184   8.704  0.1067  0.1612 -0.1131
  212loPI   C2B 3390  18.020   8.057   8.364  0.2435 -0.2006  0.3915
  212loPI   C3B 3391  17.868   7.917   7.995  0.1587 -0.0679 -0.4152
  212loPI   C4B 3392  17.898   7.929   7.651  0.6562  0.2421  0.0087
  213loPI    C1 3393   0.108   0.559   9.812  0.2812 -0.1677  0.1111
  213loPI    C2 3394   0.416   0.569  10.067  0.2769  0.2236  0.1068
  213loPI    C3 3395   0.065   0.731  10.171  0.1847  0.1156 -0.0329
  213loPI   PO4 3396   0.150   0.304   9.660  0.0853 -0.0763 -0.0495
  213loPI   GL1 3397   0.197   0.014   9.335  0.3211 -0.1310  0.0588
  213loPI   GL2 3398   0.484   0.134   9.220  0.0327  0.2435  0.0656
  213loPI   C1A 3399   0.124   0.231   8.899  0.1584  0.2292 -0.1175
  213loPI   C2A 3400   0.142   0.472   8.478  0.2808 -0.1573 -0.2617
  213loPI   C3A 3401  -0.076   0.745   8.235 -0.1701  0.0766 -0.0389
  213loPI   C4A 3402  -0.109   0.667   7.768 -0.2710 -0.2067  0.2638
  213loPI   C5A 3403  -0.108   0.478   7.361  0.0811  0.1763  0.2217
  213loPI   C6A 3404  -0.315   0.650   6.942 -0.3891 -0.0527  0.0023
  213loPI   C1B 3405   0.585   0.193   8.786  0.2941  0.1457  0.3399
  213loPI   C2B 3406   0.577   0.268   8.346  0.4013  0.2142 -0.1817
  213loPI   C3B 3407   0.325   0.479   8.039  0.3744  0.1315  0.1258
  213loPI   C4B 3408   0.363   0.888   7.662 -0.1730 -0.0228 -0.0261
  214loPI    C1 3409  13.174  18.443   9.945 -0.0367 -0.1073  0.0480
  214loPI    C2 3410  12.927  18.318   9.656 -0.0067  0.1701 -0.1010
  214loPI    C3 3411  13.034  18.068   9.950 -0.4606  0.0445 -0.0357
  214loPI   PO4 3412  13.359  18.547   9.840 -0.0578 -0.1872 -0.0074
  214loPI   GL1 3413  13.458  18.409   9.481  0.0905  0.3980  0.0288
  214loPI   GL2 3414  13.287  18.244   9.262  0.1393  0.0099 -0.1161
  214loPI   C1A 3415  13.449  18.643   9.082  0.1548 -0.3325  0.3201
  214loPI   C2A 3416  13.630  18.745   8.681  0.1597 -0.0561 -0.0770
  214loPI   C3A 3417  13.899  18.527   8.267  0.1002 -0.1380  0.4266
  214loPI   C4A 3418  14.112  18.599   7.902  0.3043  0.2106 -0.2875
  214loPI   C5A 3419  14.227  18.727   7.512  0.3825 -0.2262  0.0347
  214loPI   C6A 3420  13.999  18.971   7.190 -0.2870 -0.0581  0.0964
  214loPI   C1B 3421  13.281  18.250   8.809 -0.2024 -0.0263 -0.0312
  214loPI   C2B 3422  13.350  18.466   8.343  0.4002  0.2268  0.3027
  214loPI   C3B 3423  13.405  18.459   7.975 -0.3100 -0.2040 -0.1039
  214loPI   C4B 3424  13.586  18.076   7.894  0.1305  0.3383  0.0592
  215loPI    C1 3425  12.568   9.356   9.141  0.2341  0.1044 -0.0155
  215loPI    C2 3426  12.535   9.073   9.422 -0.0197 -0.0331 -0.1803
  215loPI    C3 3427  12.716   9.419   9.507  0.1352 -0.1743  0.0754
  215loPI   PO4 3428  12.560   9.315   8.953 -0.0863 -0.1153  0.0365
  215loPI   GL1 3429  12.453   9.456   8.586  0.3327 -0.2478 -0.0095
  215loPI   GL2 3430  12.135   9.389   8.520  0.1046  0.0467  0.0230
  215loPI   C1A 3431  12.618   9.736   8.232 -0.2728  0.1322 -0.1689
  215loPI   C2A 3432  12.539   9.879   7.914  0.1759 -0.0612  0.0634
  215loPI   C3A 3433  12.391  10.027   7.564  0.1576 -0.0308 -0.3191
  215loPI   C4A 3434  12.257  10.120   7.154  0.2418 -0.2069  0.4165
  215loPI   C5A 3435  11.844  10.419   7.114 -0.4181 -0.0504 -0.1566
  215loPI   C6A 3436  11.612  10.726   7.006  0.1663  0.0520 -0.3520
  215loPI   C1B 3437  12.200   9.199   8.117 -0.0222  0.0104 -0.0538
  215loPI   C2B 3438  12.059   9.040   7.720 -0.0892 -0.0587  0.2860
  215loPI   C3B 3439  12.025   8.733   7.257 -0.1222  0.1266 -0.3320
  215loPI   C4B 3440  12.292   8.514   6.895 -0.1476 -0.1655  0.3189
  216loPI    C1 3441   1.951   7.205   9.809  0.1285 -0.1155  0.0960
  216loPI    C2 3442   2.100   7.531   9.985  0.3700 -0.3440  0.3246
  216loPI    C3 3443   1.722   7.422  10.054  0.1992  0.0362  0.0292
  216loPI   PO4 3444   2.041   7.223   9.560  0.0845 -0.1593  0.0293
  216loPI   GL1 3445   2.141   7.397   9.223 -0.2192 -0.0740 -0.1255
  216loPI   GL2 3446   2.417   7.271   9.124 -0.0715  0.1302 -0.5501
  216loPI   C1A 3447   2.051   7.472   8.693 -0.1432  0.1212 -0.0752
  216loPI   C2A 3448   1.986   7.723   8.285  0.3087 -0.0498  0.4857
  216loPI   C3A 3449   2.110   7.929   7.947 -0.1099 -0.0633  0.2577
  216loPI   C4A 3450   2.355   8.131   7.531 -0.0101 -0.0427 -0.0513
  216loPI   C5A 3451   2.234   8.615   7.523  0.1599  0.0522  0.0896
  216loPI   C6A 3452   1.996   8.862   7.819 -0.2859  0.1482  0.1355
  216loPI   C1B 3453   2.392   7.667   8.936 -0.2846  0.0009  0.4337
  216loPI   C2B 3454   2.230   7.944   8.750  0.0175  0.1217 -0.2254
  216loPI   C3B 3455   2.285   8.147   8.355  0.0582  0.1576  0.0660
  216loPI   C4B 3456   2.382   8.409   7.963  0.2241 -0.1378  0.1543
  217loPI    C1 3457  18.506  15.440   9.484 -0.0050  0.1789 -0.0811
  217loPI    C2 3458  18.753  15.503   9.792  0.1371  0.2613 -0.2108
  217loPI    C3 3459  18.371  15.619   9.815  0.0535 -0.0538  0.0715
  217loPI   PO4 3460  18.665  15.608   9.283  0.1597 -0.1583  0.2905
  217loPI   GL1 3461  18.606  15.756   8.909  0.1530  0.1179 -0.1314
  217loPI   GL2 3462  18.341  15.873   8.668  0.0563  0.2198 -0.0173
  217loPI   C1A 3463  18.705  15.677   8.491  0.0091 -0.3507  0.2180
  217loPI   C2A 3464  18.829  15.703   8.099 -0.0302  0.3941 -0.0171
  217loPI   C3A 3465  18.818  15.593   7.649  0.1877  0.6151 -0.1468
  217loPI   C4A 3466  18.999  15.409   7.343  0.0828  0.0323 -0.3429
  217loPI   C5A 3467  19.215  15.362   6.927  0.1022 -0.0188  0.0477
  217loPI   C6A 3468  19.363  15.171   6.628  0.0137 -0.0486 -0.5672
  217loPI   C1B 3469  18.376  15.919   8.191  0.0204  0.0603  0.2133
  217loPI   C2B 3470  18.355  15.837   7.778 -0.0002  0.0875  0.0440
  217loPI   C3B 3471  18.423  15.762   7.359  0.0614  0.0060  0.0267
  217loPI   C4B 3472  18.463  15.581   6.998 -0.3802 -0.4460  0.0844
  218loPI    C1 3473  17.412   7.850   9.463  0.0630 -0.2203  0.0461
  218loPI    C2 3474  17.132   7.961   9.201  0.2084  0.2441  0.0774
  218loPI    C3 3475  17.044   7.941   9.590  0.0789 -0.1368  0.0330
  218loPI   PO4 3476  17.553   7.582   9.251  0.0350  0.1735  0.3363
  218loPI   GL1 3477  17.234   7.442   9.006  0.1094 -0.2419  0.3802
  218loPI   GL2 3478  16.905   7.527   9.051  0.1347 -0.0248  0.0615
  218loPI   C1A 3479  17.280   7.805   8.596  0.2902  0.3257  0.4190
  218loPI   C2A 3480  17.452   8.106   8.329  0.1417 -0.4681 -0.0542
  218loPI   C3A 3481  17.435   8.086   7.878 -0.1566 -0.1556 -0.0633
  218loPI   C4A 3482  17.342   8.140   7.530 -0.3244  0.1130  0.2006
  218loPI   C5A 3483  17.435   7.974   7.194  0.0106 -0.0069  0.1651
  218loPI   C6A 3484  17.305   7.695   6.909 -0.0747 -0.2569  0.3223
  218loPI   C1B 3485  16.803   7.523   8.613 -0.0049 -0.0661  0.2526
  218loPI   C2B 3486  16.964   7.670   8.248 -0.0323  0.1196  0.0109
  218loPI   C3B 3487  17.107   7.729   7.824 -0.1688  0.0614  0.0999
  218loPI   C4B 3488  17.236   7.562   7.383  0.1000 -0.2503 -0.3612
  219loPI    C1 3489   6.574   8.370   9.760  0.0333  0.0196  0.1173
  219loPI    C2 3490   6.824   8.597   9.974  0.0211 -0.0861  0.2448
  219loPI    C3 3491   6.658   8.273  10.138  0.1111 -0.2408  0.0352
  219loPI   PO4 3492   6.547   8.558   9.535  0.0837  0.0289 -0.0222
  219loPI   GL1 3493   6.345   8.521   9.165  0.0040 -0.0028 -0.0997
  219loPI   GL2 3494   6.269   8.871   9.161 -0.3120 -0.1678 -0.1112
  219loPI   C1A 3495   6.048   8.561   8.872  0.1807 -0.1100 -0.0965
  219loPI   C2A 3496   6.034   8.824   8.585 -0.1827 -0.1153  0.0731
  219loPI   C3A 3497   6.031   8.788   8.195  0.1462 -0.0510  0.3231
  219loPI   C4A 3498   5.938   8.768   7.737 -0.2197 -0.1838  0.1267
  219loPI   C5A 3499   6.252   8.905   7.373 -0.1284  0.0448  0.1506
  219loPI   C6A 3500   6.466   8.873   7.062  0.1165 -0.0401 -0.1269
  219loPI   C1B 3501   6.443   8.971   8.788  0.0314 -0.0640  0.1278
  219loPI   C2B 3502   6.763   9.027   8.605 -0.0664 -0.1961 -0.1413
  219loPI   C3B 3503   6.918   8.937   8.207 -0.3283 -0.0733  0.2338
  219loPI   C4B 3504   7.048   8.754   7.751 -0.1669  0.2056 -0.1458
  220loPI    C1 3505  17.566  12.785   9.531 -0.0388 -0.1937 -0.1235
  220loPI    C2 3506  17.768  12.608   9.827 -0.1711 -0.2173 -0.0466
  220loPI    C3 3507  17.389  12.724   9.884 -0.0505  0.1976 -0.0577
  220loPI   PO4 3508  17.614  12.637   9.298  0.2713 -0.0255  0.2101
  220loPI   GL1 3509  17.760  12.730   8.906 -0.0703  0.1243  0.0398
  220loPI   GL2 3510  17.992  12.574   8.890 -0.1662 -0.2231 -0.2489
  220loPI   C1A 3511  17.777  12.932   8.494 -0.0732  0.4055  0.1324
  220loPI   C2A 3512  17.551  12.979   8.083  0.0947 -0.2413 -0.1858
  220loPI   C3A 3513  17.486  13.093   7.587  0.1695 -0.2615 -0.2639
  220loPI   C4A 3514  17.419  13.248   7.209 -0.0549 -0.1579 -0.1742
  220loPI   C5A 3515  17.276  13.276   6.865 -0.1919 -0.2175 -0.2666
  220loPI   C6A 3516  16.894  13.322   6.914 -0.0101  0.0003  0.0011
  220loPI   C1B 3517  18.193  12.600   8.465  0.0186 -0.0052 -0.1944
  220loPI   C2B 3518  18.188  12.859   8.209  0.2210 -0.4678  0.1340
  220loPI   C3B 3519  18.015  13.090   7.901 -0.2604 -0.1176  0.0041
  220loPI   C4B 3520  18.087  13.534   7.638 -0.0753 -0.2678  0.0561
  221loPI    C1 3521   2.255  15.908  10.082  0.0517  0.2012  0.0413
  221loPI    C2 3522   1.888  15.948  10.235 -0.1333 -0.0551 -0.3217
  221loPI    C3 3523   2.149  16.249  10.261 -0.3602  0.1223 -0.0417
  221loPI   PO4 3524   2.240  15.826   9.815  0.4103  0.1653 -0.0947
  221loPI   GL1 3525   2.220  15.992   9.321 -0.2073 -0.2010  0.0871
  221loPI   GL2 3526   2.527  16.034   9.441 -0.0495  0.2316  0.0622
  221loPI   C1A 3527   2.195  15.701   8.974  0.1296 -0.2310 -0.1169
  221loPI   C2A 3528   2.322  15.542   8.569 -0.1846  0.0039 -0.1278
  221loPI   C3A 3529   2.261  15.288   8.159  0.2428  0.0410  0.0376
  221loPI   C4A 3530   2.399  15.216   7.732 -0.1810  0.2265 -0.2471
  221loPI   C5A 3531   2.221  15.131   7.385  0.3968 -0.1080 -0.2943
  221loPI   C6A 3532   1.846  15.148   7.213  0.0443  0.2421 -0.1057
  221loPI   C1B 3533   2.694  15.968   9.116  0.0676 -0.0517  0.0651
  221loPI   C2B 3534   2.835  15.644   8.844  0.0446 -0.1201 -0.0966
  221loPI   C3B 3535   2.842  15.453   8.441  0.1249 -0.1378  0.2598
  221loPI   C4B 3536   2.731  15.261   8.078  0.0405 -0.0603 -0.1168
  222loPI    C1 3537  16.389   2.852   9.543  0.2525 -0.1263 -0.0674
  222loPI    C2 3538  15.997   2.874   9.619  0.2505 -0.0051 -0.1117
  222loPI    C3 3539  16.254   2.799   9.916  0.1974 -0.0409 -0.0749
  222loPI   PO4 3540  16.356   2.649   9.245  0.2428  0.0629 -0.0388
  222loPI   GL1 3541  16.504   2.744   8.855 -0.1165 -0.2044 -0.0630
  222loPI   GL2 3542  16.788   2.583   8.938 -0.2319  0.1873  0.0208
  222loPI   C1A 3543  16.454   2.465   8.480  0.0897  0.0400 -0.1679
  222loPI   C2A 3544  16.579   2.481   8.181 -0.2265 -0.1707 -0.2107
  222loPI   C3A 3545  16.772   2.554   7.850  0.0944  0.0351 -0.1977
  222loPI   C4A 3546  16.883   2.629   7.245 -0.4357 -0.2379 -0.1011
  222loPI   C5A 3547  16.987   2.904   6.960  0.2310 -0.0331  0.2818
  222loPI   C6A 3548  16.784   2.981   6.609  0.2806  0.0239  0.0584
  222loPI   C1B 3549  17.012   2.494   8.557 -0.2433  0.3217  0.3416
  222loPI   C2B 3550  16.889   2.116   8.384  0.1892  0.1528  0.3863
  222loPI   C3B 3551  16.856   2.083   7.943 -0.1486 -0.2747  0.1600
  222loPI   C4B 3552  16.847   1.711   7.611  0.0136 -0.1320 -0.1104
  223loPI    C1 3553  19.648  12.903   9.722 -0.0626 -0.0056 -0.0094
  223loPI    C2 3554  19.338  13.074   9.536 -0.0582 -0.2928 -0.2896
  223loPI    C3 3555  19.279  12.759   9.775 -0.0300 -0.0898 -0.0101
  223loPI   PO4 3556  19.796  12.826   9.537  0.4867  0.2189 -0.0925
  223loPI   GL1 3557  20.083  12.842   9.282 -0.0853 -0.1825 -0.2368
  223loPI   GL2 3558  19.751  12.790   9.051 -0.1580 -0.0355  0.2648
  223loPI   C1A 3559  20.165  12.949   8.795  0.1150 -0.0376 -0.1126
  223loPI   C2A 3560  20.324  13.099   8.355  0.0431  0.2586  0.0826
  223loPI   C3A 3561  20.230  13.215   7.974  0.2006 -0.0640 -0.4117
  223loPI   C4A 3562  20.278  12.935   7.711  0.1603  0.0494  0.0147
  223loPI   C5A 3563  20.593  12.885   7.319  0.1259 -0.2389 -0.2369
  223loPI   C6A 3564  21.004  12.986   7.522  0.1649 -0.0992  0.0056
  223loPI   C1B 3565  19.709  12.817   8.584  0.2997  0.2406  0.0987
  223loPI   C2B 3566  19.320  12.784   8.300  0.0085 -0.1535  0.0684
  223loPI   C3B 3567  19.260  12.563   7.898  0.1462  0.0125 -0.3967
  223loPI   C4B 3568  19.360  12.644   7.491  0.2026 -0.3988  0.1598
  224loPI    C1 3569   9.068  11.619   9.439  0.1336  0.0817 -0.2565
  224loPI    C2 3570   8.992  11.823   9.103 -0.1334 -0.0941 -0.3059
  224loPI    C3 3571   8.867  11.444   9.140 -0.2111 -0.0381  0.0377
  224loPI   PO4 3572   9.381  11.727   9.411  0.0186 -0.0032  0.1435
  224loPI   GL1 3573   9.508  11.766   9.037 -0.1749 -0.1485 -0.1428
  224loPI   GL2 3574   9.392  12.199   9.025 -0.0373  0.3331  0.2574
  224loPI   C1A 3575   9.561  11.872   8.581 -0.0695  0.0238 -0.3492
  224loPI   C2A 3576   9.613  11.880   8.106  0.4310 -0.0226  0.0506
  224loPI   C3A 3577   9.778  12.334   7.860  0.2109 -0.1312  0.1280
  224loPI   C4A 3578   9.987  12.674   7.580 -0.0103  0.3518  0.1396
  224loPI   C5A 3579  10.110  12.928   7.338 -0.2203  0.0953 -0.0565
  224loPI   C6A 3580  10.523  13.146   7.106 -0.2235  0.0896 -0.0481
  224loPI   C1B 3581   9.047  12.108   8.696  0.2077 -0.1913 -0.1147
  224loPI   C2B 3582   9.071  11.903   8.287 -0.1045  0.1306 -0.1029
  224loPI   C3B 3583   9.132  11.957   7.777 -0.1820 -0.3785  0.2255
  224loPI   C4B 3584   9.514  11.921   7.594 -0.1659 -0.2202  0.0299
  225loPI    C1 3585  15.504   1.809   9.451  0.4315  0.2299  0.0946
  225loPI    C2 3586  15.206   2.070   9.504  0.1628 -0.0452 -0.0364
  225loPI    C3 3587  15.444   1.973   9.811  0.1857  0.2550  0.0432
  225loPI   PO4 3588  15.622   1.888   9.216  0.0724  0.0864  0.3390
  225loPI   GL1 3589  15.532   1.760   8.691  0.1542 -0.0762  0.1796
  225loPI   GL2 3590  15.362   1.714   8.414 -0.2345  0.1835 -0.0999
  225loPI   C1A 3591  15.918   1.702   8.259  0.1206  0.1192 -0.1428
  225loPI   C2A 3592  16.074   1.693   7.862  0.1510 -0.0123  0.0679
  225loPI   C3A 3593  16.065   1.586   7.378  0.2928 -0.0947  0.3984
  225loPI   C4A 3594  16.356   1.568   7.091  0.0769 -0.1060 -0.0067
  225loPI   C5A 3595  16.408   1.284   6.721  0.0972  0.4049 -0.4246
  225loPI   C6A 3596  16.298   1.248   6.367 -0.1888  0.3213 -0.0945
  225loPI   C1B 3597  15.430   1.725   7.938  0.0289 -0.1300 -0.3149
  225loPI   C2B 3598  15.642   1.795   7.497 -0.0789 -0.1726 -0.1545
  225loPI   C3B 3599  15.483   1.902   7.101 -0.2734 -0.0579 -0.0937
  225loPI   C4B 3600  15.236   1.893   6.740  0.2999  0.0628 -0.0231
  226loPI    C1 3601  16.550   9.464   9.601 -0.0280 -0.1091 -0.0030
  226loPI    C2 3602  16.652   9.109   9.754 -0.1407 -0.1883 -0.1090
  226loPI    C3 3603  16.275   9.239   9.785 -0.0805 -0.0382  0.0054
  226loPI   PO4 3604  16.743   9.534   9.389 -0.2996  0.2106 -0.0578
  226loPI   GL1 3605  16.935   9.415   9.029  0.1645 -0.1555  0.1870
  226loPI   GL2 3606  17.240   9.463   9.139 -0.1550 -0.0132  0.0392
  226loPI   C1A 3607  16.845   9.605   8.741 -0.1018 -0.2569 -0.0411
  226loPI   C2A 3608  17.035   9.763   8.314 -0.1012 -0.2882  0.0767
  226loPI   C3A 3609  17.267   9.951   7.965 -0.0970 -0.1748  0.0065
  226loPI   C4A 3610  17.411   9.947   7.463 -0.0994 -0.2048 -0.0767
  226loPI   C5A 3611  17.443   9.915   7.037 -0.0703  0.0497  0.2364
  226loPI   C6A 3612  17.269   9.761   6.669  0.0357 -0.0706  0.1210
  226loPI   C1B 3613  17.324   9.603   8.632 -0.1230 -0.0585 -0.0782
  226loPI   C2B 3614  17.475   9.457   8.189 -0.2715 -0.1874 -0.2517
  226loPI   C3B 3615  17.438   9.502   7.742  0.0735 -0.0850  0.3915
  226loPI   C4B 3616  17.414   9.394   7.269  0.2572 -0.2593 -0.0406
  227loPI    C1 3617   1.665  10.246   9.890  0.1232 -0.0610  0.1997
  227loPI    C2 3618   1.569  10.157  10.268  0.3321 -0.3255  0.1937
  227loPI    C3 3619   1.856  10.426  10.192  0.4443 -0.4350  0.2274
  227loPI   PO4 3620   1.519   9.936   9.643  0.0777 -0.1605  0.0677
  227loPI   GL1 3621   1.573  10.043   9.238 -0.0645 -0.2243 -0.2756
  227loPI   GL2 3622   1.580  10.456   9.369  0.2263  0.2503 -0.0476
  227loPI   C1A 3623   1.870   9.986   8.956 -0.0608 -0.0422 -0.1500
  227loPI   C2A 3624   1.817  10.046   8.608 -0.1352 -0.2897  0.1708
  227loPI   C3A 3625   1.901  10.174   8.311  0.0633  0.0708  0.0667
  227loPI   C4A 3626   1.951  10.290   7.935  0.1267 -0.1052  0.2484
  227loPI   C5A 3627   2.035  10.669   7.663  0.1984  0.0747  0.0836
  227loPI   C6A 3628   2.200  11.027   7.391  0.0114 -0.1416 -0.1969
  227loPI   C1B 3629   1.835  10.509   8.958  0.1442  0.2366 -0.0016
  227loPI   C2B 3630   2.088  10.504   8.582 -0.2277 -0.1179  0.1741
  227loPI   C3B 3631   2.218  10.686   8.183  0.1430  0.1694 -0.0928
  227loPI   C4B 3632   2.477  10.700   7.872 -0.0700  0.1153  0.2022
  228loPI    C1 3633  16.141  18.100   9.194 -0.3819 -0.3223 -0.0482
  228loPI    C2 3634  16.401  18.047   9.493 -0.0809  0.0704 -0.2322
  228loPI    C3 3635  16.162  17.747   9.381 -0.1492 -0.1047  0.3503
  228loPI   PO4 3636  16.260  18.220   9.013  0.2963 -0.0235  0.3719
  228loPI   GL1 3637  16.241  18.149   8.638 -0.1926  0.3555 -0.0289
  228loPI   GL2 3638  16.517  18.279   8.614 -0.2269 -0.0043  0.1442
  228loPI   C1A 3639  16.350  18.025   8.197  0.0017  0.1747 -0.0028
  228loPI   C2A 3640  16.445  17.753   7.925  0.1824  0.0991  0.0220
  228loPI   C3A 3641  16.832  17.637   7.633 -0.0485  0.1282  0.2880
  228loPI   C4A 3642  16.850  17.390   7.199 -0.4462 -0.1380 -0.4055
  228loPI   C5A 3643  16.775  17.280   6.786 -0.0972  0.2314  0.0655
  228loPI   C6A 3644  16.629  17.066   6.338  0.0796 -0.4435 -0.1648
  228loPI   C1B 3645  16.244  18.538   8.372 -0.0269 -0.3085  0.3925
  228loPI   C2B 3646  16.161  18.571   7.952  0.1792  0.0552 -0.5880
  228loPI   C3B 3647  15.773  18.774   7.734 -0.3099  0.2128 -0.5176
  228loPI   C4B 3648  15.374  18.823   7.534 -0.1071 -0.0384  0.1011
  229loPI    C1 3649   8.046   9.214   9.762  0.0679 -0.1368 -0.4678
  229loPI    C2 3650   7.710   9.229   9.545 -0.2385  0.0015 -0.0005
  229loPI    C3 3651   7.724   9.005   9.876  0.1631 -0.0698 -0.0602
  229loPI   PO4 3652   8.078   9.490   9.752  0.1031  0.0946 -0.3061
  229loPI   GL1 3653   7.971   9.693   9.429 -0.2580  0.0545 -0.0142
  229loPI   GL2 3654   7.649   9.653   9.337  0.0060  0.0217  0.3231
  229loPI   C1A 3655   8.055   9.536   9.051 -0.1348  0.1025  0.1067
  229loPI   C2A 3656   8.148   9.189   8.762 -0.1989  0.1618 -0.0758
  229loPI   C3A 3657   8.036   9.103   8.406 -0.1001  0.0824  0.1206
  229loPI   C4A 3658   8.073   8.852   8.099  0.2383  0.3830  0.0918
  229loPI   C5A 3659   7.891   8.502   7.959  0.1528  0.2036  0.2027
  229loPI   C6A 3660   7.750   8.352   7.532 -0.3498 -0.3080 -0.0494
  229loPI   C1B 3661   7.764   9.954   9.031 -0.2230  0.1308 -0.2127
  229loPI   C2B 3662   7.804  10.165   8.596 -0.0102  0.1593  0.0799
  229loPI   C3B 3663   7.855  10.059   8.197  0.0308 -0.1142 -0.0558
  229loPI   C4B 3664   7.757  10.375   7.905 -0.4768  0.1708 -0.2660
  230loPI    C1 3665  14.785   9.265   9.350  0.3277  0.1855 -0.1198
  230loPI    C2 3666  14.885   9.075   9.688  0.0571 -0.0634 -0.1764
  230loPI    C3 3667  14.775   9.459   9.700  0.2569 -0.0100 -0.0118
  230loPI   PO4 3668  14.677   9.080   9.201 -0.0178  0.0272 -0.0381
  230loPI   GL1 3669  14.695   9.027   8.747  0.0872  0.1101 -0.0194
  230loPI   GL2 3670  14.943   8.941   8.676 -0.2757 -0.4359  0.0106
  230loPI   C1A 3671  14.459   8.949   8.359 -0.0501 -0.1285  0.1109
  230loPI   C2A 3672  14.428   8.810   7.869  0.2989  0.4419  0.0743
  230loPI   C3A 3673  14.545   8.809   7.469 -0.0072  0.2692  0.3166
  230loPI   C4A 3674  14.538   9.137   7.081 -0.2624 -0.1422  0.1567
  230loPI   C5A 3675  14.366   9.173   6.649 -0.0842 -0.1972  0.1367
  230loPI   C6A 3676  14.028   9.068   6.411  0.2902  0.2614  0.0930
  230loPI   C1B 3677  14.905   9.126   8.201 -0.1682 -0.0060  0.0680
  230loPI   C2B 3678  14.787   9.123   7.786 -0.3572  0.3866  0.1633
  230loPI   C3B 3679  15.037   9.146   7.392  0.1496  0.0429  0.2308
  230loPI   C4B 3680  15.293   9.174   7.040 -0.2096  0.1201  0.0945
  231loPI    C1 3681  11.056  15.792   9.640  0.2935  0.2188 -0.1412
  231loPI    C2 3682  11.357  15.537   9.572  0.0707 -0.0524 -0.1286
  231loPI    C3 3683  11.353  15.757   9.906  0.0297 -0.3816  0.0932
  231loPI   PO4 3684  10.887  15.620   9.432 -0.0627 -0.0637  0.0514
  231loPI   GL1 3685  10.731  15.675   8.992 -0.2133  0.0922 -0.1429
  231loPI   GL2 3686  10.824  15.942   8.833  0.3653 -0.1890  0.0555
  231loPI   C1A 3687  10.714  15.490   8.651 -0.0862  0.3790  0.1234
  231loPI   C2A 3688  10.782  15.168   8.396  0.3925  0.0224 -0.1165
  231loPI   C3A 3689  10.994  14.909   8.238  0.0937 -0.0982  0.1990
  231loPI   C4A 3690  11.067  14.930   7.806 -0.1882  0.1162  0.3096
  231loPI   C5A 3691  11.098  14.669   7.362  0.0048 -0.0261 -0.0142
  231loPI   C6A 3692  11.260  14.560   6.985  0.3821  0.2799 -0.0094
  231loPI   C1B 3693  10.603  16.068   8.422 -0.0854  0.4385  0.2537
  231loPI   C2B 3694  10.277  15.931   8.153 -0.2350  0.2158  0.0095
  231loPI   C3B 3695  10.197  15.868   7.711  0.0143 -0.0648  0.0615
  231loPI   C4B 3696  10.375  16.026   7.328 -0.0853 -0.1829 -0.0144
  232loPI    C1 3697  13.675  13.938   9.490 -0.0731  0.0877  0.2261
  232loPI    C2 3698  13.287  13.858   9.436 -0.0351 -0.1117  0.2393
  232loPI    C3 3699  13.467  13.752   9.777  0.0483 -0.0844  0.2040
  232loPI   PO4 3700  13.698  14.250   9.323 -0.0842  0.1340  0.1679
  232loPI   GL1 3701  13.592  14.554   9.010  0.0909 -0.3926  0.2400
  232loPI   GL2 3702  13.279  14.693   8.943 -0.0565 -0.0175  0.2076
  232loPI   C1A 3703  13.674  14.521   8.589 -0.1882 -0.0716  0.2822
  232loPI   C2A 3704  13.731  14.501   8.202 -0.1571 -0.2234 -0.0201
  232loPI   C3A 3705  13.858  14.380   7.862  0.1696  0.0989 -0.2655
  232loPI   C4A 3706  13.880  14.371   7.463  0.1249 -0.1587  0.4929
  232loPI   C5A 3707  13.805  13.979   7.146  0.2566  0.4592  0.2274
  232loPI   C6A 3708  13.530  13.795   6.827 -0.2707 -0.2700  0.0339
  232loPI   C1B 3709  13.227  14.683   8.560  0.2253  0.0319 -0.1045
  232loPI   C2B 3710  13.232  14.530   8.050 -0.0998 -0.1452  0.1754
  232loPI   C3B 3711  13.428  14.210   7.695  0.2946 -0.2300 -0.2168
  232loPI   C4B 3712  13.381  14.080   7.265  0.1550 -0.0255 -0.1166
  233loPI    C1 3713   9.172   2.484   9.633 -0.0773 -0.0942  0.0433
  233loPI    C2 3714   8.791   2.606   9.635 -0.0534 -0.0104 -0.1864
  233loPI    C3 3715   8.884   2.239   9.765 -0.1878  0.0345  0.0432
  233loPI   PO4 3716   9.266   2.510   9.423 -0.2258 -0.1683  0.0044
  233loPI   GL1 3717   9.289   2.528   9.019  0.2182 -0.0985  0.3799
  233loPI   GL2 3718   9.248   2.883   9.046  0.2615 -0.2403 -0.1388
  233loPI   C1A 3719   9.470   2.362   8.591  0.2453 -0.1732 -0.2612
  233loPI   C2A 3720   9.315   2.321   8.188  0.0381 -0.1299  0.0482
  233loPI   C3A 3721   9.277   2.259   7.710  0.1408 -0.0732 -0.3117
  233loPI   C4A 3722   9.277   2.349   7.219  0.1515 -0.2087  0.1186
  233loPI   C5A 3723   9.389   2.725   6.909  0.0764 -0.1832  0.2268
  233loPI   C6A 3724   9.001   2.949   6.575 -0.2500  0.4611  0.2528
  233loPI   C1B 3725   9.114   2.807   8.569  0.0397 -0.3653 -0.3404
  233loPI   C2B 3726   9.047   2.840   8.152  0.1180  0.0288 -0.2245
  233loPI   C3B 3727   9.141   2.919   7.754  0.0124  0.2467 -0.2597
  233loPI   C4B 3728   9.103   2.920   7.200 -0.1888  0.2724 -0.2644
  234loPI    C1 3729   2.431  14.009   9.574 -0.1401  0.1163 -0.0044
  234loPI    C2 3730   2.598  14.261   9.835  0.1898 -0.3103  0.2085
  234loPI    C3 3731   2.816  14.111   9.535 -0.0973 -0.0831 -0.1212
  234loPI   PO4 3732   2.177  14.106   9.572 -0.0747 -0.0017  0.2895
  234loPI   GL1 3733   2.095  14.217   9.163  0.1005  0.1220 -0.0792
  234loPI   GL2 3734   2.433  14.178   9.118 -0.1705  0.0154 -0.0553
  234loPI   C1A 3735   1.743  14.035   8.905 -0.1096 -0.1602 -0.1972
  234loPI   C2A 3736   1.727  13.940   8.364  0.0327 -0.0027 -0.0359
  234loPI   C3A 3737   1.928  13.840   8.083  0.1886 -0.0656 -0.0189
  234loPI   C4A 3738   2.045  13.916   7.773 -0.0402 -0.0158 -0.0872
  234loPI   C5A 3739   1.982  14.204   7.381  0.0255  0.0416  0.2597
  234loPI   C6A 3740   2.181  14.526   7.152  0.1853  0.0279 -0.1509
  234loPI   C1B 3741   2.253  13.969   8.746 -0.1041  0.1273 -0.0493
  234loPI   C2B 3742   2.240  13.665   8.405 -0.1026  0.4668 -0.2306
  234loPI   C3B 3743   2.384  13.518   7.964  0.1543 -0.4129 -0.1551
  234loPI   C4B 3744   2.397  13.339   7.582 -0.2544 -0.1853  0.0709
  235loPI    C1 3745  10.132   5.631   8.848  0.1068  0.0366  0.1297
  235loPI    C2 3746   9.758   5.734   8.752  0.0717 -0.1328  0.0812
  235loPI    C3 3747   9.893   5.794   9.124 -0.0046 -0.0756  0.1000
  235loPI   PO4 3748  10.253   5.694   8.628  0.2274 -0.1618 -0.0235
  235loPI   GL1 3749  10.198   5.712   8.210 -0.0848  0.1208  0.2085
  235loPI   GL2 3750   9.982   5.942   8.358  0.2302  0.1083 -0.0553
  235loPI   C1A 3751  10.221   5.825   7.767  0.0080  0.2227  0.1885
  235loPI   C2A 3752  10.389   5.934   7.424  0.1929 -0.1912 -0.2729
  235loPI   C3A 3753  10.631   6.196   7.087 -0.0647  0.0843 -0.1453
  235loPI   C4A 3754  10.796   6.166   6.690  0.1800 -0.3310 -0.1275
  235loPI   C5A 3755  11.008   6.019   6.390 -0.1765  0.1248  0.2101
  235loPI   C6A 3756  10.873   6.049   5.892 -0.0177 -0.2792 -0.1833
  235loPI   C1B 3757   9.560   6.192   8.204 -0.0201 -0.2805  0.0236
  235loPI   C2B 3758   9.473   6.488   7.899  0.1989 -0.0011 -0.1078
  235loPI   C3B 3759   9.688   6.739   7.561  0.5617  0.1102  0.0761
  235loPI   C4B 3760   9.779   6.791   7.166 -0.1170 -0.0943 -0.0330
  236loPI    C1 3761   8.268  14.821   9.712  0.3367  0.1242  0.0153
  236loPI    C2 3762   8.456  14.493   9.843  0.2749  0.0779 -0.0115
  236loPI    C3 3763   8.400  14.803  10.089  0.1124 -0.0300  0.0887
  236loPI   PO4 3764   8.164  14.708   9.466  0.0745  0.1183 -0.0009
  236loPI   GL1 3765   8.124  15.033   9.226  0.1758 -0.0758  0.0833
  236loPI   GL2 3766   8.066  14.711   8.919  0.1621  0.0172  0.0905
  236loPI   C1A 3767   8.309  15.247   8.808  0.0852  0.0496 -0.2611
  236loPI   C2A 3768   8.528  15.551   8.528  0.0989  0.0518  0.0038
  236loPI   C3A 3769   8.486  15.732   8.255 -0.0333  0.1537  0.0398
  236loPI   C4A 3770   8.452  16.053   7.932  0.2818 -0.3854 -0.1082
  236loPI   C5A 3771   8.374  16.203   7.535  0.1455  0.0101 -0.3678
  236loPI   C6A 3772   8.506  16.351   7.187  0.0240 -0.1625  0.0022
  236loPI   C1B 3773   7.886  14.613   8.470 -0.0144  0.2205  0.2091
  236loPI   C2B 3774   7.777  14.496   8.145 -0.1607  0.0038 -0.0845
  236loPI   C3B 3775   7.868  14.496   7.741  0.1929 -0.0617  0.0466
  236loPI   C4B 3776   7.930  14.615   7.278  0.2045  0.2170 -0.0251
  237loPI    C1 3777  12.931  15.647   9.651 -0.0246 -0.0904 -0.1406
  237loPI    C2 3778  12.572  15.808   9.579  0.0883  0.1482 -0.1802
  237loPI    C3 3779  12.607  15.508   9.841 -0.1423  0.1076 -0.1931
  237loPI   PO4 3780  13.002  15.492   9.406 -0.0674  0.0818  0.1600
  237loPI   GL1 3781  12.881  15.695   9.149  0.0413 -0.2302  0.1192
  237loPI   GL2 3782  12.504  15.634   9.081 -0.2906  0.2944 -0.0834
  237loPI   C1A 3783  12.684  16.025   8.764 -0.1424  0.1112 -0.2475
  237loPI   C2A 3784  12.674  15.967   8.303  0.1356  0.0996  0.1555
  237loPI   C3A 3785  12.658  15.868   7.950 -0.0058  0.0088  0.1568
  237loPI   C4A 3786  12.788  15.764   7.465 -0.0160 -0.2619  0.1753
  237loPI   C5A 3787  12.687  15.847   7.063  0.2097 -0.0004 -0.0698
  237loPI   C6A 3788  12.582  16.027   6.594  0.1676  0.1977  0.2608
  237loPI   C1B 3789  12.683  15.482   8.697  0.2997  0.2773  0.1416
  237loPI   C2B 3790  12.457  15.504   8.320  0.1843  0.1129  0.2265
  237loPI   C3B 3791  12.537  15.292   7.933  0.0793 -0.2666  0.1629
  237loPI   C4B 3792  12.817  15.300   7.568 -0.3977 -0.2285 -0.0030
  238loPI    C1 3793   3.596   2.098   9.730  0.4044  0.2368 -0.0317
  238loPI    C2 3794   3.336   1.996  10.017  0.0670  0.3928 -0.2752
  238loPI    C3 3795   3.691   1.812   9.993 -0.0469  0.1265  0.0190
  238loPI   PO4 3796   3.315   2.276   9.573  0.0808 -0.0186 -0.0233
  238loPI   GL1 3797   3.270   2.350   9.165 -0.3163 -0.0570  0.4126
  238loPI   GL2 3798   3.323   2.531   8.921 -0.0260 -0.1498  0.2529
  238loPI   C1A 3799   3.192   2.059   8.728 -0.0333 -0.3768 -0.1657
  238loPI   C2A 3800   2.888   2.046   8.437  0.2118 -0.0482  0.2420
  238loPI   C3A 3801   2.874   2.242   7.997  0.0437 -0.1939  0.1896
  238loPI   C4A 3802   2.751   2.338   7.556  0.1811 -0.0506  0.0936
  238loPI   C5A 3803   2.436   2.543   7.241  0.0299 -0.1870  0.0998
  238loPI   C6A 3804   2.504   3.002   7.093  0.3388 -0.0003  0.0273
  238loPI   C1B 3805   3.503   2.748   8.531  0.1239  0.3309 -0.1187
  238loPI   C2B 3806   3.828   2.996   8.407  0.0347  0.2593 -0.2792
  238loPI   C3B 3807   3.798   3.175   8.063 -0.1902  0.0204  0.0075
  238loPI   C4B 3808   3.976   3.087   7.624 -0.0198  0.1085 -0.1094
  239loPI    C1 3809   9.760  17.496   9.645  0.0941  0.1625 -0.0170
  239loPI    C2 3810   9.401  17.348   9.743  0.2396 -0.1272  0.0897
  239loPI    C3 3811   9.488  17.730   9.822 -0.1027 -0.0088 -0.0883
  239loPI   PO4 3812   9.737  17.511   9.359  0.1918  0.4149 -0.1875
  239loPI   GL1 3813   9.999  17.803   9.136  0.2543 -0.1312 -0.0271
  239loPI   GL2 3814   9.821  18.043   9.033  0.0866 -0.2683 -0.4829
  239loPI   C1A 3815   9.946  17.603   8.736 -0.3191  0.0325 -0.2375
  239loPI   C2A 3816  10.243  17.640   8.325  0.1379 -0.0527  0.0536
  239loPI   C3A 3817  10.350  17.379   8.014  0.0010  0.1161 -0.2809
  239loPI   C4A 3818  10.107  17.277   7.600 -0.0555  0.0634 -0.0830
  239loPI   C5A 3819   9.766  17.410   7.332  0.0826 -0.2503  0.1671
  239loPI   C6A 3820   9.641  17.405   6.935  0.2758  0.0964 -0.0945
  239loPI   C1B 3821   9.816  18.101   8.602  0.3898  0.0128 -0.1946
  239loPI   C2B 3822   9.761  18.228   8.186  0.2482 -0.3810  0.2802
  239loPI   C3B 3823   9.697  18.297   7.770  0.3012 -0.1371  0.2671
  239loPI   C4B 3824   9.789  18.475   7.368 -0.0186  0.0974 -0.2016
  240loPI    C1 3825   8.651   6.631   9.334  0.1989 -0.1319 -0.1775
  240loPI    C2 3826   8.993   6.757   9.498 -0.0203 -0.0117  0.1996
  240loPI    C3 3827   8.940   6.368   9.422  0.2209 -0.0239  0.0835
  240loPI   PO4 3828   8.614   6.834   9.100 -0.1583  0.0257  0.2534
  240loPI   GL1 3829   8.692   6.875   8.724 -0.0509  0.0036 -0.1841
  240loPI   GL2 3830   8.767   6.564   8.645 -0.1815 -0.1275 -0.1152
  240loPI   C1A 3831   8.909   7.069   8.414 -0.0672  0.1594  0.0889
  240loPI   C2A 3832   8.924   7.284   8.016  0.1609  0.0133  0.0753
  240loPI   C3A 3833   9.077   7.146   7.584  0.0002  0.3303 -0.1325
  240loPI   C4A 3834   9.208   7.343   7.269  0.0219  0.1802 -0.0031
  240loPI   C5A 3835   9.054   7.727   7.185  0.0821 -0.2470  0.0534
  240loPI   C6A 3836   8.703   7.810   6.885 -0.0682 -0.1536 -0.2239
  240loPI   C1B 3837   8.533   6.702   8.258  0.0271 -0.2144 -0.3239
  240loPI   C2B 3838   8.536   6.750   7.877  0.2107  0.1328  0.0985
  240loPI   C3B 3839   8.673   6.886   7.478 -0.0281  0.1282  0.1870
  240loPI   C4B 3840   8.832   6.840   7.027  0.0615 -0.0259 -0.1607
  241loPI    C1 3841  15.906   9.198   9.455  0.0151  0.1037 -0.1751
  241loPI    C2 3842  15.694   8.984   9.192 -0.0280 -0.1827  0.0874
  241loPI    C3 3843  15.509   9.172   9.493  0.0132  0.2042 -0.1225
  241loPI   PO4 3844  16.109   9.329   9.295  0.2268 -0.0110  0.2018
  241loPI   GL1 3845  16.240   9.296   8.934 -0.0902 -0.1503 -0.2998
  241loPI   GL2 3846  16.393   9.621   9.009 -0.0634 -0.0554  0.2378
  241loPI   C1A 3847  16.466   9.349   8.476  0.3101 -0.1009  0.1383
  241loPI   C2A 3848  16.630   9.559   8.126 -0.2542 -0.3419  0.1475
  241loPI   C3A 3849  16.720   9.531   7.725  0.0214  0.5211  0.2467
  241loPI   C4A 3850  17.006   9.704   7.436 -0.0347 -0.0521 -0.1352
  241loPI   C5A 3851  16.963   9.637   6.984  0.3786  0.2188  0.0944
  241loPI   C6A 3852  16.534   9.844   6.882  0.2475 -0.1183  0.0705
  241loPI   C1B 3853  16.081   9.635   8.600 -0.1714 -0.2157  0.0664
  241loPI   C2B 3854  16.137   9.607   8.177 -0.1953  0.3514 -0.1897
  241loPI   C3B 3855  16.202   9.733   7.799  0.3476 -0.3147  0.0710
  241loPI   C4B 3856  16.164   9.424   7.400  0.1808  0.1926  0.0483
  242loPI    C1 3857   7.997   7.129   9.520 -0.1148  0.1247  0.0057
  242loPI    C2 3858   7.893   6.933   9.853  0.1054 -0.3725 -0.2072
  242loPI    C3 3859   8.119   7.262   9.877 -0.3821 -0.0501  0.1664
  242loPI   PO4 3860   8.118   6.934   9.400 -0.1241 -0.3062 -0.0993
  242loPI   GL1 3861   8.130   6.779   8.916  0.1029  0.3295 -0.2640
  242loPI   GL2 3862   7.813   6.632   8.879 -0.1346 -0.3039  0.5813
  242loPI   C1A 3863   8.249   6.572   8.648 -0.1145  0.0842 -0.0060
  242loPI   C2A 3864   8.059   6.386   8.289 -0.0834  0.0646  0.1479
  242loPI   C3A 3865   8.123   6.428   7.887  0.1617  0.3673  0.1381
  242loPI   C4A 3866   8.497   6.307   7.618 -0.0084 -0.1449  0.0556
  242loPI   C5A 3867   8.711   6.359   7.319 -0.0384 -0.0770  0.0035
  242loPI   C6A 3868   9.030   6.192   7.067 -0.0909 -0.1406  0.1434
  242loPI   C1B 3869   7.711   6.573   8.500 -0.0679 -0.0052 -0.0126
  242loPI   C2B 3870   7.574   6.622   8.019 -0.0964 -0.0255 -0.0997
  242loPI   C3B 3871   7.730   6.526   7.607 -0.0528  0.1082 -0.1902
  242loPI   C4B 3872   7.451   6.461   7.262 -0.2461  0.0675 -0.2379
  243loPI    C1 3873   8.999  14.512   9.899 -0.0284  0.3895 -0.0645
  243loPI    C2 3874   9.194  14.541  10.247  0.1972  0.2211 -0.1737
  243loPI    C3 3875   8.812  14.422  10.240  0.2930 -0.1088 -0.0080
  243loPI   PO4 3876   9.079  14.393   9.703 -0.0945 -0.3303  0.0588
  243loPI   GL1 3877   9.219  14.471   9.232  0.0187  0.0500 -0.0071
  243loPI   GL2 3878   9.091  14.665   9.070 -0.1397  0.1915  0.0548
  243loPI   C1A 3879   9.349  14.415   8.729 -0.1532 -0.1947 -0.1501
  243loPI   C2A 3880   9.257  14.211   8.413  0.0340  0.0005  0.2075
  243loPI   C3A 3881   9.131  13.868   8.058 -0.0688  0.1407 -0.1137
  243loPI   C4A 3882   9.077  13.620   7.619 -0.0479  0.3453  0.2403
  243loPI   C5A 3883   8.844  13.621   7.217 -0.1109  0.2121 -0.0118
  243loPI   C6A 3884   8.549  13.810   6.918 -0.0519  0.1887 -0.2741
  243loPI   C1B 3885   8.880  14.653   8.579  0.1117  0.1660  0.2018
  243loPI   C2B 3886   8.838  14.422   8.174 -0.1583 -0.0080  0.2273
  243loPI   C3B 3887   8.634  14.213   7.826 -0.0762  0.1131 -0.0869
  243loPI   C4B 3888   8.645  14.049   7.402 -0.0445  0.1853 -0.1522
  244loPI    C1 3889  18.232   6.972   9.465 -0.0504  0.0467  0.1516
  244loPI    C2 3890  18.110   6.692   9.723  0.0428  0.0959  0.2494
  244loPI    C3 3891  17.911   7.038   9.695 -0.1257 -0.0145  0.0645
  244loPI   PO4 3892  18.204   6.892   9.276 -0.1618 -0.3055 -0.3599
  244loPI   GL1 3893  17.850   7.098   8.910 -0.4542 -0.2563 -0.2756
  244loPI   GL2 3894  18.127   7.107   8.807 -0.1129  0.0936 -0.0520
  244loPI   C1A 3895  17.577   7.253   8.456  0.0126  0.0855  0.2282
  244loPI   C2A 3896  17.467   7.648   8.204 -0.0071 -0.0291  0.2486
  244loPI   C3A 3897  17.584   7.572   7.722 -0.0207 -0.0665 -0.1635
  244loPI   C4A 3898  17.717   7.600   7.304 -0.0189 -0.0693 -0.1723
  244loPI   C5A 3899  17.785   7.741   6.814  0.2711 -0.1331 -0.1062
  244loPI   C6A 3900  17.611   7.619   6.424  0.4382  0.0947  0.0693
  244loPI   C1B 3901  18.117   6.983   8.357  0.2412  0.2154  0.0351
  244loPI   C2B 3902  17.771   7.021   7.991 -0.2136  0.1199 -0.0854
  244loPI   C3B 3903  17.401   7.194   7.916 -0.1817 -0.1833  0.0563
  244loPI   C4B 3904  17.295   7.109   7.532 -0.0955  0.2123 -0.1226
  245loPI    C1 3905  10.588   6.450   9.409 -0.1280 -0.1205 -0.0258
  245loPI    C2 3906  10.935   6.260   9.347  0.0544  0.1533  0.1376
  245loPI    C3 3907  10.869   6.449   9.693 -0.1107  0.4125 -0.0311
  245loPI   PO4 3908  10.433   6.465   9.152 -0.0371 -0.1593  0.0798
  245loPI   GL1 3909  10.460   6.556   8.705 -0.3982 -0.1133 -0.0907
  245loPI   GL2 3910  10.732   6.556   8.481 -0.0652  0.1006 -0.0466
  245loPI   C1A 3911  10.371   6.402   8.225  0.1110 -0.1684 -0.0080
  245loPI   C2A 3912  10.088   6.288   7.930 -0.0138 -0.1801  0.0340
  245loPI   C3A 3913   9.905   6.246   7.471 -0.1579 -0.2145  0.1612
  245loPI   C4A 3914   9.954   6.098   7.035  0.0364  0.1671  0.1420
  245loPI   C5A 3915  10.316   5.839   6.860 -0.0356 -0.0044 -0.1781
  245loPI   C6A 3916  10.360   5.752   6.417 -0.0465 -0.1109 -0.1370
  245loPI   C1B 3917  10.844   6.575   7.990  0.1845 -0.1913 -0.0298
  245loPI   C2B 3918  10.905   6.666   7.601  0.1370 -0.1971  0.0940
  245loPI   C3B 3919  10.587   6.784   7.369  0.0520 -0.1311  0.2735
  245loPI   C4B 3920  10.201   6.511   7.150  0.0703  0.4724  0.1053
  246loPI    C1 3921  19.391  14.178   9.375  0.1154  0.2237  0.0640
  246loPI    C2 3922  19.195  14.091   9.713 -0.0576  0.1123 -0.0632
  246loPI    C3 3923  19.580  13.991   9.673 -0.0634  0.0386  0.0635
  246loPI   PO4 3924  19.254  14.077   9.195 -0.2676  0.0041 -0.2142
  246loPI   GL1 3925  19.222  14.216   8.853 -0.1180  0.0875 -0.3362
  246loPI   GL2 3926  19.081  13.991   8.720 -0.0557 -0.1478 -0.0158
  246loPI   C1A 3927  19.339  14.220   8.362  0.0885 -0.0549  0.1569
  246loPI   C2A 3928  19.681  14.146   7.990  0.1026  0.0971  0.4406
  246loPI   C3A 3929  19.921  14.223   7.672 -0.2635 -0.1770 -0.0010
  246loPI   C4A 3930  20.282  14.111   7.417 -0.1224  0.0580  0.0693
  246loPI   C5A 3931  20.639  14.127   7.082  0.0582 -0.0704 -0.0399
  246loPI   C6A 3932  20.936  14.104   6.784 -0.1222  0.0281  0.2680
  246loPI   C1B 3933  18.915  14.094   8.239  0.0193 -0.3903 -0.1711
  246loPI   C2B 3934  18.910  14.051   7.830 -0.1245  0.0465  0.0735
  246loPI   C3B 3935  19.275  14.167   7.608 -0.1170 -0.0777 -0.1178
  246loPI   C4B 3936  19.698  13.967   7.373  0.0163  0.0162  0.0457
  247loPI    C1 3937   3.498   4.075   9.656  0.0960 -0.0706  0.0517
  247loPI    C2 3938   3.222   4.354   9.583 -0.0501 -0.1484  0.2975
  247loPI    C3 3939   3.262   4.203   9.951  0.1709 -0.2988  0.2139
  247loPI   PO4 3940   3.494   3.857   9.341  0.0998  0.3086 -0.3802
  247loPI   GL1 3941   3.771   3.926   8.860  0.0085 -0.2105  0.1401
  247loPI   GL2 3942   4.019   3.994   8.582 -0.1147 -0.2710 -0.0275
  247loPI   C1A 3943   3.446   3.825   8.655 -0.0055 -0.1105  0.1663
  247loPI   C2A 3944   3.373   3.991   8.260  0.2030 -0.0316 -0.0161
  247loPI   C3A 3945   3.537   4.212   7.873 -0.1453 -0.2439  0.0692
  247loPI   C4A 3946   3.653   3.974   7.499  0.2608 -0.4116  0.0630
  247loPI   C5A 3947   3.596   3.979   7.091  0.1258 -0.1676 -0.0976
  247loPI   C6A 3948   3.892   3.848   6.718 -0.0084 -0.2582 -0.2447
  247loPI   C1B 3949   3.816   3.853   8.230 -0.0617  0.2372 -0.1955
  247loPI   C2B 3950   3.737   3.600   7.811  0.0038 -0.0157  0.1046
  247loPI   C3B 3951   3.811   3.534   7.318  0.0118  0.2887  0.1240
  247loPI   C4B 3952   4.136   3.435   7.029  0.1102 -0.1405  0.0879
  248loPI    C1 3953   6.613  18.019   9.801 -0.0033 -0.0537 -0.2345
  248loPI    C2 3954   6.616  18.008  10.201  0.1199  0.2592 -0.2243
  248loPI    C3 3955   6.276  17.942  10.002  0.0227  0.2641 -0.0613
  248loPI   PO4 3956   6.679  18.245   9.685 -0.0045 -0.0378  0.1627
  248loPI   GL1 3957   6.844  18.253   9.372  0.2320  0.2348 -0.0221
  248loPI   GL2 3958   6.855  18.544   9.268 -0.1107  0.0346  0.0257
  248loPI   C1A 3959   6.815  18.114   9.025  0.1320  0.0292 -0.0843
  248loPI   C2A 3960   6.708  17.981   8.524  0.1668  0.3311  0.1172
  248loPI   C3A 3961   6.694  17.877   8.064 -0.0057 -0.1044  0.0415
  248loPI   C4A 3962   6.825  18.086   7.729 -0.1123  0.0759  0.0488
  248loPI   C5A 3963   6.778  17.930   7.272  0.1141 -0.1344  0.0091
  248loPI   C6A 3964   7.009  17.683   6.945  0.1068 -0.1083 -0.2443
  248loPI   C1B 3965   7.231  18.433   9.036 -0.0702  0.2209  0.0583
  248loPI   C2B 3966   7.370  18.219   8.732 -0.2055  0.0099 -0.0020
  248loPI   C3B 3967   7.588  18.087   8.356  0.0378 -0.1225  0.1246
  248loPI   C4B 3968   7.746  17.982   7.925  0.1588 -0.0503  0.2082
  249loPI    C1 3969   6.341   2.282   9.538 -0.1461 -0.3980 -0.2145
  249loPI    C2 3970   6.257   1.956   9.753 -0.0794 -0.1687  0.1676
  249loPI    C3 3971   6.604   2.147   9.807 -0.2460  0.1393  0.1693
  249loPI   PO4 3972   6.359   2.246   9.295 -0.0764  0.2234 -0.0323
  249loPI   GL1 3973   6.452   2.146   9.023 -0.3558  0.2280  0.1269
  249loPI   GL2 3974   6.321   1.911   8.777 -0.3256  0.0047 -0.1307
  249loPI   C1A 3975   6.571   2.315   8.656  0.1666  0.2519 -0.2915
  249loPI   C2A 3976   6.606   2.446   8.167 -0.4946  0.2937  0.0965
  249loPI   C3A 3977   6.738   2.563   7.739 -0.1395 -0.0073  0.1091
  249loPI   C4A 3978   6.672   2.699   7.312 -0.0789  0.0310 -0.0613
  249loPI   C5A 3979   6.281   2.339   7.305 -0.4918  0.1074  0.2441
  249loPI   C6A 3980   5.841   2.501   7.364  0.0847 -0.1171 -0.2298
  249loPI   C1B 3981   6.349   1.873   8.343  0.1203 -0.2550 -0.1605
  249loPI   C2B 3982   6.354   1.903   7.940  0.0226 -0.1091  0.0290
  249loPI   C3B 3983   6.449   1.922   7.499  0.1710 -0.3001  0.2500
  249loPI   C4B 3984   6.575   1.735   7.125  0.0006  0.0249 -0.1133
  250loPI    C1 3985  17.560   9.394   9.730  0.1864  0.0161 -0.0034
  250loPI    C2 3986  17.524   9.714   9.966  0.2246  0.1850 -0.2231
  250loPI    C3 3987  17.730   9.395  10.092 -0.0289  0.1433  0.0995
  250loPI   PO4 3988  17.638   9.551   9.434  0.2062 -0.2151 -0.1357
  250loPI   GL1 3989  17.802   9.507   8.873 -0.0265 -0.1800 -0.1869
  250loPI   GL2 3990  18.046   9.464   9.111  0.2576  0.0610  0.2767
  250loPI   C1A 3991  18.029   9.701   8.500  0.1014  0.1402 -0.0393
  250loPI   C2A 3992  18.301   9.841   8.231  0.0048 -0.1808 -0.1787
  250loPI   C3A 3993  18.279   9.907   7.815  0.0333 -0.1081  0.0378
  250loPI   C4A 3994  18.240  10.264   7.534  0.1931  0.0890  0.1572
  250loPI   C5A 3995  18.364  10.492   7.215  0.2131  0.2971 -0.3434
  250loPI   C6A 3996  18.431  10.391   6.853  0.2556  0.1033  0.1954
  250loPI   C1B 3997  18.322   9.598   8.875  0.0390  0.0834  0.3646
  250loPI   C2B 3998  18.454  10.057   8.689 -0.1403 -0.2737  0.1330
  250loPI   C3B 3999  18.519  10.475   8.385  0.0233 -0.2157  0.2992
  250loPI   C4B 4000  18.874  10.719   8.068 -0.2756 -0.0998 -0.0290
  251loPI    C1 4001  12.445   0.103   9.885 -0.1804 -0.0586  0.1517
  251loPI    C2 4002  12.539  -0.283   9.934 -0.1174 -0.0548  0.0631
  251loPI    C3 4003  12.698  -0.006  10.175 -0.0049 -0.0630 -0.0014
  251loPI   PO4 4004  12.374   0.123   9.640  0.3216 -0.0819 -0.0463
  251loPI   GL1 4005  12.590   0.175   9.281  0.2706  0.0783 -0.4523
  251loPI   GL2 4006  12.341   0.356   9.095 -0.4931 -0.0762  0.0242
  251loPI   C1A 4007  12.912   0.053   9.016 -0.4072  0.0501 -0.0741
  251loPI   C2A 4008  13.178  -0.279   8.875  0.1661  0.0135  0.2828
  251loPI   C3A 4009  13.333  -0.329   8.357 -0.0804 -0.1454 -0.0516
  251loPI   C4A 4010  13.471  -0.525   8.032 -0.0960  0.1786  0.0218
  251loPI   C5A 4011  13.663  -0.983   7.996  0.0309  0.0437 -0.0387
  251loPI   C6A 4012  13.743  -1.211   7.601  0.2960  0.1291 -0.0672
  251loPI   C1B 4013  12.265  -0.031   8.840  0.2125 -0.1490 -0.2357
  251loPI   C2B 4014  11.988  -0.147   8.406  0.0902  0.1220 -0.0667
  251loPI   C3B 4015  12.023  -0.313   8.012  0.0671 -0.0076  0.3883
  251loPI   C4B 4016  12.376  -0.569   7.829 -0.0061 -0.0713  0.2980
  252loPI    C1 4017  12.920   9.925   9.248 -0.0177 -0.3058 -0.4748
  252loPI    C2 4018  12.694   9.876   8.922 -0.3097 -0.2477 -0.2852
  252loPI    C3 4019  12.528   9.854   9.285 -0.0886  0.2041 -0.1495
  252loPI   PO4 4020  13.031  10.215   9.220  0.1247 -0.1754 -0.1376
  252loPI   GL1 4021  12.645  10.345   9.124  0.2492 -0.1270  0.3840
  252loPI   GL2 4022  12.510  10.699   9.179 -0.1385 -0.2379  0.0974
  252loPI   C1A 4023  12.791  10.405   8.679 -0.0626  0.1167 -0.1967
  252loPI   C2A 4024  12.911  10.187   8.323 -0.0783 -0.1248 -0.0476
  252loPI   C3A 4025  13.069  10.121   7.895  0.1752 -0.1588  0.1962
  252loPI   C4A 4026  12.935  10.071   7.443  0.0641 -0.1621  0.2338
  252loPI   C5A 4027  13.030  10.238   7.029  0.1878  0.1515  0.0118
  252loPI   C6A 4028  13.146   9.942   6.760 -0.0103 -0.2403  0.0051
  252loPI   C1B 4029  12.352  10.747   8.810 -0.1830  0.3529  0.0367
  252loPI   C2B 4030  12.418  10.890   8.427  0.1791  0.1789  0.0548
  252loPI   C3B 4031  12.273  10.808   8.037 -0.2597 -0.3819  0.0558
  252loPI   C4B 4032  12.402  10.477   7.705 -0.2072 -0.0079  0.4473
  253loPI    C1 4033  15.590  14.519   9.214 -0.0407 -0.0052  0.0079
  253loPI    C2 4034  15.755  14.713   9.522  0.1397 -0.2912  0.0948
  253loPI    C3 4035  15.451  14.461   9.584  0.0266 -0.1776  0.0069
  253loPI   PO4 4036  15.764  14.395   9.132  0.1189  0.0346 -0.1558
  253loPI   GL1 4037  15.871  14.308   8.773 -0.1437 -0.0091  0.0986
  253loPI   GL2 4038  16.067  14.244   8.555 -0.0157  0.2765  0.0784
  253loPI   C1A 4039  15.604  14.042   8.465 -0.2126 -0.0354  0.2495
  253loPI   C2A 4040  15.498  13.934   8.025 -0.0332  0.3966  0.1366
  253loPI   C3A 4041  15.379  13.949   7.631  0.2041  0.1197 -0.1450
  253loPI   C4A 4042  15.054  13.791   7.314 -0.1698 -0.2340 -0.0514
  253loPI   C5A 4043  14.948  13.632   6.860  0.3965  0.2379 -0.0804
  253loPI   C6A 4044  14.798  13.262   6.748  0.0644  0.1673  0.2907
  253loPI   C1B 4045  16.365  14.291   8.112  0.1583 -0.0457 -0.0573
  253loPI   C2B 4046  16.197  14.340   7.773 -0.1960 -0.2561  0.2809
  253loPI   C3B 4047  16.275  14.111   7.390 -0.1401 -0.4066 -0.0537
  253loPI   C4B 4048  16.198  13.925   6.946  0.0001  0.0341 -0.1844
  254loPI    C1 4049  13.574   4.289   9.172  0.2137 -0.0280 -0.0391
  254loPI    C2 4050  13.610   3.925   9.012  0.2223 -0.0982  0.1205
  254loPI    C3 4051  13.842   4.031   9.320  0.3286  0.0981 -0.0252
  254loPI   PO4 4052  13.591   4.409   8.963  0.1371 -0.3440  0.3789
  254loPI   GL1 4053  13.570   4.303   8.607  0.1015  0.1924  0.0316
  254loPI   GL2 4054  13.276   4.446   8.545  0.1867  0.1719 -0.1943
  254loPI   C1A 4055  13.508   4.315   8.134  0.2427 -0.0028  0.1997
  254loPI   C2A 4056  13.621   4.372   7.680  0.0630 -0.1729  0.0067
  254loPI   C3A 4057  13.956   4.547   7.440 -0.1424  0.1532  0.2981
  254loPI   C4A 4058  14.297   4.224   7.238 -0.1493 -0.2069  0.1996
  254loPI   C5A 4059  14.627   4.030   6.968 -0.0207  0.1597  0.0859
  254loPI   C6A 4060  14.595   3.711   6.654 -0.0063  0.0379  0.2971
  254loPI   C1B 4061  13.344   4.750   8.205  0.0673 -0.1317  0.0884
  254loPI   C2B 4062  13.117   4.830   7.902  0.2675 -0.1192  0.2618
  254loPI   C3B 4063  13.214   5.132   7.550  0.4250  0.2346  0.0321
  254loPI   C4B 4064  13.620   5.366   7.602 -0.5372 -0.0509  0.0077
  255loPI    C1 4065  14.690   6.430   9.621  0.1468 -0.1030 -0.0006
  255loPI    C2 4066  14.941   6.670   9.819 -0.1202  0.0538  0.1539
  255loPI    C3 4067  14.812   6.331   9.988 -0.0126 -0.0282  0.0732
  255loPI   PO4 4068  14.767   6.330   9.441  0.1206 -0.0854 -0.0395
  255loPI   GL1 4069  14.805   6.592   9.084  0.1148  0.0664  0.4446
  255loPI   GL2 4070  14.651   6.885   8.922 -0.1759 -0.0426 -0.1948
  255loPI   C1A 4071  14.917   6.407   8.688  0.0989  0.0648 -0.0201
  255loPI   C2A 4072  15.196   6.182   8.348 -0.2715  0.1659 -0.1028
  255loPI   C3A 4073  15.571   6.085   8.214  0.1168  0.2376  0.2470
  255loPI   C4A 4074  15.462   6.150   7.694  0.2419  0.0528 -0.2298
  255loPI   C5A 4075  15.708   6.083   7.367 -0.2372  0.0094  0.0087
  255loPI   C6A 4076  16.132   6.215   7.312 -0.0564 -0.1417  0.0519
  255loPI   C1B 4077  14.628   6.821   8.529  0.0787 -0.3807 -0.2980
  255loPI   C2B 4078  14.771   6.593   8.273  0.1706  0.1885  0.0506
  255loPI   C3B 4079  15.038   6.468   7.933  0.0721  0.2895 -0.2718
  255loPI   C4B 4080  15.018   6.255   7.506 -0.1143  0.0637  0.0806
  256loPI    C1 4081   9.107  19.762   9.486 -0.1979 -0.0750 -0.0596
  256loPI    C2 4082   8.863  19.860   9.788 -0.2612 -0.1090 -0.0995
  256loPI    C3 4083   9.118  19.554   9.828 -0.0217  0.1058  0.0468
  256loPI   PO4 4084   9.006  19.876   9.318 -0.1298  0.1572  0.7736
  256loPI   GL1 4085   9.003  20.141   9.028 -0.0635 -0.3123  0.2380
  256loPI   GL2 4086   8.864  20.451   8.977  0.0583 -0.2005 -0.1761
  256loPI   C1A 4087   8.948  19.926   8.665 -0.0270 -0.1246  0.1514
  256loPI   C2A 4088   8.954  19.865   8.202 -0.1076 -0.0966 -0.0133
  256loPI   C3A 4089   8.989  19.789   7.833 -0.2123  0.2974  0.3293
  256loPI   C4A 4090   9.213  19.680   7.405 -0.1214  0.5922  0.0973
  256loPI   C5A 4091   9.632  19.637   7.065  0.0906  0.0165  0.0731
  256loPI   C6A 4092   9.752  19.911   6.712  0.0534 -0.1425 -0.1890
  256loPI   C1B 4093   8.889  20.459   8.573  0.0840 -0.2486 -0.1278
  256loPI   C2B 4094   8.692  20.419   8.127 -0.0170  0.1001  0.0483
  256loPI   C3B 4095   8.587  20.071   7.745  0.3189 -0.0583  0.2869
  256loPI   C4B 4096   8.652  19.659   7.506 -0.1020 -0.0006  0.1925
  257loPI    C1 4097   9.985   1.225   9.189 -0.0817 -0.0007 -0.1731
  257loPI    C2 4098   9.771   1.313   9.516 -0.1203  0.0252 -0.2052
  257loPI    C3 4099   9.978   0.971   9.498 -0.0577  0.0587 -0.1234
  257loPI   PO4 4100  10.075   1.445   9.110  0.2998  0.1063 -0.3216
  257loPI   GL1 4101  10.253   1.387   8.719 -0.0924  0.0178 -0.2617
  257loPI   GL2 4102  10.465   1.521   8.689 -0.0799  0.0256 -0.1115
  257loPI   C1A 4103  10.452   1.022   8.502 -0.0744 -0.1325  0.2068
  257loPI   C2A 4104  10.722   0.717   8.216  0.2326  0.2284  0.1667
  257loPI   C3A 4105  10.879   0.655   7.731 -0.0159 -0.4165 -0.3389
  257loPI   C4A 4106  11.082   0.707   7.255 -0.0604 -0.2555 -0.1708
  257loPI   C5A 4107  11.405   0.544   7.085 -0.1065  0.0440 -0.3106
  257loPI   C6A 4108  11.654   0.652   6.749  0.1733  0.0930 -0.2724
  257loPI   C1B 4109  10.276   1.821   8.368 -0.1095 -0.2475 -0.0721
  257loPI   C2B 4110  10.241   1.999   7.944  0.0294  0.2219 -0.0384
  257loPI   C3B 4111  10.344   2.138   7.550  0.3295  0.0088 -0.1757
  257loPI   C4B 4112  10.178   2.177   7.152 -0.0947  0.2703  0.0420
  258loPI    C1 4113   0.709   3.368   9.672 -0.1022  0.1522  0.0646
  258loPI    C2 4114   0.346   3.210   9.730 -0.1086  0.0379 -0.2676
  258loPI    C3 4115   0.668   3.035   9.890 -0.1563 -0.0988 -0.3196
  258loPI   PO4 4116   0.767   3.315   9.385  0.0953 -0.3158  0.2238
  258loPI   GL1 4117   0.712   3.360   8.936  0.2546 -0.0676 -0.1545
  258loPI   GL2 4118   0.467   3.475   8.875  0.3143 -0.3411  0.1639
  258loPI   C1A 4119   0.978   3.660   8.644  0.1273 -0.1137 -0.4126
  258loPI   C2A 4120   1.200   3.777   8.270  0.0893 -0.1091 -0.2180
  258loPI   C3A 4121   1.559   3.722   7.976  0.3301  0.0418 -0.2522
  258loPI   C4A 4122   1.680   4.005   7.629 -0.1980 -0.2799  0.0021
  258loPI   C5A 4123   1.566   4.010   7.156 -0.0985 -0.0853  0.0226
  258loPI   C6A 4124   1.396   3.643   6.956  0.2590 -0.2056  0.0244
  258loPI   C1B 4125   0.364   3.701   8.578 -0.1488  0.1897  0.1763
  258loPI   C2B 4126   0.259   4.176   8.453 -0.0937  0.0927 -0.1884
  258loPI   C3B 4127  -0.164   4.209   8.408 -0.0783 -0.0859  0.0449
  258loPI   C4B 4128  -0.375   4.182   8.025  0.1389 -0.1716  0.2997
  259loPI    C1 4129   3.070  10.713   9.934 -0.0288 -0.0640  0.1021
  259loPI    C2 4130   3.127  10.607  10.315 -0.0405  0.1815  0.1742
  259loPI    C3 4131   2.943  10.951  10.229 -0.0619  0.1146 -0.0543
  259loPI   PO4 4132   3.268  10.732   9.837 -0.1745 -0.1663 -0.0368
  259loPI   GL1 4133   3.587  10.505   9.539  0.0958 -0.4277  0.2970
  259loPI   GL2 4134   3.858  10.289   9.659 -0.0861  0.1972  0.1969
  259loPI   C1A 4135   3.608  10.592   9.142  0.1055  0.2056  0.0542
  259loPI   C2A 4136   3.755  10.732   8.840  0.1432 -0.1521  0.0296
  259loPI   C3A 4137   3.716  10.707   8.337 -0.1789 -0.0714 -0.0116
  259loPI   C4A 4138   3.748  10.625   7.894  0.2475  0.2060  0.1047
  259loPI   C5A 4139   3.525  10.344   7.599  0.0207 -0.0834 -0.0179
  259loPI   C6A 4140   3.353   9.917   7.578 -0.2705 -0.1169  0.2290
  259loPI   C1B 4141   4.071  10.504   9.294  0.1175  0.0161  0.0061
  259loPI   C2B 4142   4.134  10.941   9.060 -0.1152 -0.3364 -0.1122
  259loPI   C3B 4143   3.999  11.218   8.802 -0.3323  0.0610 -0.1582
  259loPI   C4B 4144   3.772  11.634   8.867  0.1479  0.2336 -0.4300
  260loPI    C1 4145   1.588   0.268   9.755 -0.0627  0.0109 -0.0923
  260loPI    C2 4146   1.455  -0.101   9.674  0.2879 -0.1150 -0.1083
  260loPI    C3 4147   1.598  -0.015  10.038  0.0233  0.0622 -0.0439
  260loPI   PO4 4148   1.637   0.351   9.426  0.1979  0.1958  0.1280
  260loPI   GL1 4149   1.906   0.234   9.114  0.0594 -0.2428  0.1473
  260loPI   GL2 4150   1.942   0.088   8.774 -0.1186 -0.2733  0.2033
  260loPI   C1A 4151   1.760   0.549   8.656  0.0094 -0.1862 -0.1785
  260loPI   C2A 4152   1.732   0.547   8.092 -0.0467 -0.1611  0.1042
  260loPI   C3A 4153   1.837   0.576   7.698  0.2563 -0.1951  0.2017
  260loPI   C4A 4154   1.985   0.647   7.254 -0.0167  0.4326  0.0022
  260loPI   C5A 4155   2.118   0.711   6.882 -0.0984 -0.2787 -0.0999
  260loPI   C6A 4156   2.141   0.516   6.541 -0.0709 -0.1492 -0.1174
  260loPI   C1B 4157   1.736   0.152   8.408 -0.0240  0.3579 -0.3324
  260loPI   C2B 4158   1.635   0.042   7.934 -0.4990  0.2370  0.2954
  260loPI   C3B 4159   1.479  -0.365   7.778 -0.1268  0.1900  0.2662
  260loPI   C4B 4160   1.155  -0.612   8.027 -0.0639 -0.2217 -0.1701
  261loPI    C1 4161   7.586  18.560   9.896  0.3723 -0.0321 -0.1078
  261loPI    C2 4162   7.741  18.240   9.714  0.2636 -0.1580  0.0183
  261loPI    C3 4163   7.677  18.234  10.109 -0.0907 -0.1210 -0.0355
  261loPI   PO4 4164   7.706  18.775   9.816 -0.0759  0.0082 -0.2187
  261loPI   GL1 4165   7.930  18.613   9.404 -0.1860 -0.0065  0.1008
  261loPI   GL2 4166   7.999  18.944   9.239 -0.2422  0.2444 -0.2463
  261loPI   C1A 4167   7.787  18.510   9.018 -0.1888  0.2589 -0.0399
  261loPI   C2A 4168   7.815  18.480   8.543  0.0373 -0.0037 -0.0874
  261loPI   C3A 4169   7.868  18.547   8.036  0.1312  0.0897  0.1626
  261loPI   C4A 4170   7.817  18.800   7.658  0.0089  0.2537 -0.3570
  261loPI   C5A 4171   7.700  18.781   7.205 -0.1520 -0.1671 -0.1203
  261loPI   C6A 4172   7.871  19.169   6.960  0.1868  0.0514 -0.2768
  261loPI   C1B 4173   8.351  18.743   8.872  0.1004  0.2030  0.1776
  261loPI   C2B 4174   8.242  18.729   8.349  0.2985 -0.0214 -0.0344
  261loPI   C3B 4175   8.325  18.830   8.018 -0.1547 -0.1530 -0.2580
  261loPI   C4B 4176   8.328  18.664   7.645 -0.1853 -0.1569 -0.0317
  262loPI    C1 4177  14.930  10.360   8.790  0.0055  0.0185  0.1055
  262loPI    C2 4178  14.828  10.097   9.073  0.1141 -0.0545  0.0776
  262loPI    C3 4179  14.591  10.151   8.756  0.0576 -0.0686  0.1173
  262loPI   PO4 4180  15.204  10.375   8.815 -0.0558 -0.1245 -0.1643
  262loPI   GL1 4181  15.593  10.444   8.634 -0.2924 -0.0582 -0.3359
  262loPI   GL2 4182  15.382  10.172   8.435 -0.5002  0.1878 -0.1241
  262loPI   C1A 4183  15.730  10.487   8.276  0.1062  0.0590 -0.1809
  262loPI   C2A 4184  15.637  10.397   7.816  0.1214 -0.1871 -0.0066
  262loPI   C3A 4185  15.825  10.307   7.403  0.0706  0.1383 -0.1084
  262loPI   C4A 4186  16.008  10.366   7.067  0.1064  0.2470  0.2377
  262loPI   C5A 4187  16.103  10.300   6.638  0.2223  0.0539 -0.0033
  262loPI   C6A 4188  16.212   9.919   6.369 -0.0142 -0.1225  0.1542
  262loPI   C1B 4189  15.261  10.135   7.958  0.0262 -0.2989 -0.1937
  262loPI   C2B 4190  15.007  10.083   7.566 -0.1724  0.2223  0.2611
  262loPI   C3B 4191  15.055  10.103   7.081  0.2113 -0.0780 -0.1199
  262loPI   C4B 4192  15.118   9.926   6.696  0.1411  0.0006  0.0378
  263loPI    C1 4193  13.451   2.464   9.282  0.0144  0.1001  0.2832
  263loPI    C2 4194  13.250   2.705   9.033 -0.1848 -0.1300  0.2173
  263loPI    C3 4195  13.207   2.745   9.429 -0.0004  0.1237  0.2138
  263loPI   PO4 4196  13.708   2.410   9.079  0.3113 -0.0420 -0.1690
  263loPI   GL1 4197  13.618   2.280   8.697 -0.1130  0.0855  0.1194
  263loPI   GL2 4198  13.756   2.020   8.703  0.1224 -0.2431 -0.1074
  263loPI   C1A 4199  13.689   2.218   8.221 -0.5604  0.0923 -0.0650
  263loPI   C2A 4200  13.511   1.986   7.852  0.1928  0.1106 -0.2519
  263loPI   C3A 4201  13.370   1.920   7.512  0.0459 -0.0459  0.0431
  263loPI   C4A 4202  13.411   1.829   7.112 -0.1940 -0.1756 -0.1741
  263loPI   C5A 4203  13.118   1.587   6.897  0.1791 -0.1085  0.2418
  263loPI   C6A 4204  13.015   1.535   6.452  0.4341 -0.2865  0.1002
  263loPI   C1B 4205  13.873   1.778   8.308  0.3113  0.0296 -0.0901
  263loPI   C2B 4206  13.926   1.728   7.877  0.0369  0.0328  0.2185
  263loPI   C3B 4207  13.765   1.586   7.497 -0.1071 -0.0351 -0.0574
  263loPI   C4B 4208  13.392   1.412   7.455 -0.1213 -0.1812  0.2032
  264loPI    C1 4209  17.993   3.265   9.372  0.1467  0.1258 -0.1336
  264loPI    C2 4210  17.817   2.947   9.540  0.1991  0.1986  0.0616
  264loPI    C3 4211  17.841   3.292   9.741  0.2855  0.2799 -0.0867
  264loPI   PO4 4212  18.117   3.190   9.176  0.0204  0.0164  0.0682
  264loPI   GL1 4213  17.922   3.054   8.873 -0.0880 -0.0245  0.1132
  264loPI   GL2 4214  17.600   3.225   8.874  0.1137 -0.1709 -0.1721
  264loPI   C1A 4215  18.181   3.083   8.623 -0.1537  0.0352 -0.2805
  264loPI   C2A 4216  18.383   3.290   8.317  0.2870  0.1556  0.0632
  264loPI   C3A 4217  18.507   3.125   7.888 -0.0598 -0.2671  0.0779
  264loPI   C4A 4218  18.855   3.187   7.489  0.0668  0.0374  0.1148
  264loPI   C5A 4219  19.276   3.267   7.415  0.0640 -0.0781  0.3240
  264loPI   C6A 4220  19.601   3.006   7.652  0.1240 -0.0181  0.0040
  264loPI   C1B 4221  17.610   3.192   8.347 -0.1906 -0.0190 -0.0813
  264loPI   C2B 4222  17.932   3.085   8.171  0.0619  0.0641 -0.4273
  264loPI   C3B 4223  17.994   2.977   7.805 -0.0738  0.0778  0.0128
  264loPI   C4B 4224  17.852   2.966   7.426 -0.0942 -0.1764  0.2771
  265loPI    C1 4225  11.896   3.259   9.307 -0.1253 -0.2396 -0.1268
  265loPI    C2 4226  11.928   2.922   9.519  0.0460  0.0423  0.3102
  265loPI    C3 4227  11.668   3.204   9.631 -0.0571  0.0825 -0.0200
  265loPI   PO4 4228  11.868   3.211   9.105  0.3085 -0.0723 -0.1051
  265loPI   GL1 4229  12.069   3.194   8.673  0.0790 -0.0352  0.2600
  265loPI   GL2 4230  12.026   2.846   8.699  0.1317  0.0413 -0.3097
  265loPI   C1A 4231  11.882   3.102   8.214  0.3982  0.1444  0.2054
  265loPI   C2A 4232  11.974   3.073   7.736  0.0890 -0.0723 -0.1805
  265loPI   C3A 4233  11.983   2.905   7.271  0.0689  0.2432 -0.0083
  265loPI   C4A 4234  11.822   2.735   6.990  0.0655 -0.0100  0.2106
  265loPI   C5A 4235  11.928   2.280   6.821  0.3594  0.0178 -0.3301
  265loPI   C6A 4236  11.935   1.938   6.648 -0.1779 -0.2967  0.2200
  265loPI   C1B 4237  12.153   2.681   8.256 -0.0557 -0.2429 -0.0412
  265loPI   C2B 4238  12.211   2.689   7.886 -0.1188 -0.3353  0.1134
  265loPI   C3B 4239  12.261   2.649   7.528  0.1312  0.4836  0.0524
  265loPI   C4B 4240  12.440   2.449   7.093  0.0503 -0.1988  0.0838
  266loPI    C1 4241   7.054  19.042   9.677  0.0380  0.0518  0.0883
  266loPI    C2 4242   7.243  18.992  10.027  0.2108  0.2304  0.0224
  266loPI    C3 4243   7.177  19.361   9.885  0.0116  0.1631 -0.0647
  266loPI   PO4 4244   7.129  18.870   9.513 -0.0793 -0.2695  0.0448
  266loPI   GL1 4245   7.406  18.872   9.181 -0.1639 -0.1127  0.0179
  266loPI   GL2 4246   7.348  19.058   9.045  0.2897 -0.1595 -0.0339
  266loPI   C1A 4247   7.428  18.778   8.693  0.2523  0.0583 -0.2723
  266loPI   C2A 4248   7.396  18.536   8.304  0.0951 -0.0900 -0.1651
  266loPI   C3A 4249   7.314  18.474   7.844 -0.0125  0.1178  0.0098
  266loPI   C4A 4250   7.544  18.302   7.554 -0.2147 -0.0014 -0.1121
  266loPI   C5A 4251   7.825  17.958   7.407  0.1084 -0.3505  0.4226
  266loPI   C6A 4252   7.852  17.509   7.297  0.2355 -0.2560  0.5562
  266loPI   C1B 4253   6.970  18.840   8.893  0.1710 -0.1078 -0.0585
  266loPI   C2B 4254   6.899  18.485   8.575 -0.0437  0.0270 -0.3133
  266loPI   C3B 4255   7.019  18.220   8.219  0.2385 -0.0657  0.1110
  266loPI   C4B 4256   7.265  17.933   7.938 -0.1244  0.1299 -0.2860
  267loPI    C1 4257   7.766   7.526   9.265  0.2577 -0.0837 -0.0172
  267loPI    C2 4258   7.858   7.598   9.648 -0.0725  0.0570  0.0399
  267loPI    C3 4259   7.532   7.385   9.558  0.1252 -0.1675 -0.1618
  267loPI   PO4 4260   7.880   7.743   9.143 -0.3742 -0.0472 -0.0856
  267loPI   GL1 4261   7.940   7.721   8.736 -0.1163 -0.1479  0.1261
  267loPI   GL2 4262   7.984   8.084   8.752 -0.0276  0.0482 -0.3500
  267loPI   C1A 4263   7.819   7.428   8.393 -0.4072  0.0148  0.3405
  267loPI   C2A 4264   7.931   7.468   7.992  0.0788 -0.4331 -0.1351
  267loPI   C3A 4265   8.053   7.447   7.645  0.0661 -0.1025  0.0480
  267loPI   C4A 4266   8.356   7.767   7.406 -0.3747  0.0901  0.4077
  267loPI   C5A 4267   8.706   8.091   7.372 -0.0771  0.0751 -0.1419
  267loPI   C6A 4268   9.001   8.254   7.658 -0.1917 -0.1339  0.0941
  267loPI   C1B 4269   8.094   8.173   8.327 -0.0299 -0.3395 -0.1180
  267loPI   C2B 4270   7.820   7.976   8.183  0.2429 -0.2248  0.2154
  267loPI   C3B 4271   7.736   7.894   7.744 -0.3242  0.1371  0.2024
  267loPI   C4B 4272   7.911   7.904   7.363  0.0366  0.2305 -0.0422
  268loPI    C1 4273  17.080   8.872   9.282 -0.0188  0.2203 -0.0317
  268loPI    C2 4274  17.121   9.203   9.502  0.0693  0.1132  0.1159
  268loPI    C3 4275  17.389   8.909   9.533 -0.0352  0.0067  0.0221
  268loPI   PO4 4276  17.095   8.909   8.999 -0.2180 -0.1080  0.0371
  268loPI   GL1 4277  17.222   9.103   8.760 -0.4127  0.1941  0.1759
  268loPI   GL2 4278  17.549   9.017   8.708 -0.0323  0.4366 -0.2268
  268loPI   C1A 4279  16.992   9.202   8.314  0.0055  0.0204  0.1573
  268loPI   C2A 4280  17.073   9.205   7.895 -0.4802  0.1961  0.0548
  268loPI   C3A 4281  17.014   9.202   7.484  0.4218  0.3795 -0.1009
  268loPI   C4A 4282  17.031   9.032   7.067  0.2318  0.1739  0.4143
  268loPI   C5A 4283  16.994   8.650   6.835  0.3288 -0.2733  0.1562
  268loPI   C6A 4284  16.677   8.284   6.760 -0.0721  0.0268 -0.1022
  268loPI   C1B 4285  17.816   9.181   8.380 -0.0066 -0.1455  0.0324
  268loPI   C2B 4286  18.136   9.332   7.996  0.0297 -0.5024 -0.3945
  268loPI   C3B 4287  18.258   9.404   7.569  0.0829  0.0640 -0.1253
  268loPI   C4B 4288  18.716   9.545   7.388  0.1877  0.1501 -0.0051
  269loPI    C1 4289  15.821  12.480   9.305 -0.0788 -0.1428  0.1804
  269loPI    C2 4290  16.200  12.403   9.200 -0.1622 -0.0560 -0.2000
  269loPI    C3 4291  16.121  12.690   9.468  0.0354 -0.0136 -0.1855
  269loPI   PO4 4292  15.672  12.237   9.274 -0.3032  0.3723  0.1017
  269loPI   GL1 4293  15.532  12.229   8.974  0.1634 -0.0119 -0.0265
  269loPI   GL2 4294  15.889  12.301   8.794  0.1028 -0.0143 -0.0186
  269loPI   C1A 4295  15.287  11.993   8.624 -0.2324 -0.0520  0.0544
  269loPI   C2A 4296  15.327  12.094   8.175 -0.0780  0.3711  0.0702
  269loPI   C3A 4297  15.587  12.040   7.802 -0.0930 -0.1328 -0.2538
  269loPI   C4A 4298  15.530  12.212   7.384 -0.2898  0.1122  0.0804
  269loPI   C5A 4299  15.785  12.292   7.046  0.1860  0.4206  0.0432
  269loPI   C6A 4300  15.856  12.315   6.627  0.2931  0.2939  0.4264
  269loPI   C1B 4301  15.727  11.941   8.507  0.3232 -0.0304 -0.1443
  269loPI   C2B 4302  15.557  11.621   8.163  0.0080 -0.2249  0.2237
  269loPI   C3B 4303  15.619  11.372   7.837 -0.2005  0.0910 -0.0836
  269loPI   C4B 4304  16.025  11.247   7.723  0.0680 -0.3214 -0.0971
  270loPI    C1 4305   2.128  16.895   9.593 -0.1547 -0.2051  0.2004
  270loPI    C2 4306   2.336  16.936   9.932 -0.1612  0.0927  0.1710
  270loPI    C3 4307   2.021  16.689   9.919  0.0259 -0.1564  0.2912
  270loPI   PO4 4308   2.261  17.113   9.471  0.0149  0.0458  0.2263
  270loPI   GL1 4309   2.559  17.282   9.368 -0.0673 -0.2202  0.2201
  270loPI   GL2 4310   2.829  17.476   9.437 -0.0835 -0.0336  0.1631
  270loPI   C1A 4311   2.565  17.185   8.878  0.3430  0.1002 -0.0449
  270loPI   C2A 4312   2.598  16.952   8.525  0.1624 -0.0100 -0.0147
  270loPI   C3A 4313   2.818  16.959   8.093  0.2943 -0.0552 -0.0180
  270loPI   C4A 4314   2.933  16.675   7.731 -0.0666  0.1352 -0.1274
  270loPI   C5A 4315   3.091  16.399   7.504 -0.1659  0.4627  0.2437
  270loPI   C6A 4316   3.178  16.344   6.991  0.1969  0.1277  0.0095
  270loPI   C1B 4317   2.808  17.604   8.987  0.2283  0.2322  0.2087
  270loPI   C2B 4318   2.880  17.492   8.657 -0.2997 -0.1292 -0.2684
  270loPI   C3B 4319   2.888  17.428   8.206  0.1409 -0.0802  0.1002
  270loPI   C4B 4320   2.882  17.340   7.753  0.1176 -0.0627  0.3545
  271loPI    C1 4321  14.105  10.070   8.964 -0.0083 -0.0981  0.0989
  271loPI    C2 4322  14.073  10.272   8.621 -0.1055  0.0924  0.2181
  271loPI    C3 4323  13.745  10.177   8.828 -0.0287  0.2777  0.4291
  271loPI   PO4 4324  14.265   9.847   8.919 -0.1162 -0.1682  0.0525
  271loPI   GL1 4325  14.409   9.665   8.547 -0.1125  0.0625 -0.3653
  271loPI   GL2 4326  14.610   9.447   8.380  0.1258 -0.0704 -0.1065
  271loPI   C1A 4327  14.368  10.040   8.295 -0.1172  0.2250  0.0539
  271loPI   C2A 4328  14.115  10.193   7.950 -0.0748  0.2628  0.2404
  271loPI   C3A 4329  13.811  10.359   7.615  0.2199 -0.2642  0.0806
  271loPI   C4A 4330  13.771  10.351   7.215  0.4188 -0.2345  0.2378
  271loPI   C5A 4331  13.479  10.375   6.868  0.2653 -0.1917 -0.0285
  271loPI   C6A 4332  13.455  10.710   6.443  0.1249  0.1802 -0.0666
  271loPI   C1B 4333  14.410   9.350   7.997  0.0778  0.6566  0.2374
  271loPI   C2B 4334  14.397   9.287   7.543 -0.2033 -0.2819  0.3232
  271loPI   C3B 4335  14.061   9.340   7.304  0.2056  0.0671  0.0606
  271loPI   C4B 4336  13.610   9.461   7.478  0.3089 -0.1811 -0.2535
  272loPI    C1 4337   2.914  12.679   9.607  0.0037  0.2269 -0.3056
  272loPI    C2 4338   3.279  12.557   9.498  0.0214 -0.0551  0.0506
  272loPI    C3 4339   3.183  12.945   9.478  0.3265  0.0166 -0.0794
  272loPI   PO4 4340   2.773  12.420   9.576 -0.0948  0.1137 -0.1971
  272loPI   GL1 4341   2.820  12.045   9.219  0.1955 -0.0263 -0.0657
  272loPI   GL2 4342   3.020  12.253   9.089  0.4087  0.0989 -0.0664
  272loPI   C1A 4343   2.940  11.696   8.819  0.2880 -0.0792 -0.1993
  272loPI   C2A 4344   3.117  11.415   8.554  0.2765  0.1448 -0.2120
  272loPI   C3A 4345   3.238  11.308   8.117  0.0331  0.0993  0.0327
  272loPI   C4A 4346   3.277  11.331   7.636 -0.1007  0.1383  0.1669
  272loPI   C5A 4347   3.056  11.656   7.339  0.0822 -0.0456 -0.0902
  272loPI   C6A 4348   3.074  12.118   7.256 -0.0763  0.4080  0.1255
  272loPI   C1B 4349   3.289  12.623   8.935  0.2057 -0.0375 -0.0225
  272loPI   C2B 4350   3.224  12.667   8.465 -0.1310  0.2307 -0.3154
  272loPI   C3B 4351   3.160  12.510   8.082 -0.2087  0.0761 -0.0512
  272loPI   C4B 4352   3.046  12.270   7.696  0.0872  0.2334  0.3363
  273loPI    C1 4353  10.358   7.365   9.315 -0.1927 -0.1362  0.0647
  273loPI    C2 4354  10.332   7.721   9.494  0.0138 -0.0451 -0.0832
  273loPI    C3 4355  10.497   7.413   9.687  0.0061 -0.0126 -0.0245
  273loPI   PO4 4356  10.497   7.403   9.104 -0.0040  0.4769  0.1686
  273loPI   GL1 4357  10.677   7.393   8.728 -0.1416  0.1075 -0.0575
  273loPI   GL2 4358  10.774   7.038   8.639  0.3320 -0.1116 -0.3017
  273loPI   C1A 4359  10.903   7.634   8.325 -0.2413  0.0873  0.2872
  273loPI   C2A 4360  10.977   7.593   7.907  0.0217  0.0117 -0.0153
  273loPI   C3A 4361  10.804   7.639   7.459  0.3929  0.0700  0.0188
  273loPI   C4A 4362  10.755   7.610   7.014  0.3425 -0.0304 -0.2132
  273loPI   C5A 4363  10.670   7.675   6.638 -0.2181 -0.1931  0.4637
  273loPI   C6A 4364  10.344   7.600   6.459  0.1275  0.3858 -0.4642
  273loPI   C1B 4365  10.801   7.160   8.235  0.1899 -0.0219  0.2064
  273loPI   C2B 4366  10.426   7.421   8.205  0.1565  0.4723  0.2089
  273loPI   C3B 4367  10.201   7.816   8.321 -0.1797 -0.0603 -0.1774
  273loPI   C4B 4368  10.165   8.302   8.278 -0.1931 -0.0776 -0.0213
  274loPI    C1 4369  18.208  10.255   9.442 -0.3294  0.0693  0.2193
  274loPI    C2 4370  18.016  10.398   9.762  0.0285  0.2564  0.3555
  274loPI    C3 4371  18.189  10.038   9.777 -0.3866  0.0441  0.1999
  274loPI   PO4 4372  18.002  10.244   9.181  0.1689 -0.0620  0.1002
  274loPI   GL1 4373  17.960  10.662   8.941 -0.2500 -0.0281 -0.1054
  274loPI   GL2 4374  18.232  10.474   8.822 -0.1363 -0.0493 -0.0610
  274loPI   C1A 4375  17.897  10.682   8.524  0.2927 -0.0523 -0.0936
  274loPI   C2A 4376  17.642  10.491   8.195 -0.1439 -0.1176  0.1012
  274loPI   C3A 4377  17.656  10.420   7.779  0.1002  0.2107  0.1490
  274loPI   C4A 4378  17.556  10.382   7.292  0.4094 -0.1699  0.0966
  274loPI   C5A 4379  17.431  10.371   6.861 -0.0019 -0.0830 -0.0757
  274loPI   C6A 4380  17.343  10.709   6.615 -0.2355  0.3048  0.0242
  274loPI   C1B 4381  18.045  10.236   8.455  0.1405 -0.1959  0.2015
  274loPI   C2B 4382  18.134  10.436   8.051 -0.1262 -0.0918  0.1726
  274loPI   C3B 4383  18.362  10.626   7.842 -0.3875  0.2994  0.2113
  274loPI   C4B 4384  18.576  10.865   7.448 -0.1005  0.1895 -0.0540
  275loPI    C1 4385   7.133  11.919   9.816  0.1120 -0.1905  0.2914
  275loPI    C2 4386   6.818  11.707   9.691 -0.0459  0.1653  0.0689
  275loPI    C3 4387   7.150  11.520   9.811 -0.1005 -0.2025 -0.3301
  275loPI   PO4 4388   7.044  12.150   9.682 -0.0002 -0.0356 -0.0271
  275loPI   GL1 4389   7.089  12.210   9.360 -0.3803 -0.1589 -0.0817
  275loPI   GL2 4390   7.031  12.494   9.190 -0.2738  0.3162 -0.0567
  275loPI   C1A 4391   7.123  11.941   8.885  0.1124 -0.1112 -0.1799
  275loPI   C2A 4392   7.029  11.938   8.399  0.3684  0.0695  0.2394
  275loPI   C3A 4393   6.916  12.072   7.930  0.2442  0.2822 -0.1164
  275loPI   C4A 4394   6.786  12.440   7.683 -0.0077  0.0483 -0.4598
  275loPI   C5A 4395   6.565  12.634   7.443 -0.0450 -0.0967  0.0268
  275loPI   C6A 4396   6.173  12.907   7.299 -0.0837  0.0189 -0.0898
  275loPI   C1B 4397   7.065  12.370   8.661 -0.5739 -0.2094 -0.3527
  275loPI   C2B 4398   7.176  12.389   8.309 -0.0034  0.0845  0.0198
  275loPI   C3B 4399   7.344  12.745   8.093  0.0954  0.2811  0.0174
  275loPI   C4B 4400   7.190  12.767   7.629 -0.0994 -0.3464 -0.0528
  276loPI    C1 4401   8.352   2.698   9.525  0.0929  0.1501  0.1235
  276loPI    C2 4402   8.087   2.992   9.578  0.0416  0.1126  0.0765
  276loPI    C3 4403   8.477   3.064   9.624  0.0166  0.1432  0.2473
  276loPI   PO4 4404   8.327   2.511   9.304  0.0219  0.1653  0.1700
  276loPI   GL1 4405   8.275   2.237   9.032  0.0610 -0.0390  0.0214
  276loPI   GL2 4406   8.110   2.032   8.867  0.0773 -0.0887  0.1344
  276loPI   C1A 4407   8.318   2.368   8.536 -0.1428  0.1220 -0.0553
  276loPI   C2A 4408   8.266   2.403   8.075  0.0189  0.0250  0.0856
  276loPI   C3A 4409   8.399   2.315   7.788  0.1807  0.1139  0.0367
  276loPI   C4A 4410   8.193   2.429   7.394 -0.1233 -0.1174  0.3671
  276loPI   C5A 4411   8.024   2.392   6.993  0.4585  0.1197  0.0172
  276loPI   C6A 4412   7.897   2.288   6.617 -0.0618 -0.1309 -0.2004
  276loPI   C1B 4413   8.453   1.861   8.602 -0.3537  0.0398 -0.0217
  276loPI   C2B 4414   8.554   1.938   8.089 -0.0225 -0.4572  0.0314
  276loPI   C3B 4415   8.657   1.924   7.651 -0.1948  0.2111 -0.0950
  276loPI   C4B 4416   8.723   1.965   7.259  0.1124  0.1850  0.1790
  277loPI    C1 4417  12.745  19.161   9.650 -0.2103 -0.3165  0.0804
  277loPI    C2 4418  13.098  19.003   9.753 -0.0723 -0.0979 -0.0468
  277loPI    C3 4419  12.883  19.208  10.022 -0.0790 -0.1878  0.0167
  277loPI   PO4 4420  12.615  19.025   9.535  0.1813 -0.1816 -0.0935
  277loPI   GL1 4421  12.698  18.878   9.133  0.2080 -0.1908  0.0816
  277loPI   GL2 4422  12.979  18.775   9.247 -0.1813  0.1139  0.2024
  277loPI   C1A 4423  12.642  18.980   8.702  0.1187 -0.1815 -0.1766
  277loPI   C2A 4424  12.839  19.193   8.420 -0.2025 -0.1413 -0.2226
  277loPI   C3A 4425  12.839  19.390   7.939 -0.0241 -0.4001 -0.0441
  277loPI   C4A 4426  13.098  19.342   7.594 -0.0106  0.1944 -0.3512
  277loPI   C5A 4427  13.441  19.069   7.468  0.1970 -0.0482 -0.0304
  277loPI   C6A 4428  13.767  19.256   7.668  0.0735  0.2598  0.0582
  277loPI   C1B 4429  12.878  18.543   8.778 -0.2175  0.0670  0.0452
  277loPI   C2B 4430  12.835  18.531   8.299  0.0134  0.1391  0.0853
  277loPI   C3B 4431  12.509  18.428   8.048 -0.1493 -0.1104 -0.0962
  277loPI   C4B 4432  12.248  18.372   7.763  0.1344  0.2670 -0.0217
  278loPI    C1 4433  13.428  11.137   9.594 -0.0790  0.1047  0.0074
  278loPI    C2 4434  13.238  11.274   9.918 -0.0587  0.0632  0.0369
  278loPI    C3 4435  13.570  11.055   9.959 -0.0037  0.1364 -0.0144
  278loPI   PO4 4436  13.277  10.870   9.469  0.1194  0.1683 -0.0908
  278loPI   GL1 4437  13.064  10.734   9.105  0.0516 -0.1895 -0.0106
  278loPI   GL2 4438  13.323  10.622   8.918 -0.2620  0.0159 -0.2208
  278loPI   C1A 4439  12.827  10.913   8.708  0.1870 -0.0926  0.0419
  278loPI   C2A 4440  12.784  11.175   8.276  0.2664 -0.1275  0.1273
  278loPI   C3A 4441  12.767  11.140   7.952  0.1793 -0.2573 -0.2266
  278loPI   C4A 4442  12.517  11.013   7.645 -0.0569 -0.0965 -0.1441
  278loPI   C5A 4443  12.233  11.217   7.357  0.1966 -0.4370  0.0170
  278loPI   C6A 4444  12.023  11.205   7.033 -0.4353  0.0218 -0.1923
  278loPI   C1B 4445  13.249  10.666   8.531 -0.0096 -0.0963  0.5500
  278loPI   C2B 4446  12.967  10.693   8.252  0.0568  0.0065  0.0323
  278loPI   C3B 4447  12.817  10.650   7.846 -0.0201  0.1477  0.0066
  278loPI   C4B 4448  12.714  10.598   7.378 -0.0082 -0.2301 -0.2444
  279loPI    C1 4449   5.724  13.103   9.673  0.2024  0.0193 -0.1194
  279loPI    C2 4450   5.574  13.145   9.305 -0.1060 -0.0485 -0.0047
  279loPI    C3 4451   5.498  12.814   9.515  0.0338  0.0077  0.1371
  279loPI   PO4 4452   6.028  13.218   9.549  0.0299  0.7586 -0.1000
  279loPI   GL1 4453   6.097  13.219   9.125 -0.0069  0.1344 -0.0169
  279loPI   GL2 4454   6.410  13.069   9.209 -0.2966 -0.0439  0.0406
  279loPI   C1A 4455   5.701  13.125   8.871  0.1227  0.4169 -0.1896
  279loPI   C2A 4456   5.752  12.943   8.447 -0.0229  0.3207 -0.2257
  279loPI   C3A 4457   5.866  12.526   8.105  0.2578  0.1964 -0.1356
  279loPI   C4A 4458   5.768  12.536   7.627  0.0355  0.1769  0.0624
  279loPI   C5A 4459   5.748  12.592   7.213 -0.0106  0.1496 -0.3108
  279loPI   C6A 4460   5.549  12.817   6.975 -0.3789  0.2144 -0.1086
  279loPI   C1B 4461   6.817  13.079   9.131  0.0535  0.0620 -0.2811
  279loPI   C2B 4462   6.959  13.364   8.764 -0.4170  0.4031  0.0551
  279loPI   C3B 4463   7.057  13.362   8.365  0.0575  0.1830  0.1250
  279loPI   C4B 4464   7.112  13.314   7.941  0.2061 -0.0115 -0.4717
  280loPI    C1 4465  19.323  15.471   9.985  0.1646  0.1455  0.1367
  280loPI    C2 4466  19.723  15.473   9.959  0.1612 -0.0010  0.0629
  280loPI    C3 4467  19.525  15.126   9.982  0.0293  0.0663 -0.0362
  280loPI   PO4 4468  19.252  15.610   9.717 -0.0423 -0.4073  0.2315
  280loPI   GL1 4469  19.155  15.574   9.156  0.0730 -0.1813  0.1694
  280loPI   GL2 4470  19.138  15.865   9.130  0.3532 -0.0158 -0.1923
  280loPI   C1A 4471  19.124  15.471   8.726  0.0468 -0.0736  0.0710
  280loPI   C2A 4472  19.229  15.381   8.204  0.0001  0.2521  0.5274
  280loPI   C3A 4473  19.317  15.461   7.775 -0.2160 -0.0549 -0.2712
  280loPI   C4A 4474  19.386  15.123   7.476  0.1074  0.1645 -0.1025
  280loPI   C5A 4475  19.358  14.866   7.187 -0.0459 -0.4217  0.3009
  280loPI   C6A 4476  19.066  14.658   6.871  0.2573  0.2488  0.1795
  280loPI   C1B 4477  19.082  16.019   8.754  0.0075  0.2875  0.0771
  280loPI   C2B 4478  19.258  15.939   8.398  0.1849 -0.1009  0.1233
  280loPI   C3B 4479  19.496  15.780   8.099  0.4522 -0.3699 -0.0215
  280loPI   C4B 4480  19.768  15.718   7.712  0.0364 -0.1048  0.3095
  281loPI    C1 4481   2.626   1.572   9.404 -0.1540  0.4375 -0.0795
  281loPI    C2 4482   2.538   1.242   9.613  0.1068  0.1608 -0.3935
  281loPI    C3 4483   2.371   1.592   9.711  0.0638 -0.0003  0.1408
  281loPI   PO4 4484   2.593   1.513   9.125  0.1654  0.1857 -0.2964
  281loPI   GL1 4485   2.837   1.566   8.746  0.1197 -0.4434  0.2058
  281loPI   GL2 4486   2.619   1.419   8.552  0.1334  0.1540 -0.0114
  281loPI   C1A 4487   3.010   1.340   8.299  0.1610  0.2181 -0.1255
  281loPI   C2A 4488   3.005   1.307   7.742 -0.1589 -0.1704  0.1008
  281loPI   C3A 4489   3.258   1.573   7.463  0.1912 -0.0902 -0.3700
  281loPI   C4A 4490   3.517   1.756   7.176  0.4199  0.0847  0.1027
  281loPI   C5A 4491   3.853   1.923   7.275 -0.0957  0.2671  0.1965
  281loPI   C6A 4492   4.025   2.215   7.413  0.0420  0.1085 -0.1523
  281loPI   C1B 4493   2.508   1.053   8.386  0.0460 -0.0113  0.1099
  281loPI   C2B 4494   2.595   0.593   8.130  0.2912  0.1859 -0.2440
  281loPI   C3B 4495   2.648   0.097   8.060  0.3329  0.0216 -0.1735
  281loPI   C4B 4496   2.483  -0.061   7.682  0.0084 -0.0022 -0.3628
  282loPI    C1 4497   1.514   3.041   9.193  0.1397 -0.1277 -0.2496
  282loPI    C2 4498   1.538   2.784   9.499 -0.0882 -0.2769 -0.3539
  282loPI    C3 4499   1.741   3.129   9.510 -0.3274 -0.1422  0.0995
  282loPI   PO4 4500   1.553   2.866   8.965  0.1293 -0.0321  0.2519
  282loPI   GL1 4501   1.563   2.741   8.571  0.2886  0.0055 -0.0267
  282loPI   GL2 4502   1.290   3.039   8.599 -0.3295 -0.0453 -0.4876
  282loPI   C1A 4503   1.313   2.830   8.181  0.0331  0.1838  0.3342
  282loPI   C2A 4504   1.242   2.662   7.818  0.0129  0.2189 -0.2812
  282loPI   C3A 4505   1.304   2.639   7.237 -0.0407  0.1129 -0.1237
  282loPI   C4A 4506   1.493   3.081   6.882 -0.0367  0.2484  0.2316
  282loPI   C5A 4507   1.411   3.359   6.474  0.1163 -0.1884  0.0420
  282loPI   C6A 4508   1.084   3.261   6.124  0.0641  0.0953  0.2797
  282loPI   C1B 4509   1.236   3.295   8.192 -0.0429 -0.3728  0.3201
  282loPI   C2B 4510   1.491   3.244   7.788  0.1954  0.4849  0.0668
  282loPI   C3B 4511   1.756   3.352   7.432  0.3108  0.3002 -0.0253
  282loPI   C4B 4512   2.034   3.684   7.307  0.2736  0.1749 -0.3658
  283loPI    C1 4513   1.242  16.148   9.699 -0.2402 -0.0114  0.1703
  283loPI    C2 4514   1.506  15.967   9.938 -0.0321 -0.0103 -0.0550
  283loPI    C3 4515   1.114  15.929  10.008  0.0147 -0.3549  0.0387
  283loPI   PO4 4516   1.448  16.198   9.490 -0.1469  0.1942 -0.2274
  283loPI   GL1 4517   1.721  16.108   9.210  0.1165 -0.0761 -0.0022
  283loPI   GL2 4518   1.562  15.741   9.147 -0.1777 -0.0158 -0.2951
  283loPI   C1A 4519   1.692  16.112   8.830  0.1032  0.1810  0.1103
  283loPI   C2A 4520   1.685  15.951   8.465  0.0190 -0.0450  0.0517
  283loPI   C3A 4521   2.062  15.872   8.306  0.1087 -0.1625  0.0905
  283loPI   C4A 4522   2.086  15.681   7.868 -0.0213  0.2420  0.1141
  283loPI   C5A 4523   1.812  15.505   7.617  0.0968  0.0333 -0.2981
  283loPI   C6A 4524   1.359  15.322   7.552 -0.3345 -0.2872 -0.0397
  283loPI   C1B 4525   1.658  15.492   8.794 -0.0609  0.0307 -0.1352
  283loPI   C2B 4526   1.505  14.988   8.769 -0.0747  0.0123 -0.3932
  283loPI   C3B 4527   1.381  14.795   8.380 -0.2146 -0.0072 -0.3287
  283loPI   C4B 4528   1.279  15.091   8.059  0.0613 -0.1381  0.2365
  284loPI    C1 4529   9.663   7.388   8.965  0.1468  0.1859 -0.1469
  284loPI    C2 4530   9.873   7.549   9.265 -0.1411 -0.0381  0.1816
  284loPI    C3 4531   9.994   7.206   9.098 -0.0055  0.0630  0.0711
  284loPI   PO4 4532   9.364   7.582   9.082  0.2548 -0.1758 -0.0508
  284loPI   GL1 4533   9.055   7.742   8.822  0.0612 -0.1587 -0.1145
  284loPI   GL2 4534   8.739   7.669   8.681  0.0576  0.0801  0.0989
  284loPI   C1A 4535   9.246   8.037   8.550  0.2857 -0.1042  0.4039
  284loPI   C2A 4536   9.185   8.105   8.080 -0.1822 -0.0846 -0.1697
  284loPI   C3A 4537   9.515   8.250   7.693 -0.0309 -0.3026  0.2643
  284loPI   C4A 4538   9.706   8.324   7.364 -0.0098  0.2058  0.1864
  284loPI   C5A 4539   9.583   8.292   6.922  0.1746  0.0045  0.5833
  284loPI   C6A 4540   9.723   8.489   6.534  0.1562  0.0062  0.2842
  284loPI   C1B 4541   8.770   7.651   8.294  0.2757 -0.1414 -0.1050
  284loPI   C2B 4542   8.420   7.702   8.136  0.0125 -0.4579 -0.0884
  284loPI   C3B 4543   8.255   8.041   7.849 -0.5182 -0.0219 -0.1938
  284loPI   C4B 4544   8.268   8.283   7.440  0.2694 -0.1404  0.0951
  285loPI    C1 4545   3.266   5.610   9.016  0.1139  0.1962 -0.0458
  285loPI    C2 4546   3.294   5.389   9.348 -0.0697  0.1140 -0.0838
  285loPI    C3 4547   3.607   5.419   9.101  0.0842  0.2164  0.1212
  285loPI   PO4 4548   3.123   5.820   9.136  0.1220 -0.0519  0.2721
  285loPI   GL1 4549   2.719   6.048   8.996 -0.0884 -0.2861 -0.2754
  285loPI   GL2 4550   2.847   6.364   8.903  0.0392 -0.4503 -0.1317
  285loPI   C1A 4551   2.687   5.793   8.585  0.2403  0.0347  0.0160
  285loPI   C2A 4552   2.461   5.947   8.175  0.2209 -0.1443 -0.0501
  285loPI   C3A 4553   2.532   6.176   7.808 -0.0914  0.0637  0.0485
  285loPI   C4A 4554   2.505   6.458   7.441  0.2838 -0.4157  0.2873
  285loPI   C5A 4555   2.762   6.603   7.196 -0.0450 -0.1129  0.3073
  285loPI   C6A 4556   3.270   6.633   7.186 -0.2137  0.0680  0.1251
  285loPI   C1B 4557   2.829   6.693   8.623 -0.2567 -0.0955 -0.2192
  285loPI   C2B 4558   2.767   6.909   8.151 -0.2920  0.1827  0.0519
  285loPI   C3B 4559   2.487   6.909   7.732 -0.0323 -0.0638 -0.3269
  285loPI   C4B 4560   2.102   6.679   7.528 -0.3289  0.2068 -0.1413
  286loPI    C1 4561   5.383  18.640  10.206  0.3662 -0.1626  0.1271
  286loPI    C2 4562   5.245  18.507  10.557  0.2558  0.3948  0.3036
  286loPI    C3 4563   5.626  18.443  10.456  0.2242  0.0150  0.4105
  286loPI   PO4 4564   5.341  18.503   9.967 -0.0014  0.0500  0.2079
  286loPI   GL1 4565   5.388  18.387   9.495  0.0261  0.1493 -0.0909
  286loPI   GL2 4566   5.142  18.344   9.342  0.0908  0.2062  0.3125
  286loPI   C1A 4567   5.613  18.477   9.189  0.0110 -0.0756  0.2549
  286loPI   C2A 4568   5.773  18.285   8.782 -0.0169  0.0782 -0.1047
  286loPI   C3A 4569   5.848  18.365   8.309  0.4662 -0.1484 -0.2796
  286loPI   C4A 4570   5.980  18.672   8.056  0.0458  0.4191 -0.0123
  286loPI   C5A 4571   5.869  18.864   7.700 -0.3747 -0.1202  0.2772
  286loPI   C6A 4572   5.823  19.308   7.415  0.0375  0.2249 -0.0723
  286loPI   C1B 4573   5.160  18.513   8.979 -0.2992  0.0940 -0.1617
  286loPI   C2B 4574   4.963  18.495   8.470  0.0709 -0.0622  0.5873
  286loPI   C3B 4575   4.900  18.562   8.023 -0.4065 -0.5136  0.0102
  286loPI   C4B 4576   5.100  18.559   7.668 -0.1504 -0.1120  0.2265
  287loPI    C1 4577   7.795   9.880   9.817 -0.0473  0.1062  0.1294
  287loPI    C2 4578   7.421   9.885   9.958 -0.1267 -0.2414 -0.0565
  287loPI    C3 4579   7.683   9.616  10.096  0.0550 -0.0048  0.0669
  287loPI   PO4 4580   7.790  10.093   9.700 -0.0037 -0.0468  0.2923
  287loPI   GL1 4581   7.404  10.109   9.319  0.0678  0.1846 -0.0063
  287loPI   GL2 4582   7.219   9.864   9.331  0.2038  0.0127 -0.1942
  287loPI   C1A 4583   7.396  10.230   8.915 -0.0507  0.1109 -0.2246
  287loPI   C2A 4584   7.366   9.877   8.642  0.1515 -0.0125  0.1503
  287loPI   C3A 4585   7.373   9.773   8.247  0.2467 -0.2021 -0.2537
  287loPI   C4A 4586   7.451   9.721   7.850 -0.2328 -0.1281 -0.1224
  287loPI   C5A 4587   7.453  10.071   7.625  0.0044 -0.1827 -0.0951
  287loPI   C6A 4588   7.336  10.309   7.309 -0.2074  0.0495  0.1021
  287loPI   C1B 4589   7.112   9.606   8.978  0.0047 -0.0988  0.0509
  287loPI   C2B 4590   7.143   9.413   8.551  0.5485  0.1543 -0.0106
  287loPI   C3B 4591   7.197   9.302   8.077 -0.1776  0.0605 -0.2227
  287loPI   C4B 4592   7.255   9.231   7.697  0.1339 -0.1460  0.0670
  288loPI    C1 4593  17.364  15.870   9.364 -0.4143 -0.2324 -0.0499
  288loPI    C2 4594  17.060  16.090   9.501 -0.2486 -0.0287 -0.0046
  288loPI    C3 4595  17.363  16.266   9.309  0.0135 -0.1811  0.2624
  288loPI   PO4 4596  17.205  15.718   9.234  0.1560  0.1601 -0.0791
  288loPI   GL1 4597  17.015  15.632   8.730  0.0707 -0.0540  0.0005
  288loPI   GL2 4598  17.290  15.744   8.709  0.0479 -0.3402 -0.2093
  288loPI   C1A 4599  16.984  15.918   8.369  0.0239 -0.1002  0.1533
  288loPI   C2A 4600  17.023  15.978   7.986  0.4294  0.1243  0.1002
  288loPI   C3A 4601  16.999  16.280   7.730  0.2793 -0.0915 -0.3152
  288loPI   C4A 4602  17.048  16.334   7.242  0.2456  0.3308  0.1301
  288loPI   C5A 4603  17.244  16.075   7.043  0.0286  0.2285 -0.1259
  288loPI   C6A 4604  17.643  15.806   7.014 -0.1776  0.1743  0.1197
  288loPI   C1B 4605  17.630  15.904   8.404  0.4832 -0.0423  0.1208
  288loPI   C2B 4606  17.910  16.002   7.950 -0.1370  0.2286  0.1896
  288loPI   C3B 4607  17.923  16.054   7.531 -0.3305 -0.2371 -0.0875
  288loPI   C4B 4608  18.157  16.036   7.101 -0.2542  0.0011  0.1983
  289loPI    C1 4609   1.787  18.036   9.458 -0.0714  0.0410  0.1293
  289loPI    C2 4610   1.860  18.389   9.284 -0.1139 -0.1690 -0.3269
  289loPI    C3 4611   2.162  18.142   9.370 -0.1040 -0.1185 -0.2150
  289loPI   PO4 4612   1.580  17.955   9.317 -0.1231 -0.0194  0.0864
  289loPI   GL1 4613   1.397  17.746   8.939  0.1253  0.1155 -0.0442
  289loPI   GL2 4614   1.301  18.092   8.880 -0.1545  0.0248 -0.2185
  289loPI   C1A 4615   1.252  17.474   8.798 -0.1787 -0.1416  0.0273
  289loPI   C2A 4616   1.335  17.381   8.377 -0.3362 -0.5540  0.3708
  289loPI   C3A 4617   1.327  17.111   8.111 -0.2096  0.0401 -0.0775
  289loPI   C4A 4618   1.245  16.742   8.019  0.1270 -0.0344 -0.4697
  289loPI   C5A 4619   1.355  16.407   7.591  0.2067  0.3091 -0.0928
  289loPI   C6A 4620   1.567  16.313   7.273 -0.4572 -0.3383  0.0951
  289loPI   C1B 4621   1.353  18.046   8.458  0.2405  0.2548  0.2652
  289loPI   C2B 4622   1.613  17.845   8.103  0.1394 -0.0172  0.1146
  289loPI   C3B 4623   1.480  17.459   7.811 -0.5061 -0.0799  0.2841
  289loPI   C4B 4624   1.202  17.453   7.480  0.3665  0.0610  0.3450
  290loPI    C1 4625   5.987   9.103  10.303 -0.0402 -0.4238  0.1401
  290loPI    C2 4626   5.724   9.397  10.368  0.3484 -0.0276 -0.0273
  290loPI    C3 4627   5.894   9.210  10.677  0.1064 -0.0730  0.0807
  290loPI   PO4 4628   5.977   9.079   9.927 -0.2169  0.0605 -0.1747
  290loPI   GL1 4629   6.056   9.247   9.562  0.2826  0.0370  0.0162
  290loPI   GL2 4630   6.262   9.559   9.484  0.2077  0.2868 -0.0181
  290loPI   C1A 4631   5.774   8.979   9.206  0.1268  0.1966  0.1045
  290loPI   C2A 4632   5.567   8.907   8.865 -0.3573  0.2715 -0.4169
  290loPI   C3A 4633   5.158   8.794   8.817 -0.3066 -0.0655 -0.0467
  290loPI   C4A 4634   5.100   9.210   8.573  0.3201  0.0512 -0.0775
  290loPI   C5A 4635   4.907   9.520   8.324  0.0411 -0.5123  0.1863
  290loPI   C6A 4636   4.612   9.625   8.123  0.2321  0.2081  0.0476
  290loPI   C1B 4637   6.181   9.434   9.151  0.0385  0.2311 -0.3767
  290loPI   C2B 4638   5.949   9.297   8.941 -0.0900 -0.1092  0.0583
  290loPI   C3B 4639   5.725   9.228   8.558  0.3084 -0.3201 -0.1733
  290loPI   C4B 4640   5.705   9.142   8.192  0.2430  0.2877 -0.3066
  291loPI    C1 4641   8.572  19.487   9.761  0.0538  0.1147 -0.2094
  291loPI    C2 4642   8.707  19.220  10.026  0.0200  0.0916 -0.2154
  291loPI    C3 4643   8.595  19.584  10.149 -0.1160  0.0384 -0.1792
  291loPI   PO4 4644   8.709  19.400   9.537 -0.4264 -0.2633 -0.2998
  291loPI   GL1 4645   8.503  19.255   9.065  0.0139 -0.2121  0.1786
  291loPI   GL2 4646   8.808  19.463   8.915  0.2474  0.4003 -0.1287
  291loPI   C1A 4647   8.367  19.169   8.606 -0.1170 -0.0542 -0.2223
  291loPI   C2A 4648   8.231  19.278   8.211 -0.0065  0.0211 -0.1104
  291loPI   C3A 4649   7.934  19.235   7.913 -0.2186 -0.0477 -0.0005
  291loPI   C4A 4650   7.782  19.294   7.468  0.0606  0.0813 -0.1011
  291loPI   C5A 4651   7.559  19.479   7.142  0.0848 -0.1494 -0.0453
  291loPI   C6A 4652   7.394  19.478   6.716 -0.3886  0.0147  0.0674
  291loPI   C1B 4653   8.809  19.428   8.503 -0.0628  0.1092  0.1044
  291loPI   C2B 4654   8.697  19.146   8.156 -0.1041  0.1649 -0.1377
  291loPI   C3B 4655   8.569  19.222   7.715  0.2833 -0.4567 -0.2543
  291loPI   C4B 4656   8.284  19.157   7.535 -0.0639 -0.0615  0.0310
  292loPI    C1 4657   9.294   8.186   9.422  0.2306  0.0808  0.0442
  292loPI    C2 4658   9.392   7.833   9.581 -0.0363 -0.0833 -0.1476
  292loPI    C3 4659   9.655   8.028   9.352  0.1306 -0.1322  0.0002
  292loPI   PO4 4660   9.020   8.088   9.277 -0.0761 -0.0751 -0.1552
  292loPI   GL1 4661   8.947   8.274   8.800  0.1404 -0.1399 -0.2407
  292loPI   GL2 4662   8.663   8.379   8.896  0.2377  0.1854  0.0122
  292loPI   C1A 4663   9.144   8.541   8.386  0.0925 -0.1062  0.0818
  292loPI   C2A 4664   9.226   8.612   8.028 -0.0460 -0.0910  0.0185
  292loPI   C3A 4665   9.285   8.738   7.643 -0.0357  0.3316 -0.4205
  292loPI   C4A 4666   9.254   8.522   7.277 -0.0782  0.2399  0.0151
  292loPI   C5A 4667   9.013   8.222   6.968 -0.1025 -0.0643 -0.3017
  292loPI   C6A 4668   9.239   7.896   6.733  0.4059 -0.3312 -0.1225
  292loPI   C1B 4669   8.524   8.103   8.663  0.1087 -0.1326 -0.0104
  292loPI   C2B 4670   8.654   8.167   8.270 -0.2503  0.0113  0.2152
  292loPI   C3B 4671   8.760   7.930   7.902 -0.2567  0.0592 -0.0082
  292loPI   C4B 4672   8.881   7.599   7.641 -0.1409 -0.0579  0.2067
  293loPI    C1 4673   2.637  16.411   9.884  0.2739 -0.0401  0.2981
  293loPI    C2 4674   2.506  16.582  10.221  0.0985 -0.0833  0.2533
  293loPI    C3 4675   2.804  16.750  10.014 -0.0634  0.1629  0.2161
  293loPI   PO4 4676   2.354  16.426   9.698  0.0790  0.0171 -0.1514
  293loPI   GL1 4677   2.082  16.505   9.302  0.4114 -0.1063  0.1907
  293loPI   GL2 4678   1.880  16.596   8.968 -0.2728  0.0837 -0.2821
  293loPI   C1A 4679   2.292  16.283   8.980 -0.3995  0.0347 -0.3978
  293loPI   C2A 4680   2.446  16.013   8.687 -0.1468 -0.0270 -0.0139
  293loPI   C3A 4681   2.547  15.878   8.237 -0.3846  0.0456 -0.1858
  293loPI   C4A 4682   2.685  15.729   7.807 -0.1540  0.0420 -0.0532
  293loPI   C5A 4683   2.388  15.665   7.428  0.1456 -0.1090  0.0361
  293loPI   C6A 4684   2.069  15.602   7.179 -0.3342  0.0312  0.0536
  293loPI   C1B 4685   2.173  16.629   8.617  0.0339 -0.0791 -0.3015
  293loPI   C2B 4686   2.047  16.447   8.274  0.0498  0.1531 -0.1546
  293loPI   C3B 4687   2.231  16.176   7.854 -0.3203 -0.0140 -0.5151
  293loPI   C4B 4688   2.075  15.982   7.489 -0.1598 -0.0812  0.2137
  294loPI    C1 4689   7.058  14.038   9.803 -0.0078 -0.0520  0.0995
  294loPI    C2 4690   7.403  14.217   9.707 -0.0954  0.0624 -0.0047
  294loPI    C3 4691   7.402  13.910   9.963  0.0797  0.0825  0.0214
  294loPI   PO4 4692   6.931  14.053   9.605  0.1323  0.0957  0.0458
  294loPI   GL1 4693   7.007  14.207   9.194 -0.1921  0.0181  0.2280
  294loPI   GL2 4694   6.736  14.487   9.125 -0.4023 -0.1059 -0.0392
  294loPI   C1A 4695   7.141  14.348   8.724  0.1272  0.0248 -0.0691
  294loPI   C2A 4696   7.342  14.301   8.406  0.1596 -0.0783  0.1692
  294loPI   C3A 4697   7.567  14.001   8.119 -0.2261 -0.1076  0.0070
  294loPI   C4A 4698   7.476  13.710   7.777  0.0196  0.3731  0.1913
  294loPI   C5A 4699   7.349  13.581   7.412 -0.0674 -0.0138  0.2560
  294loPI   C6A 4700   7.648  13.523   7.097 -0.1250 -0.2021  0.4832
  294loPI   C1B 4701   6.630  14.200   8.847  0.3372  0.0730  0.1062
  294loPI   C2B 4702   6.752  14.190   8.453  0.3404 -0.0961 -0.2610
  294loPI   C3B 4703   6.585  14.281   8.016 -0.2315  0.0494 -0.2131
  294loPI   C4B 4704   6.631  14.189   7.667  0.1105 -0.0064 -0.2700
  295loPI    C1 4705  14.337   8.302   9.436 -0.0730 -0.0132 -0.1735
  295loPI    C2 4706  14.575   8.622   9.409  0.0759 -0.1187 -0.1223
  295loPI    C3 4707  14.264   8.625   9.661  0.1903 -0.0854  0.0197
  295loPI   PO4 4708  14.298   8.256   9.138 -0.0109 -0.0995 -0.0161
  295loPI   GL1 4709  14.245   7.875   8.887  0.1119  0.2651 -0.2318
  295loPI   GL2 4710  14.062   7.742   8.907 -0.0123 -0.1900  0.3005
  295loPI   C1A 4711  14.412   7.961   8.489  0.0413  0.1621 -0.0220
  295loPI   C2A 4712  14.600   7.852   8.163  0.0164  0.1694  0.0333
  295loPI   C3A 4713  14.625   7.813   7.713  0.0182  0.1502 -0.3802
  295loPI   C4A 4714  14.738   7.834   7.359  0.0045 -0.1953  0.0113
  295loPI   C5A 4715  14.909   7.613   7.047  0.1105  0.2526 -0.1873
  295loPI   C6A 4716  15.276   7.469   6.924 -0.0786  0.3667 -0.1611
  295loPI   C1B 4717  14.085   7.550   8.515  0.0673 -0.0821  0.3411
  295loPI   C2B 4718  14.243   7.526   8.136 -0.3624  0.1917  0.1098
  295loPI   C3B 4719  14.483   7.335   7.737 -0.2694 -0.2510 -0.2193
  295loPI   C4B 4720  14.777   7.317   7.447  0.0005 -0.0652 -0.2242
  296loPI    C1 4721  11.198  19.006   9.970  0.0564  0.2382  0.1522
  296loPI    C2 4722  11.472  18.720  10.029  0.0077  0.0510 -0.4540
  296loPI    C3 4723  11.242  18.843  10.332  0.1431 -0.4320 -0.1441
  296loPI   PO4 4724  11.320  19.103   9.717 -0.2364 -0.2067  0.0295
  296loPI   GL1 4725  11.614  19.157   9.380  0.4172 -0.0927  0.3479
  296loPI   GL2 4726  11.753  19.372   9.102  0.1506  0.1075  0.1080
  296loPI   C1A 4727  11.678  18.925   9.053  0.0441  0.1776 -0.3634
  296loPI   C2A 4728  11.443  18.652   8.760 -0.0847  0.1756 -0.1511
  296loPI   C3A 4729  11.634  18.451   8.374  0.1725  0.0452  0.1571
  296loPI   C4A 4730  11.692  18.463   7.885 -0.4294 -0.0129  0.1702
  296loPI   C5A 4731  11.461  18.280   7.491 -0.1135  0.0447  0.0408
  296loPI   C6A 4732  11.384  17.965   7.113  0.2240  0.1775  0.0079
  296loPI   C1B 4733  11.815  19.361   8.777 -0.2899 -0.1019  0.0757
  296loPI   C2B 4734  11.900  18.993   8.488  0.0624  0.0621  0.0593
  296loPI   C3B 4735  12.294  18.940   8.237 -0.0305 -0.1477  0.2019
  296loPI   C4B 4736  12.598  18.935   7.977 -0.3937 -0.0006 -0.0144
  297loPI    C1 4737   2.078   0.710   9.221  0.1468 -0.0230  0.0249
  297loPI    C2 4738   2.298   0.787   9.546 -0.2263  0.2044  0.2313
  297loPI    C3 4739   2.129   0.427   9.500  0.1099  0.0574  0.1139
  297loPI   PO4 4740   1.847   0.846   9.208  0.2685 -0.3930  0.0782
  297loPI   GL1 4741   1.689   1.051   8.858 -0.0199  0.0774  0.0271
  297loPI   GL2 4742   2.096   1.014   8.759  0.4388  0.4194 -0.1193
  297loPI   C1A 4743   1.501   0.951   8.515 -0.1823 -0.2705  0.1103
  297loPI   C2A 4744   1.308   0.898   8.051 -0.3377  0.0841 -0.1198
  297loPI   C3A 4745   1.388   0.713   7.664  0.3249 -0.1759  0.1623
  297loPI   C4A 4746   1.290   0.867   7.270 -0.1895  0.1342  0.2966
  297loPI   C5A 4747   1.355   1.245   6.991 -0.0538 -0.2470  0.1257
  297loPI   C6A 4748   1.608   1.595   6.905  0.0498 -0.0449 -0.2827
  297loPI   C1B 4749   1.977   0.967   8.333  0.1137  0.1570 -0.0778
  297loPI   C2B 4750   2.170   0.772   8.036  0.2766 -0.0733  0.2057
  297loPI   C3B 4751   2.492   0.622   7.610  0.1845  0.2534  0.0133
  297loPI   C4B 4752   2.512   0.873   7.285  0.0744  0.1945  0.2587
  298loPI    C1 4753  15.679  19.214   9.922 -0.2119 -0.1108  0.0372
  298loPI    C2 4754  16.019  19.099  10.098 -0.2423 -0.2254  0.0218
  298loPI    C3 4755  15.771  19.349  10.287 -0.0392  0.0433 -0.0613
  298loPI   PO4 4756  15.763  19.234   9.681  0.0368  0.2466  0.2871
  298loPI   GL1 4757  15.825  19.073   9.197 -0.0156  0.3977  0.1488
  298loPI   GL2 4758  15.977  19.133   8.895  0.1103  0.1997  0.3324
  298loPI   C1A 4759  15.537  19.335   8.904  0.3484  0.1464  0.1707
  298loPI   C2A 4760  15.565  19.648   8.579 -0.2002 -0.0685  0.0993
  298loPI   C3A 4761  15.761  19.692   8.115 -0.0132 -0.1090 -0.3047
  298loPI   C4A 4762  15.699  19.861   7.828 -0.0278  0.0768  0.1879
  298loPI   C5A 4763  15.643  19.849   7.422  0.0739  0.0064 -0.3087
  298loPI   C6A 4764  15.542  19.645   7.074  0.3537 -0.5157 -0.1287
  298loPI   C1B 4765  15.694  19.096   8.472  0.0377 -0.0007 -0.1542
  298loPI   C2B 4766  15.674  19.176   8.051  0.3655  0.0588 -0.0738
  298loPI   C3B 4767  15.529  19.329   7.658 -0.0843 -0.0261  0.0335
  298loPI   C4B 4768  15.651  19.221   7.248  0.0321 -0.1312 -0.6066
  299loPI    C1 4769  15.035   3.879   9.637 -0.1294 -0.1315 -0.1368
  299loPI    C2 4770  14.957   3.491   9.696 -0.3892 -0.0828 -0.1487
  299loPI    C3 4771  15.060   3.724  10.005 -0.0898 -0.1909 -0.1644
  299loPI   PO4 4772  15.154   3.927   9.419 -0.2182 -0.4194 -0.0853
  299loPI   GL1 4773  15.264   3.876   9.059 -0.1161  0.0779  0.0877
  299loPI   GL2 4774  14.952   3.779   8.966 -0.0424  0.0628 -0.1487
  299loPI   C1A 4775  15.141   3.971   8.584 -0.0127  0.1006 -0.1779
  299loPI   C2A 4776  14.995   3.745   8.268 -0.0448 -0.1156 -0.0329
  299loPI   C3A 4777  14.989   3.784   7.844 -0.3044  0.0035  0.0450
  299loPI   C4A 4778  14.939   3.545   7.493  0.0379 -0.4983 -0.0464
  299loPI   C5A 4779  15.081   3.852   7.239  0.3288 -0.0935  0.0044
  299loPI   C6A 4780  15.343   4.018   6.936 -0.2000 -0.1712  0.1935
  299loPI   C1B 4781  14.771   3.466   8.669  0.0926  0.1290 -0.0143
  299loPI   C2B 4782  14.551   3.442   8.291 -0.0223 -0.2314 -0.1439
  299loPI   C3B 4783  14.119   3.550   8.185 -0.0355 -0.1804 -0.3968
  299loPI   C4B 4784  13.892   3.657   7.831 -0.0683 -0.0697  0.0496
  300loPI    C1 4785  16.941  12.428   9.549 -0.0093  0.0839 -0.1366
  300loPI    C2 4786  16.903  12.599   9.908 -0.3575  0.2452 -0.2461
  300loPI    C3 4787  16.855  12.204   9.870  0.2680  0.1370 -0.0228
  300loPI   PO4 4788  17.114  12.649   9.318  0.0837  0.1468 -0.1925
  300loPI   GL1 4789  17.255  12.570   8.862  0.0647  0.1625  0.2850
  300loPI   GL2 4790  17.233  12.238   8.686 -0.0504 -0.0361  0.1127
  300loPI   C1A 4791  17.309  12.697   8.377 -0.1253 -0.0166 -0.3891
  300loPI   C2A 4792  17.239  12.671   7.942  0.3163 -0.0227  0.0097
  300loPI   C3A 4793  17.219  12.684   7.469  0.0468  0.0055  0.2380
  300loPI   C4A 4794  16.873  12.942   7.196  0.3886  0.1610 -0.0692
  300loPI   C5A 4795  16.451  13.110   7.044  0.0555  0.1418  0.1351
  300loPI   C6A 4796  16.161  13.406   6.820 -0.0936  0.2556  0.0855
  300loPI   C1B 4797  17.291  12.246   8.219 -0.0287  0.2323 -0.0851
  300loPI   C2B 4798  17.379  12.153   7.777  0.1247  0.0068 -0.3078
  300loPI   C3B 4799  17.554  11.919   7.438 -0.0199  0.0632 -0.0057
  300loPI   C4B 4800  17.393  11.834   7.125  0.3375  0.0099 -0.0558
  301loPI    C1 4801  13.436  14.663   9.547 -0.2332 -0.3858  0.0248
  301loPI    C2 4802  13.346  14.751   9.927 -0.1340 -0.0910 -0.0174
  301loPI    C3 4803  13.551  14.419   9.842 -0.3846 -0.2955  0.1606
  301loPI   PO4 4804  13.432  14.910   9.375 -0.0403  0.0239  0.0341
  301loPI   GL1 4805  13.083  15.047   9.174  0.2343 -0.2903  0.3454
  301loPI   GL2 4806  13.217  15.291   9.013 -0.0881  0.2470 -0.2377
  301loPI   C1A 4807  12.850  15.035   8.893 -0.3755  0.0348  0.0740
  301loPI   C2A 4808  12.763  15.013   8.499  0.0153 -0.2781  0.0990
  301loPI   C3A 4809  12.818  14.876   8.073  0.1131 -0.1249 -0.0765
  301loPI   C4A 4810  12.883  14.810   7.645  0.0386  0.1968  0.0712
  301loPI   C5A 4811  12.928  14.968   7.228 -0.1426  0.1214 -0.0782
  301loPI   C6A 4812  13.253  14.934   7.001  0.2220  0.0411  0.1554
  301loPI   C1B 4813  13.244  15.185   8.638  0.0092 -0.1570 -0.1771
  301loPI   C2B 4814  13.471  14.987   8.191  0.0395  0.0596 -0.3001
  301loPI   C3B 4815  13.488  14.852   7.740  0.0277 -0.0451  0.3954
  301loPI   C4B 4816  13.420  14.594   7.347  0.1487 -0.3318 -0.0880
  302loPI    C1 4817   5.656  16.036   9.697  0.2259  0.1480 -0.2335
  302loPI    C2 4818   5.957  15.883   9.911  0.1281  0.2530 -0.0183
  302loPI    C3 4819   5.601  15.700   9.907  0.1567  0.1998 -0.1678
  302loPI   PO4 4820   5.682  16.019   9.386 -0.1246  0.1022  0.3037
  302loPI   GL1 4821   5.591  16.306   9.034 -0.0084 -0.0618  0.1673
  302loPI   GL2 4822   5.414  16.652   9.008 -0.1956 -0.0308  0.0968
  302loPI   C1A 4823   5.382  16.107   8.691 -0.1133  0.1254  0.0848
  302loPI   C2A 4824   5.170  16.269   8.346  0.0344 -0.0693  0.1591
  302loPI   C3A 4825   4.927  16.252   7.941  0.2772 -0.1236  0.3122
  302loPI   C4A 4826   5.090  16.517   7.475 -0.0257 -0.0886  0.1894
  302loPI   C5A 4827   5.468  16.675   7.309  0.1606  0.1874  0.0060
  302loPI   C6A 4828   5.616  17.111   7.047  0.0488  0.0363 -0.0963
  302loPI   C1B 4829   5.349  16.648   8.610 -0.2386 -0.0201  0.0689
  302loPI   C2B 4830   5.389  16.681   8.160 -0.3331 -0.0078 -0.1477
  302loPI   C3B 4831   5.373  16.882   7.808  0.1600 -0.1473 -0.2700
  302loPI   C4B 4832   5.451  17.208   7.494  0.2445 -0.2713  0.1217
  303loPI    C1 4833   9.883   3.123   9.499  0.2199  0.1506  0.1917
  303loPI    C2 4834   9.584   2.977   9.722  0.2287 -0.2609 -0.0552
  303loPI    C3 4835   9.730   3.342   9.797 -0.2600 -0.0965  0.1375
  303loPI   PO4 4836   9.888   3.104   9.316 -0.0762  0.2205  0.0451
  303loPI   GL1 4837   9.851   3.106   8.914  0.2756  0.2214 -0.0532
  303loPI   GL2 4838   9.659   2.922   8.708  0.1593  0.2357 -0.1544
  303loPI   C1A 4839  10.124   2.983   8.523 -0.0407  0.3757 -0.2494
  303loPI   C2A 4840  10.077   2.842   8.212 -0.0368 -0.0323  0.2117
  303loPI   C3A 4841  10.090   2.902   7.761  0.0066 -0.1722 -0.2186
  303loPI   C4A 4842  10.276   2.697   7.346  0.0064  0.1508 -0.0249
  303loPI   C5A 4843  10.392   3.008   6.990 -0.1674  0.2137 -0.0967
  303loPI   C6A 4844  10.635   3.075   6.530 -0.0796 -0.2695  0.0966
  303loPI   C1B 4845   9.561   2.855   8.327  0.2221  0.0036  0.2151
  303loPI   C2B 4846   9.590   2.865   7.940  0.0436  0.2510  0.0706
  303loPI   C3B 4847   9.511   2.810   7.491 -0.1320  0.1854  0.0435
  303loPI   C4B 4848   9.847   2.535   7.162  0.1893 -0.2223 -0.0394
  304loPI    C1 4849   7.553  11.195   9.901 -0.0424 -0.0570  0.1843
  304loPI    C2 4850   7.215  10.984   9.866  0.0836 -0.2794  0.2838
  304loPI    C3 4851   7.474  10.900  10.159  0.0784  0.0978  0.4022
  304loPI   PO4 4852   7.574  11.399   9.579  0.0149 -0.1835  0.1376
  304loPI   GL1 4853   7.518  11.281   9.156  0.2666  0.1764  0.1945
  304loPI   GL2 4854   7.666  10.931   9.004 -0.3110  0.1760  0.4518
  304loPI   C1A 4855   7.363  11.151   8.688 -0.0408 -0.1514  0.0211
  304loPI   C2A 4856   7.010  10.961   8.323  0.1255 -0.1406  0.1639
  304loPI   C3A 4857   6.889  10.552   8.168 -0.0240  0.0526  0.0790
  304loPI   C4A 4858   6.599  10.301   7.824 -0.0872  0.0674  0.0233
  304loPI   C5A 4859   6.700   9.941   7.483 -0.3935 -0.0964 -0.1192
  304loPI   C6A 4860   7.093   9.765   7.278 -0.0922  0.2100  0.1096
  304loPI   C1B 4861   7.551  10.663   8.742 -0.0657  0.0028 -0.3076
  304loPI   C2B 4862   7.422  10.628   8.345  0.0098  0.0523  0.2852
  304loPI   C3B 4863   7.431  10.771   7.951 -0.1809 -0.0757 -0.1554
  304loPI   C4B 4864   7.807  10.738   7.609  0.1326  0.1814 -0.3044
  305loPI    C1 4865   5.258  17.330   9.687  0.0154  0.1135  0.0667
  305loPI    C2 4866   4.966  17.588   9.778  0.0155  0.0886  0.1374
  305loPI    C3 4867   5.325  17.624   9.950  0.0170  0.0443  0.1437
  305loPI   PO4 4868   5.310  17.344   9.439 -0.2079  0.0420  0.0086
  305loPI   GL1 4869   5.103  17.458   8.974 -0.2993 -0.4733 -0.1019
  305loPI   GL2 4870   5.339  17.219   8.946 -0.2442  0.2144 -0.0491
  305loPI   C1A 4871   5.270  17.637   8.525  0.0185 -0.0064 -0.0907
  305loPI   C2A 4872   5.480  17.819   8.205  0.0142 -0.3897 -0.0691
  305loPI   C3A 4873   5.748  17.732   7.930  0.1367  0.0086 -0.2617
  305loPI   C4A 4874   5.821  17.939   7.586 -0.2304  0.1732 -0.0431
  305loPI   C5A 4875   6.070  17.797   7.239  0.2452 -0.0313  0.4236
  305loPI   C6A 4876   6.093  17.764   6.807 -0.4885  0.0012  0.2091
  305loPI   C1B 4877   5.633  17.372   8.654 -0.3543  0.3086  0.2985
  305loPI   C2B 4878   5.925  17.453   8.337  0.1114 -0.1696  0.2258
  305loPI   C3B 4879   6.329  17.519   8.080 -0.0876 -0.0872  0.0697
  305loPI   C4B 4880   6.545  17.375   7.809 -0.0899 -0.0729 -0.0539
  306loPI    C1 4881  17.544   8.535   9.185  0.0752  0.0320 -0.2406
  306loPI    C2 4882  17.918   8.395   9.168  0.0114 -0.1889  0.0794
  306loPI    C3 4883  17.684   8.303   9.479 -0.2482  0.1047 -0.0236
  306loPI   PO4 4884  17.455   8.488   8.937  0.2697 -0.0609  0.1824
  306loPI   GL1 4885  17.360   8.540   8.606  0.2249 -0.0866  0.2034
  306loPI   GL2 4886  17.049   8.637   8.575  0.3599 -0.2493  0.2808
  306loPI   C1A 4887  17.406   8.875   8.239  0.3716 -0.0769 -0.0251
  306loPI   C2A 4888  17.631   9.081   7.940  0.2372  0.1613  0.1337
  306loPI   C3A 4889  17.796   9.226   7.586  0.0623 -0.0580  0.2842
  306loPI   C4A 4890  17.915   9.093   7.182 -0.2804  0.1483 -0.4663
  306loPI   C5A 4891  17.943   9.077   6.814  0.1526  0.1564  0.1040
  306loPI   C6A 4892  18.257   8.911   6.675  0.0397  0.0755 -0.2184
  306loPI   C1B 4893  16.831   8.767   8.235  0.0208  0.0584  0.0411
  306loPI   C2B 4894  16.816   8.692   7.723  0.2130  0.0670  0.2678
  306loPI   C3B 4895  16.950   8.644   7.357  0.0363  0.1026 -0.1296
  306loPI   C4B 4896  17.282   8.442   7.164 -0.0163  0.1492 -0.0969
  307loPI    C1 4897   9.983  15.808   9.582 -0.1859  0.0011  0.0873
  307loPI    C2 4898   9.822  15.615   9.893 -0.0313 -0.0089  0.1621
  307loPI    C3 4899  10.149  15.839   9.945 -0.0559  0.0600  0.0233
  307loPI   PO4 4900   9.823  15.785   9.313 -0.0095 -0.4172  0.2988
  307loPI   GL1 4901   9.896  16.098   9.035  0.0154  0.0515 -0.2915
  307loPI   GL2 4902   9.831  15.872   8.860 -0.1166 -0.1647  0.2031
  307loPI   C1A 4903   9.657  16.385   8.731  0.2324 -0.1144  0.1386
  307loPI   C2A 4904   9.704  16.456   8.331 -0.4921 -0.1189  0.0283
  307loPI   C3A 4905   9.912  16.239   7.956 -0.0892  0.0354  0.1887
  307loPI   C4A 4906   9.697  15.910   7.662  0.0509  0.2342  0.1064
  307loPI   C5A 4907   9.467  15.933   7.229  0.1017  0.0462 -0.1256
  307loPI   C6A 4908   9.472  16.165   6.820  0.0727 -0.1068  0.2507
  307loPI   C1B 4909   9.823  15.867   8.438 -0.0547  0.2321  0.1734
  307loPI   C2B 4910   9.881  15.649   8.003 -0.0444  0.2369 -0.0587
  307loPI   C3B 4911   9.783  15.365   7.725 -0.2631  0.0230  0.3480
  307loPI   C4B 4912   9.567  15.177   7.492 -0.1631 -0.2643 -0.3674
  308loPI    C1 4913   0.624  16.668   9.739 -0.1304 -0.3274 -0.2887
  308loPI    C2 4914   0.768  16.317   9.865  0.0297 -0.1405  0.0629
  308loPI    C3 4915   0.630  16.584  10.129  0.1264  0.1563 -0.1802
  308loPI   PO4 4916   0.362  16.656   9.463 -0.0480 -0.1145  0.1665
  308loPI   GL1 4917   0.274  16.684   9.052 -0.1848 -0.0006 -0.2664
  308loPI   GL2 4918  -0.013  16.537   8.899 -0.0931 -0.0520 -0.0171
  308loPI   C1A 4919   0.531  16.833   8.734 -0.2743  0.1756 -0.2518
  308loPI   C2A 4920   0.395  17.057   8.363 -0.0939 -0.2584  0.1758
  308loPI   C3A 4921   0.380  17.217   8.003  0.0970  0.0074  0.1839
  308loPI   C4A 4922   0.429  17.675   7.837 -0.0509  0.1147 -0.0564
  308loPI   C5A 4923   0.424  17.894   7.462  0.1402  0.0427 -0.0466
  308loPI   C6A 4924   0.350  18.149   7.085  0.0835  0.1845 -0.1200
  308loPI   C1B 4925   0.091  16.655   8.509 -0.1538  0.0972  0.0109
  308loPI   C2B 4926   0.380  16.536   8.218 -0.1492  0.0799  0.1501
  308loPI   C3B 4927   0.439  16.446   7.717 -0.0106 -0.3358  0.1668
  308loPI   C4B 4928   0.528  16.615   7.464  0.0388 -0.2034 -0.4097
  309loPI    C1 4929  13.589   6.278   9.492  0.2972  0.0540 -0.0128
  309loPI    C2 4930  13.498   5.945   9.693 -0.1297  0.0528 -0.1956
  309loPI    C3 4931  13.871   6.004   9.561  0.0360 -0.1785  0.1525
  309loPI   PO4 4932  13.385   6.343   9.328  0.0087 -0.3216  0.3767
  309loPI   GL1 4933  13.505   6.339   8.906 -0.1600  0.1257 -0.0025
  309loPI   GL2 4934  13.191   6.197   8.761  0.0073 -0.0118  0.3790
  309loPI   C1A 4935  13.568   6.276   8.482 -0.2575 -0.2646  0.2554
  309loPI   C2A 4936  13.568   6.251   8.050  0.6115 -0.1737  0.1342
  309loPI   C3A 4937  13.635   6.234   7.623  0.0368 -0.1637  0.0080
  309loPI   C4A 4938  13.861   6.256   7.248 -0.2772 -0.0759  0.0621
  309loPI   C5A 4939  14.196   6.277   6.946 -0.0071  0.3199 -0.1791
  309loPI   C6A 4940  14.471   6.129   6.713  0.0808  0.0278  0.1443
  309loPI   C1B 4941  13.136   6.001   8.461  0.0930  0.0572 -0.0336
  309loPI   C2B 4942  12.981   5.947   7.980  0.1113 -0.0156  0.1511
  309loPI   C3B 4943  12.808   5.782   7.620  0.0227 -0.1623 -0.1247
  309loPI   C4B 4944  12.915   5.454   7.290 -0.1575 -0.2398  0.1122
  310loPI    C1 4945  16.325  11.955   9.095 -0.1158 -0.0424  0.0464
  310loPI    C2 4946  15.933  11.898   9.038 -0.1275  0.0591  0.0236
  310loPI    C3 4947  16.139  11.649   9.275 -0.1397 -0.1863 -0.2186
  310loPI   PO4 4948  16.374  12.018   8.783  0.1151  0.0002 -0.3800
  310loPI   GL1 4949  16.529  12.114   8.430  0.0552 -0.0107  0.0540
  310loPI   GL2 4950  16.459  12.388   8.302 -0.1004 -0.0174  0.0063
  310loPI   C1A 4951  16.851  12.143   8.058  0.1086 -0.0823  0.0390
  310loPI   C2A 4952  16.802  12.405   7.628 -0.0960  0.0562  0.3563
  310loPI   C3A 4953  16.595  12.573   7.198 -0.0245  0.0595 -0.3745
  310loPI   C4A 4954  16.644  12.662   6.749  0.4318 -0.1172 -0.1797
  310loPI   C5A 4955  16.955  12.875   6.544  0.0183  0.0115  0.1081
  310loPI   C6A 4956  17.065  13.281   6.305  0.4040  0.1949  0.3756
  310loPI   C1B 4957  16.363  12.254   7.915  0.0497 -0.0819  0.3177
  310loPI   C2B 4958  16.516  11.950   7.613 -0.0068  0.3389 -0.3287
  310loPI   C3B 4959  16.711  11.763   7.189 -0.2325  0.1551  0.2570
  310loPI   C4B 4960  16.772  12.206   6.906 -0.2074 -0.1904 -0.1296
  311loPI    C1 4961   9.436  15.922   9.809 -0.2799  0.0051  0.1069
  311loPI    C2 4962   9.380  16.303   9.919  0.1637  0.0677  0.1350
  311loPI    C3 4963   9.737  16.131   9.969  0.0581 -0.2546 -0.1757
  311loPI   PO4 4964   9.421  15.874   9.602  0.1725 -0.2591 -0.4029
  311loPI   GL1 4965   9.381  15.987   9.055 -0.0177 -0.1597  0.2835
  311loPI   GL2 4966   9.429  15.614   9.062  0.0039  0.1661  0.0452
  311loPI   C1A 4967   9.330  15.944   8.593 -0.1753 -0.0948  0.0838
  311loPI   C2A 4968   9.411  16.085   8.171  0.2242 -0.0343  0.0223
  311loPI   C3A 4969   9.439  16.343   7.802 -0.0997  0.2097  0.0584
  311loPI   C4A 4970   9.429  16.446   7.308  0.0299  0.3739  0.0244
  311loPI   C5A 4971   9.113  16.372   7.054  0.2853  0.0133 -0.1657
  311loPI   C6A 4972   8.811  16.114   6.841 -0.2080 -0.0306  0.1334
  311loPI   C1B 4973   9.650  15.435   8.689 -0.0624  0.2826 -0.0415
  311loPI   C2B 4974   9.515  15.436   8.440  0.2214  0.1577  0.1091
  311loPI   C3B 4975   9.478  15.348   8.085 -0.1552 -0.0662  0.1787
  311loPI   C4B 4976   9.207  15.107   7.841 -0.2379 -0.1932  0.2666
  312loPI    C1 4977  16.721   0.521   9.556 -0.0479  0.1894 -0.0423
  312loPI    C2 4978  16.882   0.401   9.902 -0.3180 -0.0381  0.0084
  312loPI    C3 4979  17.045   0.706   9.700  0.0792 -0.1607  0.1339
  312loPI   PO4 4980  16.579   0.243   9.546  0.0197  0.4811  0.0534
  312loPI   GL1 4981  16.600  -0.126   9.201 -0.0787 -0.1978 -0.2006
  312loPI   GL2 4982  16.569  -0.383   9.104  0.3200  0.0095  0.1246
  312loPI   C1A 4983  16.865  -0.114   8.913  0.2149 -0.2856 -0.2822
  312loPI   C2A 4984  16.847  -0.085   8.467  0.1524 -0.2344  0.3772
  312loPI   C3A 4985  16.989  -0.117   8.111  0.0684  0.3729  0.0420
  312loPI   C4A 4986  16.963  -0.010   7.697  0.0867  0.2557 -0.0088
  312loPI   C5A 4987  17.041   0.243   7.321  0.2446  0.1673  0.2701
  312loPI   C6A 4988  16.953   0.533   7.008  0.0668  0.0808  0.1856
  312loPI   C1B 4989  16.498  -0.404   8.671  0.1516  0.3408 -0.2082
  312loPI   C2B 4990  16.636  -0.503   8.285  0.2610 -0.0772 -0.1787
  312loPI   C3B 4991  16.679  -0.864   7.994 -0.4357 -0.1259  0.0070
  312loPI   C4B 4992  16.369  -0.988   7.644  0.2851  0.0492  0.0156
  313loPI    C1 4993  17.275  13.533   9.229 -0.0594  0.0422 -0.0346
  313loPI    C2 4994  17.128  13.163   9.185 -0.1728  0.0624  0.1612
  313loPI    C3 4995  17.305  13.269   9.528  0.2173  0.0686 -0.0371
  313loPI   PO4 4996  17.378  13.589   9.123 -0.1682  0.2287 -0.0285
  313loPI   GL1 4997  17.456  13.649   8.645  0.2126  0.4048  0.0660
  313loPI   GL2 4998  17.727  13.508   8.606 -0.1144 -0.1039 -0.1595
  313loPI   C1A 4999  17.366  13.358   8.357  0.1307  0.2806  0.2149
  313loPI   C2A 5000  17.153  13.231   7.962 -0.1113 -0.2856 -0.2280
  313loPI   C3A 5001  17.062  13.421   7.699 -0.1871  0.0111  0.0508
  313loPI   C4A 5002  17.031  13.779   7.430 -0.0405 -0.0857 -0.1149
  313loPI   C5A 5003  17.180  13.842   7.015 -0.0237 -0.0262 -0.0149
  313loPI   C6A 5004  17.447  13.740   6.702  0.0451 -0.0776 -0.2264
  313loPI   C1B 5005  17.870  13.464   8.220 -0.1816  0.1927 -0.2631
  313loPI   C2B 5006  17.626  13.433   7.903 -0.1893 -0.0552 -0.2097
  313loPI   C3B 5007  17.585  13.594   7.546  0.2084 -0.0179 -0.1677
  313loPI   C4B 5008  17.604  13.927   7.349  0.0966  0.0311  0.0031
  314loPI    C1 5009   4.766  11.869  10.238  0.0211 -0.2781  0.1680
  314loPI    C2 5010   4.548  11.569  10.088 -0.0069 -0.1615 -0.0282
  314loPI    C3 5011   4.377  11.839  10.328 -0.0499 -0.1390 -0.0840
  314loPI   PO4 5012   4.907  11.894  10.054  0.0193  0.2030 -0.0074
  314loPI   GL1 5013   5.037  12.022   9.635  0.1774 -0.0722 -0.0310
  314loPI   GL2 5014   4.968  12.340   9.576 -0.0109  0.1876 -0.1002
  314loPI   C1A 5015   5.074  12.014   9.199 -0.0373 -0.0796  0.1835
  314loPI   C2A 5016   5.015  11.772   8.786 -0.2990  0.1244 -0.1734
  314loPI   C3A 5017   5.050  11.678   8.295 -0.2454 -0.5034  0.0116
  314loPI   C4A 5018   4.974  11.429   7.944 -0.1088  0.0650  0.0225
  314loPI   C5A 5019   4.888  11.421   7.570  0.3326 -0.0189 -0.3559
  314loPI   C6A 5020   5.068  10.919   7.408 -0.3610 -0.2134 -0.0284
  314loPI   C1B 5021   4.998  12.505   9.095 -0.1171 -0.0765  0.2868
  314loPI   C2B 5022   4.761  12.630   8.745 -0.4208 -0.1377  0.1087
  314loPI   C3B 5023   4.875  12.741   8.356  0.2625  0.0363  0.0871
  314loPI   C4B 5024   4.689  12.698   7.994  0.0070 -0.0397  0.2524
  315loPI    C1 5025   5.111  13.125   9.854  0.1211 -0.0595  0.0558
  315loPI    C2 5026   5.422  12.993  10.068  0.0968 -0.2432 -0.0196
  315loPI    C3 5027   5.172  12.732   9.897 -0.0526 -0.0967 -0.0279
  315loPI   PO4 5028   5.242  13.248   9.687  0.2852 -0.2052 -0.0348
  315loPI   GL1 5029   5.157  13.558   9.313  0.1341 -0.0096 -0.3016
  315loPI   GL2 5030   5.146  13.814   9.130  0.2144  0.0512 -0.0226
  315loPI   C1A 5031   5.184  13.487   8.777  0.0441 -0.1930  0.0094
  315loPI   C2A 5032   5.531  13.409   8.461 -0.1730  0.0669 -0.0747
  315loPI   C3A 5033   5.588  13.198   8.051 -0.2323  0.3023 -0.0151
  315loPI   C4A 5034   5.944  12.963   7.878  0.0657  0.3245  0.2153
  315loPI   C5A 5035   6.295  12.586   7.849  0.1982 -0.1415 -0.3952
  315loPI   C6A 5036   6.487  12.227   8.004  0.1822 -0.3937  0.1304
  315loPI   C1B 5037   4.795  13.769   8.735 -0.2105 -0.2163  0.0840
  315loPI   C2B 5038   4.587  13.786   8.355 -0.2794 -0.2143  0.1932
  315loPI   C3B 5039   4.346  13.875   8.030  0.0074 -0.2940 -0.2484
  315loPI   C4B 5040   4.077  14.045   7.772  0.1109 -0.1302  0.1251
  316loPI    C1 5041   3.263  18.154   9.994 -0.1358  0.3870  0.2359
  316loPI    C2 5042   3.662  18.179   9.995 -0.1151  0.1476 -0.1015
  316loPI    C3 5043   3.461  18.160  10.341  0.2146 -0.4108  0.0711
  316loPI   PO4 5044   3.282  17.850   9.807 -0.2102 -0.0017  0.0984
  316loPI   GL1 5045   3.278  17.646   9.452 -0.1728 -0.2691  0.1772
  316loPI   GL2 5046   3.122  17.828   9.254  0.0969  0.0268  0.0535
  316loPI   C1A 5047   3.503  17.493   9.022 -0.0572  0.0212  0.0968
  316loPI   C2A 5048   3.388  17.408   8.651  0.0389  0.0429 -0.1940
  316loPI   C3A 5049   3.451  17.450   8.289 -0.3502 -0.1954 -0.2751
  316loPI   C4A 5050   3.434  17.619   7.889 -0.0815 -0.1950 -0.1132
  316loPI   C5A 5051   3.732  17.636   7.490  0.1691 -0.2001 -0.0455
  316loPI   C6A 5052   3.780  17.942   7.144 -0.3274  0.2518 -0.1649
  316loPI   C1B 5053   3.167  17.917   8.735 -0.3103  0.0357 -0.0837
  316loPI   C2B 5054   3.131  18.141   8.360 -0.0016 -0.0470  0.1297
  316loPI   C3B 5055   3.075  17.976   7.862  0.2754  0.0670  0.0579
  316loPI   C4B 5056   3.250  17.963   7.544 -0.1411  0.2087 -0.0428
  317loPI    C1 5057  13.845   8.239   9.610 -0.2457 -0.1275 -0.1260
  317loPI    C2 5058  13.872   7.932   9.864  0.0795 -0.0611 -0.0762
  317loPI    C3 5059  13.572   8.193   9.898 -0.0913 -0.2647  0.0007
  317loPI   PO4 5060  13.878   8.076   9.376  0.1676  0.1835  0.0703
  317loPI   GL1 5061  13.870   8.206   8.911 -0.0934  0.0008 -0.1512
  317loPI   GL2 5062  13.621   8.446   8.821  0.1482 -0.0317 -0.1399
  317loPI   C1A 5063  13.969   8.176   8.530 -0.1513 -0.1427 -0.0017
  317loPI   C2A 5064  13.990   7.992   8.249 -0.1534  0.3449 -0.2788
  317loPI   C3A 5065  14.128   7.951   7.924  0.3011  0.1016  0.0197
  317loPI   C4A 5066  14.294   8.055   7.440 -0.4202  0.3086 -0.0589
  317loPI   C5A 5067  14.245   8.405   7.281 -0.0211 -0.1501 -0.2727
  317loPI   C6A 5068  14.408   8.629   6.967 -0.1521 -0.2292  0.2042
  317loPI   C1B 5069  13.639   8.613   8.476  0.1867  0.3157  0.1010
  317loPI   C2B 5070  13.973   8.542   8.087  0.0284 -0.0331 -0.0496
  317loPI   C3B 5071  14.002   8.419   7.716 -0.0825  0.3555  0.2098
  317loPI   C4B 5072  13.783   8.348   7.197 -0.0990  0.0336  0.0263
  318loPI    C1 5073   3.287  16.330   9.712 -0.1157 -0.2429 -0.0301
  318loPI    C2 5074   3.107  16.385  10.064  0.0851 -0.2582  0.0769
  318loPI    C3 5075   3.325  16.056  10.001  0.2481 -0.1414  0.0243
  318loPI   PO4 5076   3.063  16.471   9.562  0.0531  0.1163  0.0150
  318loPI   GL1 5077   2.897  16.415   9.192 -0.0879 -0.2640  0.2321
  318loPI   GL2 5078   3.234  16.512   8.948  0.1382 -0.0904  0.1874
  318loPI   C1A 5079   2.728  16.412   8.763  0.2610 -0.0961 -0.2322
  318loPI   C2A 5080   2.602  16.444   8.306  0.0011  0.4381  0.0398
  318loPI   C3A 5081   2.715  16.240   7.864  0.1738  0.1267 -0.0500
  318loPI   C4A 5082   2.590  16.120   7.466 -0.2672 -0.0174 -0.4600
  318loPI   C5A 5083   2.366  16.194   7.081 -0.0755 -0.1403 -0.4092
  318loPI   C6A 5084   2.264  15.888   6.784 -0.0431  0.1419  0.1170
  318loPI   C1B 5085   3.123  16.465   8.532  0.0095 -0.0225  0.0901
  318loPI   C2B 5086   3.205  16.393   8.102  0.2098 -0.2056  0.1275
  318loPI   C3B 5087   3.523  16.267   7.814  0.2578 -0.1234 -0.1375
  318loPI   C4B 5088   3.439  16.049   7.391  0.0433 -0.0150  0.1040
  319loPI    C1 5089  18.982   9.338   9.603  0.3387 -0.0321 -0.0804
  319loPI    C2 5090  19.140   9.696   9.685  0.0723  0.0842 -0.0669
  319loPI    C3 5091  19.057   9.441   9.982  0.2249  0.0260 -0.0734
  319loPI   PO4 5092  19.079   9.325   9.391 -0.3253  0.0170  0.0124
  319loPI   GL1 5093  19.253   9.747   9.203  0.0678  0.1366  0.0798
  319loPI   GL2 5094  18.860   9.707   9.133  0.0455  0.2998 -0.1502
  319loPI   C1A 5095  19.457   9.398   8.840  0.2523  0.0271  0.2976
  319loPI   C2A 5096  19.532   9.251   8.385 -0.4729  0.2731  0.1242
  319loPI   C3A 5097  19.611   9.199   7.934 -0.1315 -0.0222  0.1246
  319loPI   C4A 5098  19.709   9.304   7.546 -0.2249 -0.0854  0.1734
  319loPI   C5A 5099  20.028   9.419   7.263  0.2143 -0.0431 -0.1266
  319loPI   C6A 5100  20.096   9.596   6.921 -0.1376 -0.0937 -0.1044
  319loPI   C1B 5101  18.846   9.674   8.686  0.1520 -0.3115 -0.4257
  319loPI   C2B 5102  18.811   9.845   8.296  0.1310 -0.1553  0.0655
  319loPI   C3B 5103  18.613  10.204   8.044  0.1032 -0.1304  0.1083
  319loPI   C4B 5104  18.760  10.351   7.648 -0.0151  0.0036  0.0947
  320loPI    C1 5105  15.643   7.406   9.627  0.0316 -0.0117  0.0658
  320loPI    C2 5106  15.391   7.543   9.905  0.0455  0.3914 -0.1144
  320loPI    C3 5107  15.713   7.333  10.014 -0.2747  0.0123  0.1282
  320loPI   PO4 5108  15.707   7.556   9.503  0.0737 -0.5587  0.1978
  320loPI   GL1 5109  15.869   7.538   9.064 -0.1504 -0.1847 -0.2788
  320loPI   GL2 5110  15.596   7.273   8.917  0.0319  0.0976 -0.2462
  320loPI   C1A 5111  15.806   7.575   8.504 -0.1377 -0.3632  0.0428
  320loPI   C2A 5112  16.023   7.563   8.115  0.1609  0.1374  0.3276
  320loPI   C3A 5113  16.050   7.463   7.737  0.2850 -0.1742  0.2365
  320loPI   C4A 5114  16.200   7.349   7.413 -0.0722 -0.0678  0.2909
  320loPI   C5A 5115  16.423   7.270   7.118 -0.3896 -0.0150 -0.0472
  320loPI   C6A 5116  16.905   7.271   7.074 -0.0558  0.1992  0.1405
  320loPI   C1B 5117  15.539   7.139   8.521  0.1009  0.0100  0.0008
  320loPI   C2B 5118  15.559   7.248   8.090  0.0306  0.0303 -0.0676
  320loPI   C3B 5119  15.564   7.242   7.629  0.2547  0.1513 -0.2103
  320loPI   C4B 5120  15.299   7.097   7.255  0.0781 -0.0436  0.3550
  321loPI    C1 5121   7.345   5.339   8.934 -0.1539  0.1316  0.0583
  321loPI    C2 5122   7.511   5.439   9.284  0.0646  0.0944 -0.0331
  321loPI    C3 5123   7.233   5.151   9.269  0.0341  0.1156  0.1134
  321loPI   PO4 5124   7.285   5.579   8.867 -0.0094 -0.1157 -0.3772
  321loPI   GL1 5125   6.918   5.773   8.718 -0.3197  0.0243 -0.0718
  321loPI   GL2 5126   6.954   5.456   8.488  0.1910  0.3294 -0.2676
  321loPI   C1A 5127   6.840   6.047   8.285 -0.2314  0.0535  0.1881
  321loPI   C2A 5128   6.624   6.061   7.894 -0.0391  0.0945 -0.2200
  321loPI   C3A 5129   6.456   6.184   7.481  0.2075  0.1439  0.0123
  321loPI   C4A 5130   6.149   6.052   7.222 -0.0924 -0.0743 -0.1908
  321loPI   C5A 5131   5.744   6.054   7.299  0.2287  0.0653  0.1640
  321loPI   C6A 5132   5.583   5.813   7.008 -0.2970 -0.0889 -0.1580
  321loPI   C1B 5133   6.928   5.547   8.077  0.0586 -0.0005 -0.0559
  321loPI   C2B 5134   6.759   5.574   7.640  0.1054 -0.0852  0.0858
  321loPI   C3B 5135   6.841   5.225   7.259 -0.2546  0.0586  0.0088
  321loPI   C4B 5136   6.565   5.037   7.001 -0.1157 -0.2498 -0.0770
  322loPI    C1 5137   2.838   0.973   9.255 -0.1187  0.0608 -0.0650
  322loPI    C2 5138   2.756   1.086   8.880 -0.1328  0.2637 -0.0017
  322loPI    C3 5139   2.459   0.989   9.130 -0.1161  0.0018 -0.0811
  322loPI   PO4 5140   3.084   0.788   9.228 -0.0136 -0.1557 -0.0437
  322loPI   GL1 5141   3.446   0.861   8.898 -0.2616  0.2783 -0.2007
  322loPI   GL2 5142   3.261   1.178   8.787 -0.2202  0.0784 -0.1298
  322loPI   C1A 5143   3.441   0.628   8.544  0.0388  0.2784  0.3002
  322loPI   C2A 5144   3.516   0.629   8.080  0.0667 -0.1130  0.1185
  322loPI   C3A 5145   3.551   0.385   7.616 -0.2546  0.0907 -0.4956
  322loPI   C4A 5146   3.400   0.341   7.170  0.0523  0.0160 -0.0413
  322loPI   C5A 5147   3.227   0.740   6.878 -0.1660  0.3456 -0.2035
  322loPI   C6A 5148   3.017   1.122   6.711 -0.1144 -0.0230 -0.0021
  322loPI   C1B 5149   3.412   1.113   8.328  0.0091  0.0718  0.5122
  322loPI   C2B 5150   3.565   1.088   7.904  0.0688 -0.3970 -0.0014
  322loPI   C3B 5151   3.593   1.114   7.428  0.2345 -0.0348 -0.2071
  322loPI   C4B 5152   3.467   1.261   6.960  0.1180  0.1157 -0.1278
  323loPI    C1 5153   0.287  13.588   9.784  0.3333 -0.0274 -0.1788
  323loPI    C2 5154   0.384  13.889  10.028  0.0399 -0.1359  0.0781
  323loPI    C3 5155   0.277  13.535  10.180 -0.0114 -0.2478 -0.2122
  323loPI   PO4 5156   0.139  13.757   9.572  0.0450  0.0532  0.1268
  323loPI   GL1 5157  -0.129  13.826   9.175 -0.2671 -0.1824 -0.3060
  323loPI   GL2 5158  -0.371  13.777   8.949  0.1498  0.2534  0.2016
  323loPI   C1A 5159   0.336  13.964   8.907  0.3325 -0.0059 -0.0274
  323loPI   C2A 5160   0.626  13.888   8.640  0.2941  0.0060 -0.0719
  323loPI   C3A 5161   0.783  14.070   8.298  0.0608  0.1094  0.2881
  323loPI   C4A 5162   0.949  14.237   7.840  0.0492  0.1042 -0.0112
  323loPI   C5A 5163   0.700  14.523   7.574 -0.1735  0.1330 -0.1012
  323loPI   C6A 5164   0.267  14.592   7.441  0.2189  0.3007  0.1493
  323loPI   C1B 5165  -0.360  13.772   8.578 -0.0565 -0.2639 -0.1037
  323loPI   C2B 5166  -0.525  13.728   8.181  0.1726 -0.1891  0.4051
  323loPI   C3B 5167  -0.337  13.665   7.725 -0.1802 -0.1748 -0.0811
  323loPI   C4B 5168  -0.167  13.470   7.289 -0.0212 -0.1753  0.2865
  324loPI    C1 5169   5.132   7.024   9.817 -0.1683 -0.1725  0.0425
  324loPI    C2 5170   5.035   6.641   9.879  0.1002 -0.2074  0.2696
  324loPI    C3 5171   5.399   6.773   9.977  0.1223  0.0317 -0.1127
  324loPI   PO4 5172   5.039   7.069   9.584 -0.1747 -0.1839  0.0718
  324loPI   GL1 5173   5.129   7.240   9.241 -0.1612 -0.0024 -0.1610
  324loPI   GL2 5174   5.466   7.404   9.124  0.2152  0.1312  0.2755
  324loPI   C1A 5175   4.933   7.289   8.901  0.0817 -0.2770 -0.1858
  324loPI   C2A 5176   4.890   7.357   8.512 -0.2360 -0.0522  0.0195
  324loPI   C3A 5177   4.712   7.470   8.118 -0.0031 -0.2074  0.3855
  324loPI   C4A 5178   4.764   7.352   7.754  0.0065  0.0012 -0.4159
  324loPI   C5A 5179   4.736   7.181   7.328  0.1096 -0.1668 -0.4082
  324loPI   C6A 5180   5.100   7.130   7.087 -0.3817 -0.2496 -0.2125
  324loPI   C1B 5181   5.417   7.432   8.661  0.0485 -0.2131 -0.1580
  324loPI   C2B 5182   5.366   7.359   8.284  0.1869 -0.1405  0.2237
  324loPI   C3B 5183   5.284   7.585   7.937  0.1337 -0.0018 -0.1664
  324loPI   C4B 5184   4.919   7.921   7.772  0.3058 -0.0966 -0.1645
  325loPI    C1 5185  19.601  18.803   9.753  0.1985  0.2709 -0.0030
  325loPI    C2 5186  19.762  18.496   9.952 -0.2873 -0.0745 -0.1249
  325loPI    C3 5187  19.495  18.733  10.132 -0.0922  0.1339 -0.1060
  325loPI   PO4 5188  19.558  18.706   9.471  0.1045 -0.0204 -0.2663
  325loPI   GL1 5189  19.576  18.376   9.177  0.3201  0.1033  0.4768
  325loPI   GL2 5190  19.753  18.246   8.965  0.2488  0.0687  0.2878
  325loPI   C1A 5191  19.503  18.683   8.781  0.0735  0.2709  0.2839
  325loPI   C2A 5192  19.535  18.698   8.259  0.0111 -0.1519  0.3076
  325loPI   C3A 5193  19.608  18.649   7.772  0.0953 -0.1985  0.0511
  325loPI   C4A 5194  19.444  18.670   7.395  0.2027  0.1290  0.1547
  325loPI   C5A 5195  19.309  18.754   6.935  0.1911 -0.0953  0.2070
  325loPI   C6A 5196  18.828  18.853   6.770 -0.2179  0.0409 -0.0507
  325loPI   C1B 5197  19.831  18.226   8.481 -0.1180  0.0420 -0.3442
  325loPI   C2B 5198  19.835  18.349   8.117  0.2580 -0.0268 -0.0592
  325loPI   C3B 5199  19.964  18.268   7.618  0.0906 -0.4373 -0.0368
  325loPI   C4B 5200  19.908  18.559   7.273 -0.0093 -0.0926 -0.0349
  326loPI    C1 5201  17.738   2.475   9.725  0.2658  0.0118 -0.0402
  326loPI    C2 5202  17.896   2.169   9.929  0.0697 -0.1402 -0.1137
  326loPI    C3 5203  17.502   2.237   9.943  0.1389  0.2490  0.0856
  326loPI   PO4 5204  17.838   2.425   9.477 -0.0763 -0.0214  0.0609
  326loPI   GL1 5205  18.037   2.414   9.092 -0.1205  0.0021 -0.0829
  326loPI   GL2 5206  17.935   2.086   9.079  0.0263  0.2212  0.0837
  326loPI   C1A 5207  18.278   2.565   8.811  0.0949 -0.1923 -0.1708
  326loPI   C2A 5208  18.279   2.542   8.429  0.0273  0.0053 -0.0563
  326loPI   C3A 5209  18.349   2.611   7.995 -0.0658  0.3254 -0.0282
  326loPI   C4A 5210  18.207   2.331   7.617  0.0480 -0.2270  0.0941
  326loPI   C5A 5211  17.861   2.285   7.239  0.3656 -0.0225 -0.0484
  326loPI   C6A 5212  17.587   2.199   6.923  0.0864  0.0834  0.1935
  326loPI   C1B 5213  17.888   2.197   8.614  0.2769  0.3422 -0.0189
  326loPI   C2B 5214  17.912   2.092   8.166  0.0411 -0.3639 -0.3983
  326loPI   C3B 5215  17.842   1.930   7.700  0.2197 -0.2482 -0.1864
  326loPI   C4B 5216  18.022   1.543   7.550 -0.4303 -0.3690 -0.0075
  327loPI    C1 5217  10.516   2.250   9.205 -0.3232 -0.0985 -0.0809
  327loPI    C2 5218  10.386   2.256   9.583 -0.0059  0.0822  0.0293
  327loPI    C3 5219  10.248   2.524   9.320  0.0314  0.1787  0.1073
  327loPI   PO4 5220  10.752   2.193   9.253 -0.1760 -0.0899 -0.1120
  327loPI   GL1 5221  11.104   2.185   8.937 -0.2273  0.5086 -0.0971
  327loPI   GL2 5222  11.368   2.344   9.029 -0.2705  0.0905  0.1229
  327loPI   C1A 5223  11.256   2.096   8.511  0.0637  0.1042 -0.0728
  327loPI   C2A 5224  11.350   2.199   8.110 -0.0376 -0.1371  0.1228
  327loPI   C3A 5225  11.326   2.415   7.704  0.0656  0.3014 -0.0615
  327loPI   C4A 5226  11.139   2.755   7.635  0.0700  0.0087  0.0825
  327loPI   C5A 5227  11.062   2.912   8.002 -0.2768 -0.3089  0.0413
  327loPI   C6A 5228  11.054   3.098   8.338 -0.2416 -0.0925 -0.1076
  327loPI   C1B 5229  11.726   2.177   8.692 -0.0858 -0.2691 -0.0182
  327loPI   C2B 5230  11.841   2.161   8.228 -0.2510 -0.2355 -0.2411
  327loPI   C3B 5231  11.962   2.144   7.755 -0.1002 -0.1854 -0.4448
  327loPI   C4B 5232  11.621   2.002   7.703  0.1739 -0.1190  0.0130
  328loPI    C1 5233   1.733   7.728   9.228 -0.1680  0.5399 -0.2217
  328loPI    C2 5234   1.666   7.550   9.580 -0.0990 -0.1227 -0.5283
  328loPI    C3 5235   1.934   7.846   9.553  0.0933 -0.2466 -0.0757
  328loPI   PO4 5236   1.471   7.690   9.076  0.1455  0.2570 -0.2815
  328loPI   GL1 5237   1.200   7.792   8.689  0.2483  0.0902 -0.0666
  328loPI   GL2 5238   0.869   7.916   8.806  0.0266 -0.2234 -0.0019
  328loPI   C1A 5239   1.512   7.746   8.389 -0.0946 -0.0984 -0.1346
  328loPI   C2A 5240   1.610   7.479   8.016 -0.0047 -0.0854 -0.0090
  328loPI   C3A 5241   1.908   7.388   7.829 -0.0307 -0.1166  0.0273
  328loPI   C4A 5242   2.046   7.157   7.549 -0.2549 -0.0712 -0.0459
  328loPI   C5A 5243   2.011   7.231   7.059  0.1082  0.1653  0.0723
  328loPI   C6A 5244   1.926   7.381   6.611  0.2247  0.0183  0.4082
  328loPI   C1B 5245   0.911   8.007   8.330  0.0587  0.0543  0.0576
  328loPI   C2B 5246   1.141   7.768   7.962 -0.2666 -0.0903  0.2580
  328loPI   C3B 5247   1.407   7.639   7.566 -0.1025 -0.0027  0.2814
  328loPI   C4B 5248   1.509   7.228   7.446  0.2761  0.0878  0.0165
  329loPI    C1 5249  19.884   9.416   9.620 -0.1286  0.0315  0.0456
  329loPI    C2 5250  19.565   9.431   9.379 -0.0377 -0.2259 -0.0939
  329loPI    C3 5251  19.518   9.348   9.767 -0.1310 -0.3764 -0.1368
  329loPI   PO4 5252  20.023   9.261   9.362 -0.3755  0.0244  0.2771
  329loPI   GL1 5253  19.972   9.389   8.987 -0.2709  0.0944 -0.1046
  329loPI   GL2 5254  19.799   9.037   8.951  0.1567  0.0607 -0.1556
  329loPI   C1A 5255  19.958   9.456   8.628 -0.2378  0.2902 -0.1055
  329loPI   C2A 5256  20.007   9.410   8.216 -0.3299  0.2381  0.4802
  329loPI   C3A 5257  20.026   9.556   7.795 -0.1796  0.0144  0.2328
  329loPI   C4A 5258  20.436   9.537   7.476 -0.2851  0.0362 -0.1051
  329loPI   C5A 5259  20.748   9.254   7.250  0.0812  0.1244  0.1474
  329loPI   C6A 5260  21.269   9.210   7.264  0.3110 -0.0164 -0.2422
  329loPI   C1B 5261  19.948   8.972   8.543 -0.1043  0.0019  0.1231
  329loPI   C2B 5262  20.066   8.968   8.205 -0.1989  0.2019 -0.0500
  329loPI   C3B 5263  20.082   9.042   7.744 -0.2539 -0.0091 -0.0971
  329loPI   C4B 5264  20.407   8.927   7.421  0.0159 -0.1180 -0.1128
  330loPI    C1 5265   4.613  13.392   9.682 -0.0920  0.4065  0.1412
  330loPI    C2 5266   4.629  13.010   9.800 -0.0270  0.3058 -0.1842
  330loPI    C3 5267   4.736  13.302  10.052  0.3049  0.0835 -0.0615
  330loPI   PO4 5268   4.659  13.419   9.426  0.0507 -0.1276  0.3219
  330loPI   GL1 5269   4.661  13.295   8.997  0.0231  0.4245  0.2002
  330loPI   GL2 5270   4.592  12.962   9.138  0.1682 -0.1439 -0.3192
  330loPI   C1A 5271   4.725  13.156   8.605 -0.2736 -0.2510  0.1019
  330loPI   C2A 5272   4.570  13.190   8.167  0.1513 -0.0410 -0.2603
  330loPI   C3A 5273   4.433  13.110   7.640  0.2227  0.0164  0.0900
  330loPI   C4A 5274   4.427  12.894   7.244  0.2415 -0.1604  0.1384
  330loPI   C5A 5275   4.488  12.632   6.916  0.1949  0.3822 -0.2174
  330loPI   C6A 5276   4.492  12.218   6.724  0.1351  0.1151  0.1041
  330loPI   C1B 5277   5.065  13.077   8.938  0.1091  0.0110 -0.2003
  330loPI   C2B 5278   5.233  13.044   8.473  0.2904  0.0327 -0.2707
  330loPI   C3B 5279   5.094  13.114   7.994  0.2702  0.2782  0.3302
  330loPI   C4B 5280   4.929  13.036   7.585  0.2059  0.1967  0.1648
  331loPI    C1 5281  17.916  16.233   9.607  0.1805  0.0109  0.1039
  331loPI    C2 5282  17.583  16.085   9.771 -0.2141  0.6102 -0.1260
  331loPI    C3 5283  17.791  16.369   9.961  0.2598  0.1374  0.0842
  331loPI   PO4 5284  17.871  16.046   9.233 -0.4927 -0.1230 -0.0699
  331loPI   GL1 5285  18.079  16.283   8.837  0.2027  0.0996  0.2377
  331loPI   GL2 5286  17.990  16.617   8.698 -0.0828  0.1848 -0.1028
  331loPI   C1A 5287  18.280  16.368   8.384 -0.4782 -0.1433  0.0638
  331loPI   C2A 5288  18.329  16.341   7.898 -0.0591  0.1286 -0.2231
  331loPI   C3A 5289  18.385  16.351   7.497  0.1499  0.2155  0.0413
  331loPI   C4A 5290  18.609  16.571   7.098  0.0681 -0.0094  0.2414
  331loPI   C5A 5291  18.915  16.502   6.768  0.2432 -0.2150  0.0843
  331loPI   C6A 5292  19.120  16.079   6.748  0.0508  0.1410  0.2183
  331loPI   C1B 5293  17.795  16.415   8.273  0.0158 -0.1732  0.1457
  331loPI   C2B 5294  17.375  16.681   7.995  0.1398 -0.0686  0.2440
  331loPI   C3B 5295  17.325  16.842   7.543  0.2151  0.0787 -0.2885
  331loPI   C4B 5296  17.322  17.317   7.458  0.5132 -0.0874  0.0789
  332loPI    C1 5297   2.825   7.354   9.755  0.1605 -0.0783  0.2164
  332loPI    C2 5298   2.549   7.144   9.555  0.0198  0.2595  0.0483
  332loPI    C3 5299   2.511   7.199   9.950 -0.0137  0.0858  0.0702
  332loPI   PO4 5300   2.908   7.509   9.585 -0.1193 -0.1475 -0.0050
  332loPI   GL1 5301   2.897   7.460   9.232  0.0645  0.1901 -0.0674
  332loPI   GL2 5302   3.118   7.465   9.131  0.1539  0.0468 -0.0590
  332loPI   C1A 5303   2.849   7.695   8.781  0.0892 -0.1066  0.0668
  332loPI   C2A 5304   2.650   7.820   8.394 -0.4638 -0.1202  0.0088
  332loPI   C3A 5305   2.641   7.976   7.992  0.0394 -0.2975  0.2834
  332loPI   C4A 5306   2.804   7.898   7.590 -0.0398 -0.3099  0.2830
  332loPI   C5A 5307   2.635   7.520   7.314  0.1659  0.0839  0.0525
  332loPI   C6A 5308   2.484   7.086   7.238 -0.2356  0.2555 -0.1803
  332loPI   C1B 5309   3.381   7.596   8.757  0.0975  0.1483 -0.1038
  332loPI   C2B 5310   3.501   7.622   8.327 -0.0337  0.2104  0.2766
  332loPI   C3B 5311   3.537   7.513   7.900  0.0559 -0.1188  0.0888
  332loPI   C4B 5312   3.582   7.518   7.439  0.1806  0.0171 -0.0646
  333loPI    C1 5313  19.509   3.087   9.499 -0.2199  0.0368  0.0921
  333loPI    C2 5314  19.788   2.971   9.762 -0.1269 -0.3463 -0.1661
  333loPI    C3 5315  19.443   2.770   9.734 -0.2517 -0.1380 -0.1486
  333loPI   PO4 5316  19.684   3.187   9.294 -0.2478 -0.0344  0.5581
  333loPI   GL1 5317  19.697   3.354   8.902 -0.0978  0.1721 -0.1757
  333loPI   GL2 5318  19.596   2.954   8.727 -0.0664 -0.1515  0.1465
  333loPI   C1A 5319  19.913   3.289   8.533 -0.1037 -0.2762 -0.4904
  333loPI   C2A 5320  20.214   3.122   8.206 -0.0449  0.4515  0.0747
  333loPI   C3A 5321  20.328   3.164   7.817  0.0040 -0.1590 -0.0292
  333loPI   C4A 5322  20.566   3.366   7.436 -0.0510 -0.0821  0.1456
  333loPI   C5A 5323  20.782   3.689   7.268 -0.0791 -0.0782 -0.2961
  333loPI   C6A 5324  20.632   4.071   7.340  0.2333  0.1745  0.0356
  333loPI   C1B 5325  19.875   2.841   8.389 -0.0486  0.1091 -0.2772
  333loPI   C2B 5326  20.015   2.776   7.947 -0.0844 -0.1095  0.0562
  333loPI   C3B 5327  20.316   2.643   7.754  0.0945  0.2700  0.0851
  333loPI   C4B 5328  20.606   2.887   7.484  0.3223 -0.0699  0.0843
  334loPI    C1 5329   9.217  18.035   9.338 -0.1849 -0.1541 -0.2620
  334loPI    C2 5330   9.289  18.305   9.052 -0.0099 -0.2216 -0.2830
  334loPI    C3 5331   9.122  18.419   9.397  0.3578 -0.0267 -0.1643
  334loPI   PO4 5332   9.432  17.961   9.364 -0.1392  0.1454  0.0319
  334loPI   GL1 5333   9.436  17.789   8.940 -0.0251 -0.1725 -0.3080
  334loPI   GL2 5334   9.121  17.677   8.748  0.0022  0.0875 -0.1086
  334loPI   C1A 5335   9.568  17.636   8.448 -0.3083 -0.3076  0.0469
  334loPI   C2A 5336   9.527  17.774   8.117  0.2490 -0.0052 -0.4404
  334loPI   C3A 5337   9.740  17.807   7.667  0.2056 -0.2350 -0.1316
  334loPI   C4A 5338   9.530  17.937   7.241  0.2133 -0.0775 -0.4093
  334loPI   C5A 5339   9.214  18.115   6.992 -0.0545  0.3522  0.1764
  334loPI   C6A 5340   9.018  18.491   7.055 -0.0152 -0.0595 -0.2646
  334loPI   C1B 5341   9.304  18.065   8.539  0.0914  0.2572 -0.0250
  334loPI   C2B 5342   9.293  18.160   8.145 -0.3364 -0.2104 -0.3440
  334loPI   C3B 5343   9.156  18.350   7.774  0.0645  0.2522  0.0376
  334loPI   C4B 5344   9.330  18.333   7.392 -0.0730 -0.0841  0.0751
  335loPI    C1 5345   4.787   7.342  10.074  0.2208  0.1163  0.1159
  335loPI    C2 5346   4.705   7.700  10.233 -0.0939  0.0444  0.1228
  335loPI    C3 5347   4.730   7.378  10.469 -0.1355  0.0084  0.0781
  335loPI   PO4 5348   4.671   7.387   9.796  0.0298  0.3098  0.1048
  335loPI   GL1 5349   4.636   7.196   9.353 -0.2387  0.2684 -0.0264
  335loPI   GL2 5350   4.564   7.025   9.135  0.4011 -0.0701  0.1456
  335loPI   C1A 5351   4.427   7.459   9.055 -0.1160  0.2368 -0.2332
  335loPI   C2A 5352   4.416   7.459   8.680  0.0194 -0.2278 -0.3272
  335loPI   C3A 5353   4.284   7.319   8.357 -0.3536 -0.2823  0.4274
  335loPI   C4A 5354   3.916   7.217   8.140 -0.2974  0.0611 -0.2278
  335loPI   C5A 5355   3.893   7.232   7.599 -0.1679  0.1731 -0.0808
  335loPI   C6A 5356   3.471   7.030   7.395  0.0713 -0.1817  0.0958
  335loPI   C1B 5357   4.591   6.930   8.791  0.1372 -0.0944  0.0480
  335loPI   C2B 5358   4.681   6.968   8.406  0.1725  0.1448 -0.1483
  335loPI   C3B 5359   4.558   6.981   8.046 -0.6553 -0.1966  0.4445
  335loPI   C4B 5360   4.316   7.119   7.773 -0.2462  0.3271  0.2974
  336loPI    C1 5361  13.900   7.391   9.192  0.0374 -0.2688 -0.0881
  336loPI    C2 5362  14.227   7.200   9.320 -0.0597 -0.2264  0.2330
  336loPI    C3 5363  14.123   7.550   9.483 -0.1698 -0.1526  0.0094
  336loPI   PO4 5364  13.739   7.249   9.204 -0.1673  0.0533  0.2209
  336loPI   GL1 5365  13.427   7.284   8.844 -0.0660  0.1127 -0.0977
  336loPI   GL2 5366  13.689   7.270   8.662  0.4048  0.0586 -0.0381
  336loPI   C1A 5367  13.201   7.281   8.505  0.2375  0.3116  0.0199
  336loPI   C2A 5368  12.873   7.326   8.151 -0.1047 -0.3952  0.3499
  336loPI   C3A 5369  12.852   7.461   7.729  0.0550 -0.0583 -0.0078
  336loPI   C4A 5370  12.802   7.833   7.493  0.3135  0.2090  0.2348
  336loPI   C5A 5371  12.721   8.059   7.080 -0.1683 -0.3650 -0.0106
  336loPI   C6A 5372  12.834   8.480   7.011 -0.0783  0.1830  0.1155
  336loPI   C1B 5373  13.694   7.123   8.174  0.2502  0.0455 -0.0166
  336loPI   C2B 5374  13.457   7.239   7.656 -0.1027  0.3449  0.2331
  336loPI   C3B 5375  13.473   7.150   7.227  0.3189  0.0521  0.0004
  336loPI   C4B 5376  13.549   7.255   6.747 -0.4176  0.0513 -0.2426
  337loPI    C1 5377  15.651  13.948   9.641 -0.0318  0.0144 -0.2321
  337loPI    C2 5378  15.266  13.959   9.748  0.0121 -0.0975 -0.0583
  337loPI    C3 5379  15.541  13.823  10.005  0.2058  0.2552 -0.0730
  337loPI   PO4 5380  15.525  14.020   9.333 -0.1845 -0.1780  0.2138
  337loPI   GL1 5381  15.403  14.112   8.925  0.0881  0.0002 -0.1156
  337loPI   GL2 5382  15.333  14.342   8.781 -0.1238 -0.0164 -0.2165
  337loPI   C1A 5383  15.020  13.969   8.616 -0.2135  0.1956  0.1474
  337loPI   C2A 5384  14.792  13.830   8.288  0.0817  0.0514  0.1749
  337loPI   C3A 5385  14.877  13.549   7.983  0.0159 -0.2081  0.0884
  337loPI   C4A 5386  15.216  13.461   7.702 -0.0427  0.0823 -0.0543
  337loPI   C5A 5387  15.507  13.616   7.235  0.0750 -0.2165  0.1434
  337loPI   C6A 5388  15.688  13.710   6.881  0.3611  0.2211  0.0065
  337loPI   C1B 5389  15.167  14.419   8.449 -0.3659 -0.1192 -0.1129
  337loPI   C2B 5390  15.225  14.438   7.980 -0.2186  0.0201 -0.0272
  337loPI   C3B 5391  15.525  14.446   7.754  0.1838  0.0028  0.2376
  337loPI   C4B 5392  15.665  14.623   7.350  0.0674 -0.1598 -0.0049
  338loPI    C1 5393   4.106   8.458  10.156  0.0911  0.3403 -0.0910
  338loPI    C2 5394   4.462   8.586  10.286  0.0145  0.3669  0.0954
  338loPI    C3 5395   4.132   8.794  10.372 -0.1070  0.0710  0.3644
  338loPI   PO4 5396   4.076   8.496   9.889  0.2295 -0.2621  0.0297
  338loPI   GL1 5397   4.312   8.646   9.395  0.0261  0.1947  0.3250
  338loPI   GL2 5398   4.189   9.013   9.508 -0.0389 -0.0072 -0.1558
  338loPI   C1A 5399   4.285   8.759   8.998  0.0955  0.2877 -0.1269
  338loPI   C2A 5400   4.275   8.832   8.551 -0.2044 -0.0098 -0.0073
  338loPI   C3A 5401   4.354   8.742   8.104  0.2146 -0.1360 -0.0341
  338loPI   C4A 5402   4.678   8.769   7.869  0.1944  0.0942  0.1989
  338loPI   C5A 5403   4.935   8.923   7.622  0.1961  0.1163  0.0751
  338loPI   C6A 5404   5.356   9.068   7.670 -0.1972  0.1464 -0.0114
  338loPI   C1B 5405   3.893   9.145   9.155  0.4485 -0.1399 -0.0262
  338loPI   C2B 5406   4.036   9.206   8.730 -0.3261  0.0132  0.2055
  338loPI   C3B 5407   4.242   9.315   8.250 -0.0957  0.0390 -0.3663
  338loPI   C4B 5408   4.234   9.200   7.758 -0.0944  0.0138 -0.0889
  339loPI    C1 5409  14.408  14.968   9.387 -0.2689 -0.2266  0.0386
  339loPI    C2 5410  14.709  14.706   9.424 -0.0858 -0.0272 -0.0161
  339loPI    C3 5411  14.386  14.675   9.658  0.0378 -0.1611  0.1392
  339loPI   PO4 5412  14.318  14.966   9.190 -0.2073  0.0204 -0.1947
  339loPI   GL1 5413  14.212  14.980   8.842  0.1277 -0.1006 -0.2306
  339loPI   GL2 5414  14.105  14.646   8.708  0.0819  0.1908  0.0534
  339loPI   C1A 5415  14.354  15.093   8.441 -0.2589 -0.0370  0.0271
  339loPI   C2A 5416  14.484  15.016   8.114  0.0302  0.3558  0.2210
  339loPI   C3A 5417  14.459  15.079   7.676  0.0388  0.0136  0.1605
  339loPI   C4A 5418  14.559  15.036   7.217 -0.1717 -0.5610  0.0904
  339loPI   C5A 5419  14.800  14.848   7.020  0.2155  0.0075 -0.1825
  339loPI   C6A 5420  15.308  14.725   6.974 -0.3487  0.0289 -0.1319
  339loPI   C1B 5421  14.192  14.562   8.403  0.0172  0.1572 -0.2742
  339loPI   C2B 5422  14.272  14.588   7.968 -0.0373 -0.0716  0.2159
  339loPI   C3B 5423  14.353  14.257   7.659  0.0099  0.0298 -0.2315
  339loPI   C4B 5424  14.211  14.257   7.137 -0.1379  0.0318  0.0789
  340loPI    C1 5425  19.850   2.195   9.317 -0.0728  0.0966  0.1309
  340loPI    C2 5426  19.849   2.510   9.563  0.0325  0.0653  0.1719
  340loPI    C3 5427  19.808   2.140   9.711  0.0447  0.0502  0.1375
  340loPI   PO4 5428  19.683   2.220   9.174 -0.2173  0.0376 -0.2678
  340loPI   GL1 5429  19.599   2.422   8.704 -0.1358 -0.0291  0.0786
  340loPI   GL2 5430  19.987   2.484   8.651  0.0158  0.3370 -0.1084
  340loPI   C1A 5431  19.808   2.206   8.249  0.3987 -0.1015  0.2307
  340loPI   C2A 5432  19.881   2.294   7.771 -0.0685 -0.2829  0.0868
  340loPI   C3A 5433  19.886   2.587   7.406 -0.0131 -0.0389 -0.0776
  340loPI   C4A 5434  20.080   2.967   7.454 -0.0699 -0.2451 -0.0243
  340loPI   C5A 5435  20.174   3.307   7.122  0.0352  0.2258  0.2520
  340loPI   C6A 5436  20.409   3.662   6.914  0.0606 -0.1068 -0.3352
  340loPI   C1B 5437  20.287   2.167   8.498 -0.1620  0.0052 -0.2402
  340loPI   C2B 5438  20.285   2.165   7.972  0.0199  0.1075 -0.1323
  340loPI   C3B 5439  20.315   2.177   7.486  0.2237  0.0954  0.1059
  340loPI   C4B 5440  20.360   1.835   7.264  0.0659  0.1160  0.2168
  341loPI    C1 5441  14.992   1.636   9.300  0.0107 -0.1172  0.0776
  341loPI    C2 5442  14.948   1.561   8.910 -0.0142 -0.2466  0.1051
  341loPI    C3 5443  15.282   1.448   9.098  0.2245  0.2740  0.0103
  341loPI   PO4 5444  14.685   1.571   9.350 -0.1620 -0.0638 -0.0924
  341loPI   GL1 5445  14.363   1.531   8.973  0.1857 -0.0469 -0.1102
  341loPI   GL2 5446  14.248   1.248   8.939 -0.1325  0.0104  0.1201
  341loPI   C1A 5447  14.328   1.525   8.520  0.1543  0.2323  0.4400
  341loPI   C2A 5448  14.001   1.275   8.307  0.0386  0.0248  0.1649
  341loPI   C3A 5449  14.110   0.915   8.074  0.1734 -0.0675 -0.2155
  341loPI   C4A 5450  13.995   0.710   7.721  0.0960 -0.2691  0.0885
  341loPI   C5A 5451  13.896   0.442   7.212 -0.2541  0.2149 -0.0716
  341loPI   C6A 5452  14.188   0.497   6.883  0.2984  0.0536 -0.0771
  341loPI   C1B 5453  14.189   0.906   8.612 -0.1124 -0.3442  0.2324
  341loPI   C2B 5454  13.960   0.547   8.449  0.1076 -0.1828 -0.0905
  341loPI   C3B 5455  13.846   0.337   8.088 -0.2190  0.1717  0.0211
  341loPI   C4B 5456  13.791   0.207   7.617 -0.1703  0.0811 -0.2668
  342loPI    C1 5457  17.467  18.502   9.769  0.0234  0.0076  0.2808
  342loPI    C2 5458  17.558  18.856   9.606 -0.1279 -0.0628  0.0378
  342loPI    C3 5459  17.683  18.768   9.976 -0.2444  0.3163  0.1715
  342loPI   PO4 5460  17.512  18.326   9.513 -0.2055 -0.2275  0.0222
  342loPI   GL1 5461  17.670  18.573   9.090 -0.3593  0.4920  0.1622
  342loPI   GL2 5462  17.433  18.582   8.832 -0.1321  0.0586  0.1386
  342loPI   C1A 5463  17.864  18.634   8.666 -0.3194 -0.1757  0.1618
  342loPI   C2A 5464  17.871  18.458   8.239  0.0270 -0.0391  0.3150
  342loPI   C3A 5465  17.953  18.481   7.760  0.3362  0.0244  0.1073
  342loPI   C4A 5466  17.761  18.497   7.341  0.3077  0.3044 -0.1032
  342loPI   C5A 5467  17.791  18.696   7.048  0.0353 -0.0664  0.0660
  342loPI   C6A 5468  17.898  18.931   6.595  0.2589 -0.1471  0.2306
  342loPI   C1B 5469  17.395  18.404   8.400  0.1828  0.0308 -0.3578
  342loPI   C2B 5470  17.349  18.359   7.947  0.2469 -0.1903  0.1560
  342loPI   C3B 5471  17.473  18.169   7.645  0.0774  0.3433 -0.0449
  342loPI   C4B 5472  17.699  18.002   7.286 -0.0625 -0.1647 -0.2423
  343loPI    C1 5473   3.343   6.037   9.596  0.0857 -0.0394  0.0539
  343loPI    C2 5474   3.261   5.800   9.908  0.1026 -0.0366  0.0605
  343loPI    C3 5475   3.371   6.180   9.968  0.3193 -0.0975  0.0607
  343loPI   PO4 5476   3.501   5.962   9.438  0.1015  0.1217 -0.1558
  343loPI   GL1 5477   3.671   5.964   9.012 -0.0444 -0.2843  0.0723
  343loPI   GL2 5478   4.044   6.033   8.998 -0.1046  0.1429  0.0491
  343loPI   C1A 5479   3.624   5.890   8.513 -0.1114  0.0207  0.1003
  343loPI   C2A 5480   3.835   5.802   8.177  0.1394  0.0039 -0.0949
  343loPI   C3A 5481   3.894   5.799   7.715  0.1276  0.4482 -0.2302
  343loPI   C4A 5482   3.569   5.624   7.400  0.0737 -0.4758  0.1442
  343loPI   C5A 5483   3.212   5.399   7.388  0.0266  0.1840 -0.0355
  343loPI   C6A 5484   2.943   5.254   7.094 -0.2117 -0.3615  0.1720
  343loPI   C1B 5485   4.106   6.077   8.524  0.2562 -0.1130  0.0828
  343loPI   C2B 5486   4.233   6.332   8.145 -0.2548 -0.0382 -0.1851
  343loPI   C3B 5487   4.444   6.536   7.858  0.0481  0.1660 -0.4002
  343loPI   C4B 5488   4.559   6.704   7.486  0.2030  0.0635 -0.0395
  344loPI    C1 5489   3.649   0.519   9.695  0.0836  0.1832 -0.0746
  344loPI    C2 5490   3.401   0.815   9.591 -0.0600  0.0791 -0.0313
  344loPI    C3 5491   3.266   0.508   9.808  0.0342 -0.1294 -0.2627
  344loPI   PO4 5492   3.748   0.484   9.521 -0.0322  0.0327  0.2569
  344loPI   GL1 5493   3.820   0.341   9.166 -0.1483  0.0458 -0.0827
  344loPI   GL2 5494   3.771  -0.033   8.998  0.0080  0.2158  0.3444
  344loPI   C1A 5495   3.887   0.733   8.881  0.1898  0.0108 -0.0075
  344loPI   C2A 5496   3.968   0.856   8.414  0.1056  0.1535  0.1969
  344loPI   C3A 5497   3.986   0.829   7.966 -0.0404 -0.0249 -0.2621
  344loPI   C4A 5498   3.917   0.720   7.570 -0.3176  0.0211  0.2662
  344loPI   C5A 5499   3.996   0.453   7.214  0.3363  0.1704 -0.0016
  344loPI   C6A 5500   4.141   0.412   6.815 -0.3273  0.0514 -0.2070
  344loPI   C1B 5501   3.762   0.291   8.697 -0.0708 -0.0383  0.0813
  344loPI   C2B 5502   3.736   0.221   8.292  0.3317  0.4283  0.2964
  344loPI   C3B 5503   3.899   0.282   7.947 -0.0226  0.2106 -0.1676
  344loPI   C4B 5504   3.911   0.055   7.570 -0.0663 -0.1268 -0.2695
  345loPI    C1 5505  11.000  13.714   9.506 -0.1118 -0.2777 -0.1120
  345loPI    C2 5506  10.819  13.945   9.779 -0.0312 -0.1530 -0.1630
  345loPI    C3 5507  10.964  13.587   9.884  0.1438 -0.0368 -0.0027
  345loPI   PO4 5508  10.848  13.796   9.303  0.6494 -0.0485  0.1771
  345loPI   GL1 5509  10.652  14.063   8.961 -0.0140  0.3370 -0.1403
  345loPI   GL2 5510  11.000  14.269   8.900  0.0887  0.0001 -0.1088
  345loPI   C1A 5511  10.530  14.014   8.547 -0.2513  0.0738  0.1377
  345loPI   C2A 5512  10.493  14.050   8.104 -0.1256  0.1609 -0.2418
  345loPI   C3A 5513  10.655  14.105   7.686  0.4372  0.2293 -0.1306
  345loPI   C4A 5514  10.717  13.708   7.359  0.1262 -0.1683 -0.3710
  345loPI   C5A 5515  10.908  13.610   6.941 -0.3698 -0.1265  0.0105
  345loPI   C6A 5516  11.181  13.815   6.751  0.2918  0.2305 -0.5102
  345loPI   C1B 5517  10.992  14.064   8.543  0.0806 -0.0826 -0.1464
  345loPI   C2B 5518  11.009  14.054   8.061 -0.0820  0.0516 -0.1589
  345loPI   C3B 5519  11.086  14.250   7.743  0.3538 -0.3025  0.1795
  345loPI   C4B 5520  10.885  14.240   7.224  0.0504 -0.0610 -0.2377
  346loPI    C1 5521  15.370   1.424   9.803 -0.2752  0.0418  0.3365
  346loPI    C2 5522  15.748   1.551   9.837 -0.1812 -0.1125 -0.0691
  346loPI    C3 5523  15.591   1.310  10.116  0.0410 -0.1024  0.0666
  346loPI   PO4 5524  15.357   1.283   9.565 -0.0801 -0.2157 -0.1384
  346loPI   GL1 5525  15.500   1.001   9.267 -0.2478  0.0245  0.1928
  346loPI   GL2 5526  15.217   0.937   9.184  0.0916  0.0737  0.0736
  346loPI   C1A 5527  15.574   0.778   8.834 -0.0707  0.1796 -0.4387
  346loPI   C2A 5528  15.483   0.800   8.386  0.5104 -0.0639 -0.0139
  346loPI   C3A 5529  15.583   0.832   7.872  0.0671 -0.1442  0.0668
  346loPI   C4A 5530  15.670   0.771   7.454 -0.0327 -0.4497  0.1083
  346loPI   C5A 5531  15.663   0.472   7.218  0.0573 -0.0612  0.4237
  346loPI   C6A 5532  15.926   0.120   7.076  0.1432  0.6241  0.0598
  346loPI   C1B 5533  15.164   1.008   8.829 -0.1166  0.5201 -0.2459
  346loPI   C2B 5534  15.102   1.197   8.386 -0.2475  0.4910 -0.4624
  346loPI   C3B 5535  15.045   1.362   7.955 -0.0798 -0.4265 -0.3621
  346loPI   C4B 5536  14.809   1.410   7.684  0.0167  0.1729 -0.0970
  347loPI    C1 5537  19.181  16.235   9.579 -0.1834 -0.0418  0.1862
  347loPI    C2 5538  18.825  16.358   9.713 -0.2738 -0.2320  0.1250
  347loPI    C3 5539  18.861  15.998   9.543 -0.0865 -0.1434 -0.0269
  347loPI   PO4 5540  19.300  16.587   9.406  0.1101 -0.2725 -0.0293
  347loPI   GL1 5541  19.489  16.279   9.080 -0.0112  0.0113 -0.2904
  347loPI   GL2 5542  19.310  16.499   8.887 -0.0404 -0.1770  0.0906
  347loPI   C1A 5543  19.612  16.075   8.753  0.2487 -0.0128  0.0145
  347loPI   C2A 5544  19.786  16.083   8.353 -0.0143  0.0781 -0.4159
  347loPI   C3A 5545  20.018  16.200   7.921 -0.0387 -0.1526 -0.2688
  347loPI   C4A 5546  20.214  16.005   7.640 -0.4906 -0.1026  0.1935
  347loPI   C5A 5547  20.466  16.131   7.265  0.0727 -0.2906 -0.0241
  347loPI   C6A 5548  20.532  16.090   6.915  0.2092  0.2649 -0.1234
  347loPI   C1B 5549  19.419  16.454   8.500  0.1751 -0.1217 -0.1679
  347loPI   C2B 5550  19.519  16.392   8.085  0.3275 -0.1038  0.0878
  347loPI   C3B 5551  19.591  16.332   7.652 -0.0581 -0.2377 -0.1778
  347loPI   C4B 5552  20.000  16.302   7.333 -0.0941  0.1771  0.0289
  348loPI    C1 5553   2.434   5.726   9.598  0.1250  0.0300  0.2605
  348loPI    C2 5554   2.080   5.910   9.616  0.1821  0.1489  0.1858
  348loPI    C3 5555   2.220   5.713   9.935  0.0548  0.1116  0.2194
  348loPI   PO4 5556   2.422   5.813   9.291  0.1387  0.2719  0.0335
  348loPI   GL1 5557   2.245   5.739   8.871 -0.2202 -0.1121 -0.0510
  348loPI   GL2 5558   2.246   6.049   8.760  0.6148 -0.0796  0.0816
  348loPI   C1A 5559   1.834   5.918   8.548  0.1474  0.0466 -0.1453
  348loPI   C2A 5560   1.601   6.008   8.232 -0.1868  0.1057 -0.3125
  348loPI   C3A 5561   1.692   5.879   7.818  0.2653  0.0726  0.0541
  348loPI   C4A 5562   1.532   5.561   7.487 -0.0998 -0.1471  0.1792
  348loPI   C5A 5563   1.569   5.481   7.082  0.1878 -0.0845 -0.1961
  348loPI   C6A 5564   1.669   5.409   6.535  0.0525 -0.0043 -0.0661
  348loPI   C1B 5565   2.510   6.280   8.502 -0.0084 -0.0660 -0.3903
  348loPI   C2B 5566   2.831   6.283   8.276  0.0326 -0.6397  0.2106
  348loPI   C3B 5567   3.017   6.042   8.050 -0.0239 -0.3997 -0.0809
  348loPI   C4B 5568   3.446   5.988   7.910 -0.2156 -0.0361 -0.2615
  349loPI    C1 5569  15.825   1.011   9.672 -0.1866 -0.1029  0.1162
  349loPI    C2 5570  15.881   0.672   9.877  0.2853 -0.1673 -0.1055
  349loPI    C3 5571  16.050   1.012  10.002 -0.2164  0.0031  0.1366
  349loPI   PO4 5572  15.945   0.961   9.380  0.1309 -0.2125 -0.1453
  349loPI   GL1 5573  16.051   0.999   8.949  0.1660  0.0957 -0.0964
  349loPI   GL2 5574  15.745   1.246   8.796 -0.2541 -0.3348  0.3097
  349loPI   C1A 5575  16.003   0.879   8.506  0.3924  0.0694 -0.1473
  349loPI   C2A 5576  15.987   0.907   8.074 -0.0016 -0.0023  0.1004
  349loPI   C3A 5577  16.028   1.135   7.723 -0.1845  0.2603 -0.2384
  349loPI   C4A 5578  16.060   1.066   7.292 -0.4514  0.1489  0.1272
  349loPI   C5A 5579  15.883   0.908   6.967 -0.0656  0.1960 -0.0008
  349loPI   C6A 5580  15.577   0.899   6.728 -0.0903  0.1081  0.1797
  349loPI   C1B 5581  15.697   1.249   8.425 -0.2737  0.0009  0.0247
  349loPI   C2B 5582  15.620   1.297   8.049  0.4646  0.2946  0.2447
  349loPI   C3B 5583  15.435   1.285   7.640  0.2665  0.0052  0.1210
  349loPI   C4B 5584  15.631   1.306   7.341  0.3055 -0.1916 -0.0101
  350loPI    C1 5585   6.243   1.387   9.723 -0.0467 -0.0104  0.0051
  350loPI    C2 5586   6.117   1.193  10.049 -0.0543  0.0925  0.0638
  350loPI    C3 5587   6.361   1.507  10.086 -0.0501  0.1005 -0.0301
  350loPI   PO4 5588   6.212   1.317   9.438 -0.1472 -0.2107 -0.2066
  350loPI   GL1 5589   6.257   1.341   9.002  0.0941  0.0746  0.0095
  350loPI   GL2 5590   5.929   1.371   8.926  0.4678 -0.0498  0.3369
  350loPI   C1A 5591   6.526   1.038   8.710  0.2148  0.2485  0.2713
  350loPI   C2A 5592   6.591   0.986   8.279  0.0814 -0.0990 -0.0918
  350loPI   C3A 5593   6.544   1.051   7.894  0.1096 -0.3183 -0.0782
  350loPI   C4A 5594   6.370   1.016   7.593  0.2551  0.0669  0.0202
  350loPI   C5A 5595   6.131   0.808   7.239  0.1086 -0.2207  0.0365
  350loPI   C6A 5596   5.753   0.955   7.051 -0.1846  0.0845 -0.2389
  350loPI   C1B 5597   6.162   1.364   8.510 -0.0425  0.0311 -0.0288
  350loPI   C2B 5598   6.220   1.367   8.044 -0.0668 -0.5113 -0.1501
  350loPI   C3B 5599   5.981   1.518   7.707 -0.1819 -0.1813 -0.1656
  350loPI   C4B 5600   6.000   1.406   7.260  0.1442  0.0214 -0.1755
  351loPI    C1 5601   4.331  17.365   9.765 -0.0397 -0.0028 -0.0804
  351loPI    C2 5602   4.527  17.526  10.074 -0.0651 -0.1172 -0.0040
  351loPI    C3 5603   4.418  17.142  10.085 -0.1273 -0.1037 -0.1261
  351loPI   PO4 5604   4.397  17.526   9.607 -0.3420 -0.0719  0.1562
  351loPI   GL1 5605   4.375  17.530   9.117 -0.1600 -0.0334 -0.0330
  351loPI   GL2 5606   4.518  17.782   9.041  0.0942 -0.0939 -0.2741
  351loPI   C1A 5607   4.137  17.557   8.768 -0.0760 -0.0240 -0.1721
  351loPI   C2A 5608   3.925  17.540   8.409 -0.1148  0.0725 -0.2333
  351loPI   C3A 5609   3.848  17.512   8.021  0.1005  0.0653 -0.0150
  351loPI   C4A 5610   3.695  17.179   7.683 -0.4382 -0.1586  0.1655
  351loPI   C5A 5611   3.791  17.094   7.350  0.5304  0.0690 -0.1136
  351loPI   C6A 5612   3.792  16.803   7.100  0.3631  0.1786  0.1630
  351loPI   C1B 5613   4.506  17.783   8.566  0.0323  0.0887 -0.0666
  351loPI   C2B 5614   4.422  17.638   8.168 -0.0063 -0.0862  0.0755
  351loPI   C3B 5615   4.578  17.629   7.769 -0.2405  0.1796 -0.3876
  351loPI   C4B 5616   4.530  17.581   7.328  0.0814  0.1821 -0.0190
  352loPI    C1 5617   6.860   3.860   9.272 -0.1387 -0.0856 -0.1192
  352loPI    C2 5618   6.627   3.966   9.580 -0.1060 -0.0606 -0.1030
  352loPI    C3 5619   6.706   3.580   9.512 -0.1045 -0.0654 -0.0736
  352loPI   PO4 5620   6.793   3.950   8.984  0.2711 -0.0468 -0.4692
  352loPI   GL1 5621   6.708   3.706   8.594 -0.3785 -0.0803  0.0516
  352loPI   GL2 5622   6.550   3.424   8.664 -0.0198 -0.2294 -0.0432
  352loPI   C1A 5623   6.924   3.617   8.316  0.1957 -0.1694 -0.0981
  352loPI   C2A 5624   7.041   3.390   8.031  0.0034  0.1417  0.2347
  352loPI   C3A 5625   7.364   3.336   7.722 -0.2150 -0.1189  0.2770
  352loPI   C4A 5626   7.502   3.287   7.235 -0.1197 -0.0417 -0.1705
  352loPI   C5A 5627   7.681   3.240   6.769  0.1374  0.2655  0.1017
  352loPI   C6A 5628   7.870   3.502   6.482 -0.1994  0.0475  0.1842
  352loPI   C1B 5629   6.360   3.323   8.397 -0.0242  0.1554 -0.0712
  352loPI   C2B 5630   6.048   3.262   8.109  0.2614  0.2992  0.2563
  352loPI   C3B 5631   5.713   3.571   7.829  0.0184 -0.1095  0.1192
  352loPI   C4B 5632   5.688   3.899   7.499  0.2355  0.1807  0.2854
  353loPI    C1 5633  17.814   5.196   9.297  0.0888 -0.0968 -0.0400
  353loPI    C2 5634  17.572   5.502   9.386  0.1828 -0.0353  0.0052
  353loPI    C3 5635  17.721   5.273   9.679  0.1099 -0.1267 -0.0288
  353loPI   PO4 5636  17.760   5.139   9.076  0.4831  0.2372 -0.3732
  353loPI   GL1 5637  17.684   5.114   8.778  0.2818  0.2216  0.0614
  353loPI   GL2 5638  17.940   5.029   8.633 -0.2274 -0.0926  0.2105
  353loPI   C1A 5639  17.623   5.325   8.428  0.0429 -0.2293 -0.1732
  353loPI   C2A 5640  17.744   5.146   8.040  0.0677  0.1274 -0.3684
  353loPI   C3A 5641  17.870   5.009   7.679  0.3755 -0.0036 -0.0449
  353loPI   C4A 5642  18.004   4.848   7.376  0.0932  0.2390 -0.1125
  353loPI   C5A 5643  18.259   4.497   7.213 -0.0030  0.1225  0.1718
  353loPI   C6A 5644  18.604   4.245   7.162  0.0106  0.2096 -0.1066
  353loPI   C1B 5645  17.631   4.822   8.415 -0.0204  0.1187 -0.0099
  353loPI   C2B 5646  17.472   4.734   7.937 -0.1753 -0.2694  0.1236
  353loPI   C3B 5647  17.477   4.830   7.422 -0.2921  0.0689  0.0371
  353loPI   C4B 5648  17.641   5.013   7.115 -0.0446 -0.1009  0.4860
  354loPI    C1 5649   1.579   3.709   9.615  0.1137 -0.3728  0.1365
  354loPI    C2 5650   1.935   3.622   9.774  0.1568 -0.0762  0.2077
  354loPI    C3 5651   1.607   3.611  10.002  0.1509 -0.1296  0.1968
  354loPI   PO4 5652   1.650   3.655   9.377  0.1143 -0.0657 -0.0968
  354loPI   GL1 5653   1.792   3.389   9.012 -0.3042 -0.0980 -0.1928
  354loPI   GL2 5654   1.401   3.511   8.916 -0.1486 -0.2842 -0.2692
  354loPI   C1A 5655   2.004   3.704   8.698  0.4365 -0.0165 -0.0067
  354loPI   C2A 5656   1.793   4.006   8.441 -0.4717 -0.1051 -0.0056
  354loPI   C3A 5657   1.710   4.261   8.098  0.1631  0.0800 -0.1078
  354loPI   C4A 5658   1.569   4.509   7.770 -0.2190 -0.1075  0.0411
  354loPI   C5A 5659   1.617   4.569   7.328 -0.1051 -0.0754  0.1563
  354loPI   C6A 5660   1.140   4.349   7.161  0.0963 -0.1634 -0.0905
  354loPI   C1B 5661   1.609   3.485   8.448 -0.1390  0.0890  0.1088
  354loPI   C2B 5662   1.739   3.078   8.177 -0.1837 -0.3273  0.1561
  354loPI   C3B 5663   1.992   3.180   7.810 -0.0758  0.3202 -0.0144
  354loPI   C4B 5664   2.337   3.305   7.695 -0.2003 -0.1736 -0.0199
  355loPI    C1 5665   9.993   3.722   9.430  0.3862  0.2395  0.0756
  355loPI    C2 5666   9.859   4.065   9.587  0.3048  0.2289  0.0293
  355loPI    C3 5667  10.087   3.821   9.806  0.2145  0.2275  0.1226
  355loPI   PO4 5668  10.045   3.797   9.151 -0.1417  0.0542 -0.1276
  355loPI   GL1 5669  10.074   3.593   8.857  0.3108 -0.1034  0.4791
  355loPI   GL2 5670  10.275   3.425   8.749 -0.3349  0.1404  0.0222
  355loPI   C1A 5671   9.768   3.400   8.531  0.3588 -0.1456  0.0044
  355loPI   C2A 5672   9.815   3.250   8.084  0.1052 -0.0087 -0.0573
  355loPI   C3A 5673   9.722   3.263   7.651 -0.1482 -0.3928  0.1387
  355loPI   C4A 5674   9.525   3.369   7.280 -0.0783  0.0325 -0.2021
  355loPI   C5A 5675   9.306   3.405   6.882 -0.0288 -0.0711  0.1035
  355loPI   C6A 5676   9.362   3.339   6.362  0.1791  0.1197 -0.2105
  355loPI   C1B 5677  10.236   3.413   8.369  0.0781 -0.1378  0.1524
  355loPI   C2B 5678  10.336   3.347   7.911 -0.2053  0.2521  0.0218
  355loPI   C3B 5679  10.237   3.359   7.533  0.3033 -0.3001  0.3755
  355loPI   C4B 5680  10.111   3.413   7.116  0.0560  0.1890  0.2104
  356loPI    C1 5681   2.580  13.149   9.587 -0.0505 -0.1676 -0.0186
  356loPI    C2 5682   2.712  12.980   9.925 -0.2201 -0.1849  0.0398
  356loPI    C3 5683   2.889  13.310   9.783 -0.1202 -0.2031  0.1215
  356loPI   PO4 5684   2.501  12.867   9.479 -0.3312  0.0956  0.2002
  356loPI   GL1 5685   2.756  12.700   9.095 -0.2017  0.0374 -0.0145
  356loPI   GL2 5686   2.488  12.461   9.156  0.0061  0.1525 -0.0206
  356loPI   C1A 5687   2.815  12.558   8.718  0.2288  0.0708 -0.1371
  356loPI   C2A 5688   3.055  12.173   8.477 -0.0573 -0.2459 -0.0129
  356loPI   C3A 5689   3.040  11.780   8.197  0.2844 -0.0112  0.1200
  356loPI   C4A 5690   2.689  11.455   8.210 -0.2794  0.0150 -0.0958
  356loPI   C5A 5691   2.351  11.185   8.380  0.2797  0.0754 -0.0246
  356loPI   C6A 5692   2.279  10.985   8.612 -0.2662  0.0578 -0.0698
  356loPI   C1B 5693   2.559  12.138   8.827 -0.1823  0.1916  0.3581
  356loPI   C2B 5694   2.453  12.201   8.419  0.1898  0.0178 -0.1931
  356loPI   C3B 5695   2.692  12.119   8.092 -0.0497 -0.1634 -0.0626
  356loPI   C4B 5696   2.827  11.772   7.764  0.1818  0.3541  0.2160
  357loPI    C1 5697   8.880   9.066   9.356  0.3234  0.0138  0.0129
  357loPI    C2 5698   9.004   9.296   9.660  0.1222 -0.2124  0.2705
  357loPI    C3 5699   8.865   8.927   9.731  0.0002 -0.2397 -0.0900
  357loPI   PO4 5700   8.849   9.240   9.140 -0.1493  0.0772  0.0113
  357loPI   GL1 5701   8.779   9.259   8.699 -0.1735 -0.1074 -0.0806
  357loPI   GL2 5702   8.697   9.610   8.817  0.2900 -0.1215  0.0215
  357loPI   C1A 5703   8.494   9.142   8.349 -0.0990 -0.1220 -0.0744
  357loPI   C2A 5704   8.511   9.184   7.941  0.0885 -0.3623  0.1366
  357loPI   C3A 5705   8.140   9.286   7.715 -0.0393  0.0487 -0.0545
  357loPI   C4A 5706   7.956   9.113   7.329  0.2510  0.1014  0.0482
  357loPI   C5A 5707   8.061   9.359   7.021  0.0162  0.0272  0.3671
  357loPI   C6A 5708   8.199   9.541   6.596  0.0694 -0.1569 -0.0605
  357loPI   C1B 5709   8.685   9.861   8.456 -0.1594  0.1006 -0.0336
  357loPI   C2B 5710   8.480  10.005   8.152  0.2311 -0.0855 -0.2534
  357loPI   C3B 5711   8.258  10.314   7.896  0.0966 -0.0945 -0.0123
  357loPI   C4B 5712   8.319  10.579   7.505 -0.1015  0.0391  0.0895
  358loPI    C1 5713  19.048  18.129   9.511 -0.1137  0.0997 -0.1237
  358loPI    C2 5714  18.810  17.846   9.662  0.0392  0.0718  0.0691
  358loPI    C3 5715  19.188  17.877   9.788  0.0772  0.2466 -0.0844
  358loPI   PO4 5716  19.114  18.112   9.230 -0.2736  0.3858  0.1577
  358loPI   GL1 5717  19.070  17.842   8.867 -0.1342 -0.1002  0.0114
  358loPI   GL2 5718  19.304  18.114   8.742  0.0339  0.2018 -0.0892
  358loPI   C1A 5719  18.917  17.635   8.480  0.1733 -0.1826  0.1630
  358loPI   C2A 5720  18.828  17.544   7.941 -0.1016  0.3843 -0.2000
  358loPI   C3A 5721  18.851  17.492   7.588  0.1748 -0.0708 -0.2227
  358loPI   C4A 5722  19.097  17.306   7.301  0.0291  0.2283  0.3178
  358loPI   C5A 5723  18.968  16.949   7.013  0.1755 -0.0473 -0.2021
  358loPI   C6A 5724  19.110  16.888   6.624 -0.1258 -0.2024 -0.0449
  358loPI   C1B 5725  19.241  18.370   8.386 -0.0186 -0.0721 -0.0085
  358loPI   C2B 5726  18.900  18.486   8.099  0.0305  0.1543  0.1952
  358loPI   C3B 5727  18.922  18.561   7.668  0.0588 -0.0899 -0.0488
  358loPI   C4B 5728  18.785  18.531   7.243  0.3762  0.1888  0.1136
  359loPI    C1 5729   6.686  16.256   9.710  0.1352  0.0061  0.0350
  359loPI    C2 5730   6.429  16.078   9.959 -0.0990 -0.0337 -0.2298
  359loPI    C3 5731   6.785  16.201  10.094 -0.2052 -0.0893  0.1125
  359loPI   PO4 5732   6.733  16.218   9.406 -0.1551 -0.0712 -0.0172
  359loPI   GL1 5733   6.716  16.334   9.036 -0.4175 -0.1982  0.1019
  359loPI   GL2 5734   6.413  16.616   9.081  0.4648 -0.2265 -0.2714
  359loPI   C1A 5735   6.786  16.530   8.593 -0.0170 -0.2011  0.0629
  359loPI   C2A 5736   7.044  16.638   8.270  0.1094 -0.0965  0.0015
  359loPI   C3A 5737   7.048  16.581   7.848  0.1220  0.0387 -0.3283
  359loPI   C4A 5738   7.064  16.343   7.480  0.2688  0.4097 -0.1187
  359loPI   C5A 5739   6.845  16.128   7.208 -0.0269  0.0422 -0.0235
  359loPI   C6A 5740   6.632  15.671   7.350  0.0614  0.1248 -0.1194
  359loPI   C1B 5741   5.993  16.553   8.865  0.1227  0.0248 -0.3683
  359loPI   C2B 5742   5.785  16.320   8.479 -0.0686  0.4397 -0.1205
  359loPI   C3B 5743   5.618  16.175   8.224 -0.2522 -0.0800  0.2262
  359loPI   C4B 5744   5.438  16.311   7.767 -0.2793  0.2083  0.2968
  360loPI    C1 5745  18.001  19.775   9.751 -0.0169  0.2719  0.1434
  360loPI    C2 5746  18.289  19.508   9.828 -0.0833  0.0934 -0.2025
  360loPI    C3 5747  18.215  19.803  10.088  0.0838 -0.1414  0.1198
  360loPI   PO4 5748  18.063  19.877   9.523 -0.0695 -0.1584  0.1689
  360loPI   GL1 5749  18.359  19.820   9.205  0.1566 -0.1501  0.0194
  360loPI   GL2 5750  18.469  20.096   8.965 -0.0493  0.3563  0.0519
  360loPI   C1A 5751  18.135  19.597   8.864 -0.0084  0.0291  0.0623
  360loPI   C2A 5752  18.104  19.638   8.403 -0.1290  0.1920 -0.1499
  360loPI   C3A 5753  18.118  19.771   7.959 -0.2938 -0.1147  0.0633
  360loPI   C4A 5754  18.094  19.567   7.533 -0.0884  0.1149  0.2393
  360loPI   C5A 5755  18.295  19.403   7.278 -0.0231  0.0196 -0.0508
  360loPI   C6A 5756  18.583  19.667   6.940  0.2838 -0.2000 -0.0637
  360loPI   C1B 5757  18.300  20.432   8.823 -0.2474  0.1187 -0.0358
  360loPI   C2B 5758  18.005  20.544   8.610  0.0831 -0.2090 -0.0612
  360loPI   C3B 5759  17.988  20.771   8.206 -0.1470 -0.1684 -0.1259
  360loPI   C4B 5760  17.934  21.059   7.977 -0.0268  0.1829 -0.1795
  361loPI    C1 5761   4.074  18.445   9.859 -0.1416  0.0151 -0.0112
  361loPI    C2 5762   3.900  18.598  10.186 -0.1212  0.0920 -0.0359
  361loPI    C3 5763   4.267  18.442  10.210 -0.2720 -0.2578  0.0604
  361loPI   PO4 5764   3.952  18.460   9.671 -0.1511 -0.1487 -0.1334
  361loPI   GL1 5765   3.916  18.463   9.286 -0.1065  0.3595  0.6753
  361loPI   GL2 5766   3.648  18.560   9.163  0.0566 -0.1784  0.1116
  361loPI   C1A 5767   4.070  18.564   8.831 -0.0568  0.0724  0.3271
  361loPI   C2A 5768   3.912  18.501   8.371 -0.1639  0.0572 -0.1092
  361loPI   C3A 5769   4.058  18.448   7.846 -0.2012 -0.3268  0.0801
  361loPI   C4A 5770   4.052  18.779   7.466  0.2592 -0.1494 -0.1744
  361loPI   C5A 5771   3.941  18.922   7.079 -0.0027 -0.3579 -0.1232
  361loPI   C6A 5772   3.608  19.162   7.209 -0.2458 -0.0914 -0.1517
  361loPI   C1B 5773   3.640  18.892   8.863  0.2028 -0.2522  0.0615
  361loPI   C2B 5774   3.998  19.023   8.654 -0.1434 -0.0732  0.2429
  361loPI   C3B 5775   4.012  19.175   8.276 -0.2777 -0.1050 -0.1337
  361loPI   C4B 5776   3.937  18.970   7.899  0.1201 -0.1055 -0.2722
  362loPI    C1 5777  10.356  18.620   9.371 -0.0714 -0.0709  0.0691
  362loPI    C2 5778  10.630  18.337   9.302 -0.1905 -0.1734  0.0130
  362loPI    C3 5779  10.255  18.289   9.170 -0.1872  0.0562 -0.0842
  362loPI   PO4 5780  10.418  18.826   9.268 -0.0153 -0.1548 -0.3931
  362loPI   GL1 5781  10.467  18.843   8.894  0.1375 -0.3200  0.1167
  362loPI   GL2 5782  10.598  19.106   8.906 -0.0562 -0.1634 -0.0733
  362loPI   C1A 5783  10.462  18.588   8.481 -0.0131 -0.4152 -0.0039
  362loPI   C2A 5784  10.362  18.525   8.027 -0.0324 -0.1935  0.2202
  362loPI   C3A 5785  10.299  18.408   7.588 -0.2800  0.1563  0.1359
  362loPI   C4A 5786  10.119  18.101   7.220  0.2460  0.4293  0.1569
  362loPI   C5A 5787   9.850  18.100   6.816 -0.1397 -0.4654  0.1947
  362loPI   C6A 5788   9.492  18.288   6.643  0.2731 -0.1724 -0.0303
  362loPI   C1B 5789  10.364  19.082   8.448  0.0871 -0.2577  0.0585
  362loPI   C2B 5790  10.475  19.056   7.997  0.2672 -0.2615 -0.2203
  362loPI   C3B 5791  10.530  19.283   7.512  0.0323  0.0344 -0.2009
  362loPI   C4B 5792  10.425  19.739   7.475  0.2604  0.1915 -0.2214
  363loPI    C1 5793  15.009  12.689   9.659  0.2336  0.0905  0.2758
  363loPI    C2 5794  14.853  13.056   9.627 -0.0414 -0.0483 -0.0439
  363loPI    C3 5795  14.667  12.778   9.846 -0.1248 -0.1491 -0.2403
  363loPI   PO4 5796  15.160  12.763   9.404  0.4184 -0.0922  0.0232
  363loPI   GL1 5797  15.415  12.699   9.046  0.3010 -0.3199 -0.1236
  363loPI   GL2 5798  15.336  12.962   8.908 -0.1896  0.1726 -0.1457
  363loPI   C1A 5799  15.368  12.544   8.623  0.1454  0.1181  0.1621
  363loPI   C2A 5800  15.639  12.429   8.344 -0.0323  0.0722 -0.2085
  363loPI   C3A 5801  15.901  12.583   8.087  0.0613  0.1553  0.0270
  363loPI   C4A 5802  15.900  12.498   7.671  0.4095 -0.0328  0.3923
  363loPI   C5A 5803  16.141  12.269   7.403  0.0073 -0.1824 -0.2477
  363loPI   C6A 5804  16.198  11.893   7.198 -0.0976 -0.0242  0.0919
  363loPI   C1B 5805  15.010  13.004   8.588 -0.0301 -0.0195  0.1472
  363loPI   C2B 5806  14.716  12.974   8.316  0.0206  0.3209  0.3083
  363loPI   C3B 5807  14.623  12.596   7.969 -0.1750 -0.1892 -0.2378
  363loPI   C4B 5808  14.502  12.539   7.411 -0.4645 -0.3058 -0.1217
  364loPI    C1 5809  11.213   5.941   9.124 -0.1635  0.2844  0.0640
  364loPI    C2 5810  11.598   5.949   9.019 -0.1370 -0.3275  0.0799
  364loPI    C3 5811  11.496   5.960   9.405 -0.1707  0.4110  0.0634
  364loPI   PO4 5812  11.131   5.741   8.874 -0.0274  0.2564 -0.1228
  364loPI   GL1 5813  11.304   5.578   8.497  0.1335 -0.1116 -0.0128
  364loPI   GL2 5814  10.994   5.312   8.510  0.4242  0.3431 -0.2396
  364loPI   C1A 5815  11.515   5.450   8.174  0.2959  0.0357 -0.2171
  364loPI   C2A 5816  11.601   5.235   7.833 -0.1079 -0.0192  0.1471
  364loPI   C3A 5817  11.468   5.070   7.430  0.3413 -0.3132 -0.2221
  364loPI   C4A 5818  11.695   4.812   7.199  0.0619  0.0312 -0.2577
  364loPI   C5A 5819  11.749   4.451   7.113  0.4804  0.0245  0.1197
  364loPI   C6A 5820  11.842   4.096   6.844  0.0455 -0.0718 -0.1741
  364loPI   C1B 5821  10.967   5.197   8.057  0.1964  0.1427  0.0430
  364loPI   C2B 5822  11.044   5.275   7.641 -0.1681  0.0518  0.0832
  364loPI   C3B 5823  10.895   5.227   7.190 -0.0155 -0.0011 -0.0429
  364loPI   C4B 5824  11.179   4.987   6.975  0.1166 -0.3175 -0.1171
  365loPI    C1 5825  11.721   9.692   9.461  0.2905  0.0308  0.2274
  365loPI    C2 5826  11.414   9.910   9.594  0.1246  0.0446 -0.1629
  365loPI    C3 5827  11.418   9.514   9.651  0.1958  0.0842  0.1271
  365loPI   PO4 5828  11.712   9.795   9.204 -0.1786 -0.2232 -0.0377
  365loPI   GL1 5829  11.651   9.933   8.827  0.0770  0.0184  0.0770
  365loPI   GL2 5830  11.883   9.805   8.643 -0.2408  0.0329 -0.1049
  365loPI   C1A 5831  11.549  10.086   8.375  0.0437  0.3368  0.0138
  365loPI   C2A 5832  11.599   9.975   7.986 -0.0471  0.2684 -0.0123
  365loPI   C3A 5833  11.566   9.956   7.539 -0.0170  0.2591 -0.1880
  365loPI   C4A 5834  11.488  10.001   7.067  0.0425 -0.0565 -0.4261
  365loPI   C5A 5835  11.575  10.263   6.738  0.0632  0.1146  0.1545
  365loPI   C6A 5836  11.577  10.469   6.428 -0.0320  0.0005  0.3478
  365loPI   C1B 5837  12.067   9.781   8.206  0.0181 -0.0750 -0.1137
  365loPI   C2B 5838  12.027   9.762   7.776  0.2591  0.2103  0.1222
  365loPI   C3B 5839  11.956   9.780   7.310 -0.2440 -0.0044  0.0025
  365loPI   C4B 5840  11.741   9.561   7.054 -0.0321 -0.1383 -0.5678
  366loPI    C1 5841  12.594   1.171   9.597 -0.1650  0.0082 -0.2167
  366loPI    C2 5842  12.202   1.105   9.648 -0.1310  0.0249  0.0893
  366loPI    C3 5843  12.441   1.144   9.966  0.1714 -0.2792 -0.0927
  366loPI   PO4 5844  12.629   1.345   9.370 -0.2061  0.3823 -0.2740
  366loPI   GL1 5845  12.600   1.386   8.857 -0.1349 -0.0170 -0.5399
  366loPI   GL2 5846  12.368   1.523   8.965 -0.0475  0.2563  0.2151
  366loPI   C1A 5847  12.505   1.286   8.427  0.1394  0.1041  0.1633
  366loPI   C2A 5848  12.446   1.250   7.958 -0.2895  0.0761  0.1440
  366loPI   C3A 5849  12.297   1.151   7.530  0.1501  0.1206 -0.1431
  366loPI   C4A 5850  12.453   0.996   7.117  0.1331 -0.3785  0.0462
  366loPI   C5A 5851  12.454   0.723   6.822 -0.1519 -0.2547 -0.0215
  366loPI   C6A 5852  12.321   0.562   6.494  0.1417  0.1564  0.0515
  366loPI   C1B 5853  12.069   1.360   8.682  0.0994 -0.4949  0.0999
  366loPI   C2B 5854  11.942   1.352   8.283 -0.1537  0.1237 -0.1883
  366loPI   C3B 5855  11.953   1.650   7.892 -0.1465  0.4761  0.1933
  366loPI   C4B 5856  11.932   1.717   7.455 -0.2886 -0.0448 -0.0867
  367loPI    C1 5857   8.963   4.873   9.454 -0.0955  0.1145  0.0832
  367loPI    C2 5858   8.621   5.022   9.599 -0.2639 -0.2764  0.1024
  367loPI    C3 5859   8.895   4.870   9.848  0.0415  0.2582  0.1087
  367loPI   PO4 5860   8.939   4.689   9.218  0.0350  0.1910  0.0093
  367loPI   GL1 5861   8.789   4.734   8.826  0.2029 -0.0035  0.1914
  367loPI   GL2 5862   9.089   4.599   8.756  0.2204  0.0876  0.0567
  367loPI   C1A 5863   8.700   5.060   8.569 -0.0273  0.2285 -0.1435
  367loPI   C2A 5864   8.736   5.070   8.122 -0.1578 -0.2280  0.1208
  367loPI   C3A 5865   8.672   5.146   7.653 -0.0089  0.1811 -0.2022
  367loPI   C4A 5866   8.762   5.398   7.376 -0.0146  0.1301 -0.0112
  367loPI   C5A 5867   8.742   5.604   6.921 -0.0625  0.0171  0.2025
  367loPI   C6A 5868   9.000   5.673   6.558 -0.1633  0.1608  0.3136
  367loPI   C1B 5869   9.100   4.759   8.350 -0.0126  0.2515 -0.0068
  367loPI   C2B 5870   9.141   4.841   7.873 -0.0920  0.0066 -0.2753
  367loPI   C3B 5871   9.086   4.990   7.443  0.2825  0.1472  0.1543
  367loPI   C4B 5872   8.772   5.035   7.047 -0.0298  0.1221 -0.4182
  368loPI    C1 5873   0.924   9.036  10.045 -0.0639  0.0425 -0.2837
  368loPI    C2 5874   0.992   9.422   9.965  0.0053  0.0641 -0.1249
  368loPI    C3 5875   1.055   9.280  10.333  0.0818 -0.1223 -0.2082
  368loPI   PO4 5876   1.128   8.931   9.768 -0.4322  0.2012 -0.0497
  368loPI   GL1 5877   1.043   8.686   9.348  0.1487 -0.4494 -0.1699
  368loPI   GL2 5878   0.943   8.381   9.301 -0.2402  0.2877  0.1948
  368loPI   C1A 5879   1.079   8.854   8.898  0.4686 -0.1987 -0.4459
  368loPI   C2A 5880   1.122   8.879   8.459  0.0982  0.0359  0.1491
  368loPI   C3A 5881   1.037   8.927   8.067  0.2531 -0.2237  0.0322
  368loPI   C4A 5882   0.982   8.925   7.660  0.1063 -0.3122  0.0322
  368loPI   C5A 5883   1.116   8.807   7.346  0.2020  0.1401 -0.2958
  368loPI   C6A 5884   1.134   8.403   7.061 -0.1698 -0.2677  0.1032
  368loPI   C1B 5885   0.746   8.466   8.931  0.3632  0.3094 -0.2887
  368loPI   C2B 5886   0.652   8.612   8.662 -0.0192  0.3033  0.3327
  368loPI   C3B 5887   0.717   8.617   8.278 -0.1788 -0.1717  0.1441
  368loPI   C4B 5888   0.590   8.855   7.977  0.3119  0.0129  0.1102
  369loPI    C1 5889   3.154   6.463   9.418 -0.2517  0.0035 -0.3753
  369loPI    C2 5890   3.473   6.674   9.303 -0.0868 -0.1337 -0.1779
  369loPI    C3 5891   3.403   6.314   9.143 -0.1499 -0.0984 -0.2300
  369loPI   PO4 5892   2.954   6.495   9.344 -0.2046  0.1081  0.2476
  369loPI   GL1 5893   2.693   6.853   9.230 -0.3699  0.0271  0.2891
  369loPI   GL2 5894   2.503   6.758   8.993  0.1232  0.0082 -0.4216
  369loPI   C1A 5895   2.710   7.165   8.788 -0.0379  0.2329  0.2325
  369loPI   C2A 5896   2.880   7.324   8.389  0.0347  0.3285  0.1129
  369loPI   C3A 5897   2.825   7.542   8.066 -0.2456  0.0043  0.4315
  369loPI   C4A 5898   2.977   7.472   7.657  0.1550  0.0753 -0.2244
  369loPI   C5A 5899   3.118   7.395   7.248  0.0107 -0.1008  0.0820
  369loPI   C6A 5900   2.894   7.502   6.867 -0.0276 -0.4404 -0.1031
  369loPI   C1B 5901   2.250   7.034   8.710  0.2927 -0.0282  0.2195
  369loPI   C2B 5902   2.338   7.166   8.313  0.0247  0.1371 -0.3490
  369loPI   C3B 5903   2.343   7.419   8.049 -0.2042 -0.0256 -0.1922
  369loPI   C4B 5904   2.396   7.536   7.738  0.1830  0.3392  0.1521
  370loPI    C1 5905  10.480   9.599   9.360 -0.5598  0.1548 -0.0380
  370loPI    C2 5906  10.316   9.426   9.681  0.2981 -0.2870  0.1907
  370loPI    C3 5907  10.564   9.737   9.726  0.0428 -0.0363 -0.0931
  370loPI   PO4 5908  10.269   9.606   9.150 -0.0161 -0.2535 -0.2178
  370loPI   GL1 5909  10.386   9.686   8.693  0.1834 -0.0229 -0.0567
  370loPI   GL2 5910  10.273   9.932   8.733  0.0476  0.0337 -0.1756
  370loPI   C1A 5911  10.737   9.626   8.341 -0.1923  0.2223 -0.2769
  370loPI   C2A 5912  10.801   9.562   7.969  0.0336  0.0051  0.2015
  370loPI   C3A 5913  10.899   9.495   7.528 -0.0988 -0.0559  0.3445
  370loPI   C4A 5914  10.777   9.728   7.112  0.4389 -0.0582  0.2565
  370loPI   C5A 5915  10.582  10.055   7.132 -0.1444  0.0136  0.5592
  370loPI   C6A 5916  10.134   9.996   7.168  0.0104  0.2402 -0.1549
  370loPI   C1B 5917  10.551  10.110   8.422 -0.0830 -0.0334 -0.0837
  370loPI   C2B 5918  10.905  10.084   8.030 -0.0333  0.1477  0.2396
  370loPI   C3B 5919  11.098  10.027   7.609  0.1132  0.1111  0.0744
  370loPI   C4B 5920  11.283   9.643   7.331 -0.1245  0.2643  0.0188
  371loPI    C1 5921  11.860   5.254   9.788 -0.0098  0.1556  0.2128
  371loPI    C2 5922  12.223   5.086   9.783 -0.0772  0.0116 -0.0828
  371loPI    C3 5923  11.978   5.024  10.093  0.0474 -0.1135 -0.0083
  371loPI   PO4 5924  11.813   5.227   9.489  0.3087 -0.2614  0.1414
  371loPI   GL1 5925  11.961   5.073   9.163 -0.0829 -0.1706  0.0419
  371loPI   GL2 5926  12.191   5.297   9.110  0.0040 -0.0865  0.1014
  371loPI   C1A 5927  11.761   4.849   8.706 -0.1444  0.0389  0.1753
  371loPI   C2A 5928  11.431   4.949   8.387  0.0232 -0.0237 -0.1380
  371loPI   C3A 5929  11.269   4.839   7.841  0.1337  0.2118  0.0530
  371loPI   C4A 5930  10.992   4.750   7.477 -0.0334  0.1048 -0.1166
  371loPI   C5A 5931  10.852   4.669   7.063  0.0242  0.2481 -0.0349
  371loPI   C6A 5932  10.786   4.525   6.663 -0.1218  0.1582 -0.3578
  371loPI   C1B 5933  12.393   5.103   8.803 -0.0662 -0.4269  0.2533
  371loPI   C2B 5934  12.523   4.785   8.554 -0.0165  0.0022  0.0645
  371loPI   C3B 5935  12.282   4.391   8.518  0.3611 -0.0550  0.0321
  371loPI   C4B 5936  12.223   4.096   8.406  0.0616  0.2015 -0.0139
  372loPI    C1 5937  11.749   7.684   9.054 -0.0030  0.0537  0.0354
  372loPI    C2 5938  11.364   7.594   9.112  0.0371 -0.1517 -0.0095
  372loPI    C3 5939  11.622   7.575   9.417  0.0060  0.0214  0.0289
  372loPI   PO4 5940  11.857   7.905   8.920  0.1234  0.1378  0.2915
  372loPI   GL1 5941  12.043   7.935   8.575 -0.5284 -0.0466 -0.3082
  372loPI   GL2 5942  12.402   7.811   8.622  0.2366 -0.0848  0.0054
  372loPI   C1A 5943  11.892   7.954   8.109  0.3000  0.0231 -0.0186
  372loPI   C2A 5944  11.547   7.885   7.860  0.2341  0.0603  0.0051
  372loPI   C3A 5945  11.359   7.747   7.575  0.0650 -0.1559 -0.0581
  372loPI   C4A 5946  11.251   7.463   7.351 -0.1436 -0.0888 -0.0173
  372loPI   C5A 5947  11.427   7.245   6.918 -0.0380  0.3655 -0.0319
  372loPI   C6A 5948  11.313   7.031   6.540  0.2326 -0.1463 -0.2798
  372loPI   C1B 5949  12.376   7.747   8.203  0.3847  0.4870  0.1539
  372loPI   C2B 5950  12.323   7.659   7.742 -0.1256  0.0326 -0.2815
  372loPI   C3B 5951  12.328   7.713   7.331 -0.0405 -0.1081  0.1396
  372loPI   C4B 5952  12.151   7.922   6.978  0.2580 -0.2647 -0.1009
  373loPI    C1 5953  16.789   3.675   9.327  0.0179  0.2116 -0.1606
  373loPI    C2 5954  16.895   3.794   9.694 -0.0253  0.0571 -0.0972
  373loPI    C3 5955  16.522   3.854   9.564  0.0091  0.1754 -0.1430
  373loPI   PO4 5956  17.009   3.499   9.314  0.0907  0.4177 -0.2907
  373loPI   GL1 5957  17.098   3.340   8.958 -0.2402  0.3599  0.1077
  373loPI   GL2 5958  16.813   3.548   8.857 -0.0119  0.0744 -0.2256
  373loPI   C1A 5959  16.969   3.061   8.713  0.1210  0.0093  0.2458
  373loPI   C2A 5960  16.656   2.906   8.429 -0.2109  0.2558 -0.2742
  373loPI   C3A 5961  16.521   2.982   8.070 -0.2393  0.1114 -0.0356
  373loPI   C4A 5962  16.855   3.008   7.756 -0.3540  0.3600  0.0853
  373loPI   C5A 5963  17.133   3.197   7.329  0.0062 -0.1554  0.1554
  373loPI   C6A 5964  17.529   3.317   7.140 -0.0237  0.1069  0.1525
  373loPI   C1B 5965  16.802   3.810   8.466 -0.0067 -0.2012 -0.3660
  373loPI   C2B 5966  16.489   3.934   8.063 -0.3056  0.1007 -0.1688
  373loPI   C3B 5967  16.264   4.083   7.758  0.1836  0.0223 -0.2986
  373loPI   C4B 5968  16.331   4.066   7.415 -0.1971  0.2363 -0.1022
  374loPI    C1 5969  15.205   5.762   8.988 -0.1760 -0.0455  0.2284
  374loPI    C2 5970  15.349   6.073   8.782  0.0508 -0.2779  0.0298
  374loPI    C3 5971  15.116   6.135   9.101 -0.0921  0.0904 -0.1409
  374loPI   PO4 5972  15.475   5.627   8.954  0.1138  0.1079 -0.0176
  374loPI   GL1 5973  15.645   5.504   8.601  0.3773 -0.0632  0.0381
  374loPI   GL2 5974  15.710   5.233   8.598  0.2786  0.2077  0.0023
  374loPI   C1A 5975  15.874   5.760   8.399 -0.5229 -0.0431 -0.1480
  374loPI   C2A 5976  16.284   5.949   8.284 -0.1824  0.2411  0.1924
  374loPI   C3A 5977  16.543   6.032   7.993 -0.2468  0.0876  0.0100
  374loPI   C4A 5978  16.477   6.204   7.686 -0.0455 -0.3272  0.0078
  374loPI   C5A 5979  16.480   6.595   7.480  0.2531  0.4247  0.0732
  374loPI   C6A 5980  16.644   6.951   7.410  0.0557  0.0840 -0.2656
  374loPI   C1B 5981  15.786   5.350   8.169  0.1238 -0.0544  0.2498
  374loPI   C2B 5982  15.866   5.663   7.923 -0.1217  0.2196 -0.2468
  374loPI   C3B 5983  16.040   6.048   7.840 -0.0276  0.2651 -0.0732
  374loPI   C4B 5984  15.929   6.493   7.750 -0.1959 -0.0081  0.2436
  375loPI    C1 5985  16.409   8.400   9.113  0.2369 -0.2796  0.1220
  375loPI    C2 5986  16.290   8.327   9.488  0.2378  0.1459  0.2106
  375loPI    C3 5987  16.648   8.491   9.420  0.1265  0.3237  0.0414
  375loPI   PO4 5988  16.298   8.186   8.838  0.1553  0.2627  0.1679
  375loPI   GL1 5989  15.871   7.978   8.791 -0.0619  0.0175  0.0252
  375loPI   GL2 5990  15.499   7.933   8.713 -0.1229  0.1504 -0.2194
  375loPI   C1A 5991  15.914   8.021   8.319  0.0314  0.1208 -0.1727
  375loPI   C2A 5992  16.110   8.002   7.995 -0.1081  0.0997 -0.0807
  375loPI   C3A 5993  16.171   7.953   7.555 -0.0838  0.3712  0.0004
  375loPI   C4A 5994  16.185   7.841   7.206 -0.1274  0.0574  0.0038
  375loPI   C5A 5995  16.056   7.604   6.951  0.1835 -0.0451  0.0384
  375loPI   C6A 5996  16.061   7.127   6.818 -0.1137 -0.2113  0.1300
  375loPI   C1B 5997  15.112   8.055   8.533  0.1359  0.1784 -0.0569
  375loPI   C2B 5998  15.029   8.161   8.139  0.2672 -0.0303 -0.1201
  375loPI   C3B 5999  15.113   7.961   7.752 -0.2381  0.2671  0.0495
  375loPI   C4B 6000  15.214   7.518   7.491  0.0460 -0.2117  0.2950
  376loPI    C1 6001   3.309  15.553  10.210 -0.0979  0.0110  0.0516
  376loPI    C2 6002   3.395  15.162  10.222  0.1739  0.0659 -0.0288
  376loPI    C3 6003   3.374  15.373  10.561 -0.1088 -0.0445  0.0254
  376loPI   PO4 6004   3.092  15.593   9.996 -0.0494  0.0615 -0.0167
  376loPI   GL1 6005   3.245  15.645   9.573  0.0552 -0.0730  0.2513
  376loPI   GL2 6006   3.137  15.977   9.383  0.0040  0.0634 -0.0118
  376loPI   C1A 6007   3.187  15.486   9.231 -0.1570  0.0651 -0.0091
  376loPI   C2A 6008   3.254  15.295   8.809 -0.3402  0.1293 -0.0580
  376loPI   C3A 6009   3.376  15.100   8.389  0.0072 -0.3572 -0.0912
  376loPI   C4A 6010   3.232  14.975   7.960  0.0026  0.0441  0.0538
  376loPI   C5A 6011   3.255  14.817   7.638 -0.2228 -0.3955  0.0485
  376loPI   C6A 6012   3.230  15.037   7.179  0.1446  0.0016 -0.1185
  376loPI   C1B 6013   3.177  16.033   8.891  0.0928  0.0421 -0.1304
  376loPI   C2B 6014   2.908  15.966   8.504  0.3315 -0.2321 -0.0223
  376loPI   C3B 6015   3.061  15.926   8.167  0.3701 -0.2559 -0.1843
  376loPI   C4B 6016   3.160  15.959   7.849  0.3143 -0.1204  0.2672
  377loPI    C1 6017  18.441   5.524   9.924 -0.3557  0.2698  0.0536
  377loPI    C2 6018  18.340   5.165  10.070 -0.0686  0.0825 -0.1956
  377loPI    C3 6019  18.062   5.450  10.027 -0.2458 -0.0112  0.2709
  377loPI   PO4 6020  18.627   5.492   9.653  0.1093 -0.0786 -0.1357
  377loPI   GL1 6021  18.614   5.389   9.263  0.2827  0.1861  0.4185
  377loPI   GL2 6022  18.808   5.301   9.152  0.3571  0.0199 -0.1404
  377loPI   C1A 6023  18.761   5.437   8.723 -0.3110  0.0334  0.1635
  377loPI   C2A 6024  18.764   5.432   8.247  0.2774  0.0529  0.5703
  377loPI   C3A 6025  18.823   5.575   7.856 -0.1499  0.2706  0.1798
  377loPI   C4A 6026  19.089   5.450   7.563  0.0301 -0.3077  0.0674
  377loPI   C5A 6027  19.311   5.342   7.316 -0.0302 -0.1270  0.1468
  377loPI   C6A 6028  19.702   5.174   7.220 -0.0438 -0.3571 -0.1437
  377loPI   C1B 6029  18.905   4.989   8.869 -0.2730  0.0768  0.3647
  377loPI   C2B 6030  18.822   4.982   8.462 -0.2039 -0.0126 -0.0473
  377loPI   C3B 6031  18.841   4.973   7.957 -0.1945 -0.0317  0.3671
  377loPI   C4B 6032  18.757   5.070   7.501  0.0971  0.0952 -0.1113
  378loPI    C1 6033   7.705  12.854   9.832  0.5748  0.1634  0.1903
  378loPI    C2 6034   7.580  12.996  10.185  0.0878  0.0488  0.0719
  378loPI    C3 6035   7.640  12.604  10.138  0.0214  0.0484 -0.0099
  378loPI   PO4 6036   7.524  12.878   9.672 -0.1209  0.1643 -0.2725
  378loPI   GL1 6037   7.414  12.790   9.265 -0.2664 -0.2622  0.0954
  378loPI   GL2 6038   7.650  12.532   9.209 -0.0722 -0.0930 -0.0212
  378loPI   C1A 6039   7.491  13.085   9.016 -0.1043 -0.2602  0.1896
  378loPI   C2A 6040   7.497  13.466   8.728  0.1896 -0.2170 -0.2027
  378loPI   C3A 6041   7.747  13.645   8.421  0.0927 -0.1947 -0.1829
  378loPI   C4A 6042   7.936  13.589   8.017  0.1280  0.0207  0.1995
  378loPI   C5A 6043   7.896  13.625   7.575  0.0480  0.0882  0.2128
  378loPI   C6A 6044   7.676  14.056   7.512  0.0338 -0.0269 -0.2551
  378loPI   C1B 6045   7.556  12.585   8.814  0.1662  0.0120  0.1539
  378loPI   C2B 6046   7.330  12.856   8.598  0.0279  0.2443 -0.2235
  378loPI   C3B 6047   6.905  12.839   8.673 -0.2526  0.0088 -0.1353
  378loPI   C4B 6048   6.569  13.084   8.628  0.0360  0.1368  0.2456
  379loPI    C1 6049  17.195  17.230   9.611 -0.0738  0.1564 -0.1716
  379loPI    C2 6050  17.124  17.133   9.230 -0.1269 -0.0270 -0.1160
  379loPI    C3 6051  16.843  17.070   9.508 -0.0419 -0.0113 -0.0261
  379loPI   PO4 6052  17.393  17.390   9.562  0.3014 -0.2398 -0.0525
  379loPI   GL1 6053  17.501  17.481   9.087  0.1077 -0.2604 -0.0878
  379loPI   GL2 6054  17.255  17.374   8.699 -0.0515 -0.1577 -0.0527
  379loPI   C1A 6055  17.687  17.187   8.845  0.0160 -0.1742 -0.2655
  379loPI   C2A 6056  18.070  17.199   8.594 -0.2066  0.0704  0.1094
  379loPI   C3A 6057  18.303  17.264   8.213  0.0966  0.2415 -0.2258
  379loPI   C4A 6058  18.451  17.252   7.822  0.0983  0.0582 -0.1161
  379loPI   C5A 6059  18.631  17.051   7.444 -0.3196 -0.1429  0.0365
  379loPI   C6A 6060  18.463  17.130   6.959  0.2754 -0.0202  0.3660
  379loPI   C1B 6061  17.311  17.316   8.277 -0.4387  0.1090 -0.2776
  379loPI   C2B 6062  17.494  17.154   7.918  0.0145  0.2334 -0.1795
  379loPI   C3B 6063  17.771  16.919   7.705 -0.0557  0.1483 -0.1587
  379loPI   C4B 6064  17.924  16.616   7.403 -0.0878  0.1688 -0.0743
  380loPI    C1 6065   4.700  14.234   9.919 -0.0825  0.1643  0.0123
  380loPI    C2 6066   4.873  14.352  10.259  0.0936 -0.0095 -0.0153
  380loPI    C3 6067   4.503  14.199  10.265 -0.0483  0.3283  0.0489
  380loPI   PO4 6068   4.793  14.406   9.709  0.0679 -0.1708 -0.1406
  380loPI   GL1 6069   4.718  14.412   9.315 -0.0690  0.0302  0.1017
  380loPI   GL2 6070   4.431  14.408   9.284 -0.2018 -0.3261 -0.0405
  380loPI   C1A 6071   4.850  14.308   8.919  0.2288  0.0931 -0.2340
  380loPI   C2A 6072   4.674  14.301   8.558 -0.1586 -0.3421 -0.1163
  380loPI   C3A 6073   4.626  14.438   8.146 -0.2681 -0.1116  0.1327
  380loPI   C4A 6074   4.599  14.407   7.784  0.4109  0.2190 -0.1141
  380loPI   C5A 6075   4.672  14.648   7.366  0.0554 -0.0278 -0.1465
  380loPI   C6A 6076   4.560  14.675   7.008 -0.1404 -0.0493  0.3132
  380loPI   C1B 6077   4.348  14.485   8.871 -0.2614 -0.2959  0.1257
  380loPI   C2B 6078   4.357  14.725   8.556 -0.2056  0.2108 -0.0305
  380loPI   C3B 6079   4.439  14.869   8.138  0.3980  0.0421  0.1731
  380loPI   C4B 6080   4.338  15.009   7.805 -0.0550 -0.2154  0.0149
  381loPI    C1 6081  10.194   1.706   9.537  0.0051  0.0892  0.1559
  381loPI    C2 6082   9.860   1.788   9.741 -0.0239 -0.0965  0.1853
  381loPI    C3 6083  10.106   1.500   9.869 -0.0898 -0.2797 -0.0918
  381loPI   PO4 6084  10.133   1.956   9.277  0.1764 -0.5901 -0.0052
  381loPI   GL1 6085  10.096   1.869   8.864  0.0088  0.3231  0.0663
  381loPI   GL2 6086  10.261   2.047   8.805 -0.2126 -0.0628 -0.4359
  381loPI   C1A 6087   9.886   2.079   8.481 -0.3164  0.1639 -0.0882
  381loPI   C2A 6088   9.801   2.355   8.172  0.3736 -0.3449 -0.1712
  381loPI   C3A 6089   9.928   2.349   7.731  0.0588  0.0874 -0.2005
  381loPI   C4A 6090   9.736   2.073   7.354 -0.1327  0.1443 -0.0800
  381loPI   C5A 6091   9.434   1.911   7.115  0.3334 -0.0130 -0.0711
  381loPI   C6A 6092   9.185   1.578   7.016  0.1499 -0.2235 -0.0886
  381loPI   C1B 6093  10.376   2.416   8.411  0.0725  0.1813 -0.2408
  381loPI   C2B 6094  10.460   2.520   7.842  0.3417 -0.0351  0.1785
  381loPI   C3B 6095  10.751   2.489   7.476  0.0582 -0.0053  0.2348
  381loPI   C4B 6096  10.997   2.860   7.147 -0.1410  0.1634 -0.0302
  382loPI    C1 6097   4.666  16.079   9.467 -0.1632 -0.0157 -0.0799
  382loPI    C2 6098   4.484  16.427   9.544  0.2399  0.2022 -0.0804
  382loPI    C3 6099   4.615  16.199   9.845 -0.1337 -0.0162 -0.0757
  382loPI   PO4 6100   4.597  16.102   9.211  0.0845  0.0258 -0.1367
  382loPI   GL1 6101   4.380  15.910   8.932  0.0602 -0.0422  0.1387
  382loPI   GL2 6102   4.724  15.614   9.030  0.2195 -0.0212 -0.0343
  382loPI   C1A 6103   4.437  15.712   8.513 -0.4899 -0.0930  0.0972
  382loPI   C2A 6104   4.725  15.815   8.214 -0.0171  0.3014 -0.0682
  382loPI   C3A 6105   4.906  15.687   7.862 -0.2323  0.0811 -0.1999
  382loPI   C4A 6106   4.708  15.640   7.437  0.1444  0.3336 -0.3206
  382loPI   C5A 6107   4.472  15.173   7.326 -0.3909 -0.1934 -0.3904
  382loPI   C6A 6108   4.140  14.933   7.280 -0.1376  0.1038  0.0723
  382loPI   C1B 6109   4.902  15.339   8.680 -0.3252 -0.1196  0.0509
  382loPI   C2B 6110   4.774  15.316   8.316 -0.0263  0.3288 -0.1064
  382loPI   C3B 6111   4.828  15.137   7.987 -0.0984 -0.0565  0.0406
  382loPI   C4B 6112   4.966  14.811   7.865  0.3746 -0.0658  0.0053
  383loPI    C1 6113   4.420   4.834   9.387 -0.2036  0.0480  0.0160
  383loPI    C2 6114   4.641   5.128   9.545  0.0970 -0.1452 -0.0370
  383loPI    C3 6115   4.285   5.038   9.703  0.0391  0.1911  0.0301
  383loPI   PO4 6116   4.371   4.879   9.113 -0.2108  0.1322  0.0056
  383loPI   GL1 6117   4.260   4.749   8.695 -0.0156 -0.2859 -0.0587
  383loPI   GL2 6118   4.585   4.710   8.451  0.0645  0.1402 -0.1472
  383loPI   C1A 6119   4.062   4.949   8.267 -0.0537 -0.1267 -0.1577
  383loPI   C2A 6120   3.951   5.330   8.054 -0.1796  0.3423  0.2774
  383loPI   C3A 6121   3.512   5.453   8.010 -0.0750 -0.0653  0.3006
  383loPI   C4A 6122   3.182   5.543   7.846 -0.0584 -0.2749 -0.3539
  383loPI   C5A 6123   2.782   5.719   7.648 -0.0566  0.2913  0.0498
  383loPI   C6A 6124   2.254   5.773   7.790  0.1075 -0.0158  0.3331
  383loPI   C1B 6125   4.879   4.736   8.143 -0.0688  0.1004 -0.1076
  383loPI   C2B 6126   5.006   4.631   7.751 -0.0521 -0.0300  0.1909
  383loPI   C3B 6127   5.049   4.441   7.361 -0.0548 -0.0242 -0.2019
  383loPI   C4B 6128   5.213   4.372   6.973  0.0560 -0.1304 -0.2239
  384loPI    C1 6129   6.812   7.699   9.897  0.0785 -0.1063 -0.1449
  384loPI    C2 6130   6.900   7.860  10.253  0.3332  0.1672 -0.3267
  384loPI    C3 6131   6.857   7.463  10.217 -0.0129  0.1618  0.0697
  384loPI   PO4 6132   6.859   7.939   9.716 -0.1325 -0.1575 -0.0504
  384loPI   GL1 6133   6.960   7.943   9.160  0.0647 -0.2804  0.0734
  384loPI   GL2 6134   6.718   8.180   9.304  0.0256  0.1896 -0.1866
  384loPI   C1A 6135   7.165   8.297   8.959  0.1912 -0.0185 -0.1950
  384loPI   C2A 6136   7.368   8.624   8.993  0.2473  0.0415 -0.1133
  384loPI   C3A 6137   7.637   9.045   8.920 -0.2799 -0.0674 -0.0887
  384loPI   C4A 6138   7.615   9.492   8.848  0.2253  0.0012 -0.3459
  384loPI   C5A 6139   7.720   9.495   8.432  0.0196  0.4836  0.0717
  384loPI   C6A 6140   7.702   9.226   7.999 -0.2476 -0.1505 -0.0198
  384loPI   C1B 6141   6.660   8.140   8.827  0.1624  0.1005  0.1148
  384loPI   C2B 6142   6.526   8.494   8.624 -0.2482 -0.0381 -0.0511
  384loPI   C3B 6143   6.467   8.601   8.254 -0.2515  0.0535 -0.3188
  384loPI   C4B 6144   6.513   8.762   7.830 -0.2211 -0.0564 -0.0257
  385loPI    C1 6145   4.360   4.187   8.891  0.0611  0.2248 -0.2950
  385loPI    C2 6146   4.074   4.441   9.007 -0.0817 -0.0488 -0.0300
  385loPI    C3 6147   4.383   4.365   9.249 -0.0427 -0.1312 -0.1053
  385loPI   PO4 6148   4.482   4.206   8.707 -0.2103 -0.0054 -0.2354
  385loPI   GL1 6149   4.484   4.218   8.272  0.2617 -0.0945  0.1724
  385loPI   GL2 6150   4.357   4.003   8.117  0.0196  0.1777 -0.0065
  385loPI   C1A 6151   4.284   4.539   8.004  0.2851 -0.1660  0.1677
  385loPI   C2A 6152   4.037   4.857   7.727 -0.2267 -0.1592  0.2315
  385loPI   C3A 6153   3.716   5.092   7.662  0.1550  0.2093  0.0780
  385loPI   C4A 6154   3.440   4.974   7.299 -0.3608 -0.2536  0.3158
  385loPI   C5A 6155   3.647   4.873   6.843 -0.2217 -0.2603 -0.0802
  385loPI   C6A 6156   3.868   4.917   6.421  0.0492 -0.0148  0.1886
  385loPI   C1B 6157   4.105   4.057   7.831  0.1370 -0.1157 -0.1024
  385loPI   C2B 6158   4.054   4.357   7.558 -0.0771 -0.3175 -0.3197
  385loPI   C3B 6159   3.975   4.733   7.238  0.2912  0.0123 -0.3114
  385loPI   C4B 6160   4.143   4.837   6.855  0.0610  0.0493  0.0894
  386loPI    C1 6161  18.583   5.887   9.355  0.1189  0.0915 -0.0194
  386loPI    C2 6162  18.549   6.148   9.656  0.1642  0.0951 -0.0173
  386loPI    C3 6163  18.911   6.039   9.526  0.1468 -0.0376  0.0432
  386loPI   PO4 6164  18.427   5.941   9.169 -0.0060  0.0368 -0.0660
  386loPI   GL1 6165  18.068   6.224   8.914 -0.0533 -0.0419 -0.0264
  386loPI   GL2 6166  18.057   6.547   8.916 -0.0816  0.0008  0.0772
  386loPI   C1A 6167  18.053   6.131   8.535 -0.1709  0.0141 -0.1454
  386loPI   C2A 6168  18.186   6.047   8.107 -0.0338  0.1754  0.0689
  386loPI   C3A 6169  18.439   5.868   7.774 -0.0033  0.0770  0.4135
  386loPI   C4A 6170  18.666   5.676   7.434  0.0862  0.0820  0.5405
  386loPI   C5A 6171  18.456   5.496   6.998 -0.0665  0.2520 -0.2096
  386loPI   C6A 6172  18.544   5.314   6.626 -0.0012  0.3024 -0.1267
  386loPI   C1B 6173  17.850   6.575   8.596 -0.3382  0.0196  0.3582
  386loPI   C2B 6174  17.904   6.507   8.172 -0.1955  0.0144 -0.1616
  386loPI   C3B 6175  18.051   6.431   7.812 -0.0072  0.1299  0.0158
  386loPI   C4B 6176  18.270   6.224   7.484 -0.0725  0.2274 -0.1987
  387loPI    C1 6177  11.439  13.285   9.799  0.1381 -0.2254 -0.0891
  387loPI    C2 6178  11.723  13.230   9.522  0.1075 -0.2299 -0.1196
  387loPI    C3 6179  11.818  13.223   9.910  0.1754 -0.0791 -0.1327
  387loPI   PO4 6180  11.240  13.159   9.541 -0.0396 -0.1774 -0.0516
  387loPI   GL1 6181  11.108  13.334   9.174  0.0512  0.0083 -0.3354
  387loPI   GL2 6182  11.404  13.442   9.145 -0.1555  0.0753 -0.0666
  387loPI   C1A 6183  11.109  13.258   8.705  0.0881 -0.0322 -0.0360
  387loPI   C2A 6184  10.920  13.160   8.238 -0.1901  0.2535 -0.2669
  387loPI   C3A 6185  11.279  13.211   7.901  0.4253  0.0462 -0.1651
  387loPI   C4A 6186  11.455  13.093   7.520  0.0639 -0.1327 -0.2017
  387loPI   C5A 6187  11.923  13.069   7.191 -0.1223  0.2250 -0.0879
  387loPI   C6A 6188  12.350  13.104   6.946 -0.1489 -0.1319  0.1673
  387loPI   C1B 6189  11.646  13.573   8.783  0.2104 -0.1657  0.1697
  387loPI   C2B 6190  11.735  13.686   8.397 -0.0321 -0.2434 -0.1820
  387loPI   C3B 6191  11.999  13.835   7.975  0.1915  0.2497  0.1523
  387loPI   C4B 6192  11.920  13.923   7.574 -0.3198  0.1572  0.2934
  388loPI    C1 6193  10.748   3.174   9.542 -0.2238 -0.1661 -0.0785
  388loPI    C2 6194  10.966   3.492   9.646 -0.3191 -0.0787 -0.1430
  388loPI    C3 6195  10.829   3.243   9.927 -0.1491 -0.1265 -0.1012
  388loPI   PO4 6196  10.848   3.137   9.318 -0.1908  0.0666 -0.0377
  388loPI   GL1 6197  10.961   3.055   8.858  0.2290 -0.0639 -0.1383
  388loPI   GL2 6198  10.791   3.336   8.821  0.0472 -0.0411 -0.1558
  388loPI   C1A 6199  11.073   2.718   8.752  0.1098 -0.0908 -0.0083
  388loPI   C2A 6200  10.935   2.513   8.323  0.0156 -0.1333 -0.0427
  388loPI   C3A 6201  10.911   2.357   7.966  0.0289  0.0144  0.0538
  388loPI   C4A 6202  11.119   1.977   7.708  0.2051  0.1178 -0.0338
  388loPI   C5A 6203  11.054   1.540   7.429 -0.1661 -0.0653 -0.3012
  388loPI   C6A 6204  10.901   1.229   7.110 -0.0547  0.0340 -0.0868
  388loPI   C1B 6205  10.726   3.553   8.392  0.2282 -0.3062  0.1579
  388loPI   C2B 6206  10.856   3.373   7.897 -0.2319 -0.2385 -0.1359
  388loPI   C3B 6207  11.216   3.255   7.501  0.2436 -0.1627  0.2254
  388loPI   C4B 6208  11.483   3.125   7.203 -0.2080 -0.0437  0.2306
  389loPI    C1 6209  19.879  16.990   9.330 -0.2281  0.1594 -0.2266
  389loPI    C2 6210  19.717  17.355   9.320 -0.1099  0.2212  0.0292
  389loPI    C3 6211  19.844  17.203   9.667 -0.1962 -0.0809 -0.0692
  389loPI   PO4 6212  19.626  16.821   9.182  0.3209 -0.1118  0.1562
  389loPI   GL1 6213  19.430  16.925   8.796 -0.3389  0.2772 -0.1367
  389loPI   GL2 6214  19.252  17.315   8.943  0.1560  0.0335  0.0954
  389loPI   C1A 6215  19.612  16.961   8.355 -0.0820 -0.0904 -0.0538
  389loPI   C2A 6216  19.794  16.788   8.000  0.1339 -0.1828  0.2154
  389loPI   C3A 6217  19.940  16.813   7.608  0.0111 -0.0106 -0.1584
  389loPI   C4A 6218  20.073  16.868   7.126 -0.0723  0.0159  0.0181
  389loPI   C5A 6219  20.444  16.614   6.812 -0.0966  0.1195 -0.1024
  389loPI   C6A 6220  20.564  16.866   6.439  0.0982 -0.1234  0.0548
  389loPI   C1B 6221  19.319  17.286   8.532  0.2163 -0.2303 -0.2590
  389loPI   C2B 6222  19.275  17.376   8.113 -0.2296 -0.3666 -0.0096
  389loPI   C3B 6223  19.338  17.593   7.652 -0.2323 -0.0293 -0.3165
  389loPI   C4B 6224  19.100  17.813   7.341 -0.0594  0.1840 -0.1235
  390loPI    C1 6225  10.335   2.896   9.558  0.1017  0.1066  0.1112
  390loPI    C2 6226  10.665   2.670   9.542  0.1342  0.1494  0.1728
  390loPI    C3 6227  10.502   2.762   9.896 -0.0595 -0.0387  0.1347
  390loPI   PO4 6228  10.376   2.975   9.194 -0.2325  0.0951  0.0091
  390loPI   GL1 6229  10.578   2.685   8.958 -0.0061 -0.3858  0.2916
  390loPI   GL2 6230  10.687   2.486   8.814 -0.1442 -0.0132  0.1709
  390loPI   C1A 6231  10.626   2.928   8.511 -0.0293  0.2409  0.4154
  390loPI   C2A 6232  10.550   2.923   8.082 -0.0801 -0.0736  0.0348
  390loPI   C3A 6233  10.713   3.011   7.565 -0.2824  0.0153 -0.0774
  390loPI   C4A 6234  10.696   3.336   7.326  0.0558  0.1469 -0.0957
  390loPI   C5A 6235  10.737   3.405   6.888  0.0033  0.2335  0.0775
  390loPI   C6A 6236  11.073   3.620   6.701 -0.1855  0.0416  0.1291
  390loPI   C1B 6237  10.750   2.045   8.557 -0.1914 -0.0644  0.0416
  390loPI   C2B 6238  10.799   1.889   8.111  0.0936 -0.1128  0.2319
  390loPI   C3B 6239  10.615   1.694   7.704  0.2460 -0.1224  0.1814
  390loPI   C4B 6240  10.245   1.666   7.443  0.1737  0.0308 -0.3503
  391loPI    C1 6241   1.588   4.913   9.902  0.0274 -0.2604  0.3837
  391loPI    C2 6242   1.986   4.885   9.863  0.0039  0.0344 -0.1723
  391loPI    C3 6243   1.828   5.073  10.179  0.3031 -0.0569  0.0360
  391loPI   PO4 6244   1.590   4.992   9.562 -0.0050 -0.1736  0.1948
  391loPI   GL1 6245   1.464   4.863   9.099 -0.3318 -0.1984 -0.0994
  391loPI   GL2 6246   1.706   5.101   9.015 -0.1817  0.0669 -0.4317
  391loPI   C1A 6247   1.263   4.918   8.796  0.0205 -0.0312  0.1214
  391loPI   C2A 6248   1.162   5.073   8.496 -0.0842  0.1677 -0.0284
  391loPI   C3A 6249   1.086   5.026   8.058  0.0558  0.1489  0.1393
  391loPI   C4A 6250   1.053   4.737   7.686 -0.2578  0.1902  0.3282
  391loPI   C5A 6251   0.752   4.648   7.423  0.1705  0.3533 -0.2518
  391loPI   C6A 6252   0.810   4.634   6.965  0.0856 -0.2954 -0.1440
  391loPI   C1B 6253   1.690   4.947   8.593 -0.1074  0.1837  0.0279
  391loPI   C2B 6254   1.722   5.070   8.167 -0.0129  0.2333 -0.0918
  391loPI   C3B 6255   1.564   5.068   7.800  0.3960  0.0270  0.2647
  391loPI   C4B 6256   1.726   5.104   7.414  0.1633  0.4085 -0.2455
  392loPI    C1 6257  13.883   1.627   9.282  0.0369  0.0432 -0.1441
  392loPI    C2 6258  13.866   2.023   9.337  0.2446  0.0335 -0.0006
  392loPI    C3 6259  14.209   1.827   9.400  0.1025 -0.1924  0.0820
  392loPI   PO4 6260  13.828   1.623   9.017  0.2080 -0.1807 -0.1045
  392loPI   GL1 6261  13.640   1.484   8.686 -0.0144  0.1419 -0.1574
  392loPI   GL2 6262  13.407   1.598   8.758 -0.1846  0.0925 -0.2963
  392loPI   C1A 6263  13.340   1.257   8.429 -0.1478 -0.1714 -0.3202
  392loPI   C2A 6264  13.089   1.050   8.030 -0.1290  0.0438  0.1622
  392loPI   C3A 6265  13.177   0.986   7.603 -0.0781 -0.0825  0.0573
  392loPI   C4A 6266  13.239   1.032   7.165 -0.2156 -0.3043  0.0789
  392loPI   C5A 6267  12.975   0.942   6.888  0.1928 -0.2767 -0.3099
  392loPI   C6A 6268  12.970   0.543   6.727 -0.1054  0.1118 -0.5668
  392loPI   C1B 6269  13.367   1.777   8.437  0.2625  0.1718  0.3618
  392loPI   C2B 6270  13.440   1.489   7.982  0.0481 -0.2636 -0.3750
  392loPI   C3B 6271  13.699   1.153   7.804  0.5740 -0.3123  0.0214
  392loPI   C4B 6272  13.609   0.868   7.477  0.0089  0.1570  0.0025
  393loPI    C1 6273  19.247  19.112   9.618 -0.1217 -0.0145 -0.0957
  393loPI    C2 6274  19.303  19.205  10.003 -0.1344  0.1444 -0.1314
  393loPI    C3 6275  19.230  19.494   9.736 -0.1142  0.0360 -0.2552
  393loPI   PO4 6276  19.057  18.985   9.543  0.1250 -0.1600 -0.1591
  393loPI   GL1 6277  18.956  19.080   9.101  0.0673 -0.1953 -0.0513
  393loPI   GL2 6278  19.360  19.047   9.087 -0.1178  0.2155 -0.0095
  393loPI   C1A 6279  18.532  19.060   8.919  0.0727 -0.0469  0.0101
  393loPI   C2A 6280  18.478  19.268   8.536  0.4019 -0.1503  0.4098
  393loPI   C3A 6281  18.427  19.338   8.062  0.0304 -0.2764 -0.1033
  393loPI   C4A 6282  18.547  19.656   7.718 -0.1025  0.0110  0.2787
  393loPI   C5A 6283  18.728  19.875   7.368  0.0316  0.1615 -0.0475
  393loPI   C6A 6284  19.057  19.783   6.967 -0.1522  0.0246  0.0560
  393loPI   C1B 6285  19.357  19.136   8.651 -0.2871  0.1437  0.0167
  393loPI   C2B 6286  19.263  19.087   8.139 -0.2034  0.3484  0.1824
  393loPI   C3B 6287  19.243  19.040   7.684 -0.4692 -0.0470 -0.3900
  393loPI   C4B 6288  19.032  18.967   7.313 -0.0156  0.0758 -0.0700
  394loPI    C1 6289   9.966  19.768   9.338  0.2728 -0.1378  0.0953
  394loPI    C2 6290   9.617  19.749   9.532  0.1848 -0.1326 -0.0603
  394loPI    C3 6291   9.895  19.468   9.592  0.1966 -0.0790  0.1438
  394loPI   PO4 6292   9.881  19.775   9.083  0.1612 -0.0992  0.0389
  394loPI   GL1 6293   9.748  19.492   8.679  0.3300 -0.3535  0.1959
  394loPI   GL2 6294   9.591  19.833   8.679 -0.0904  0.0188  0.0749
  394loPI   C1A 6295   9.992  19.469   8.382  0.0865  0.0224  0.3656
  394loPI   C2A 6296  10.521  19.588   8.283  0.0919  0.1285 -0.0219
  394loPI   C3A 6297  10.657  19.631   7.965  0.0599  0.0800 -0.2739
  394loPI   C4A 6298  11.031  19.688   7.674  0.0214  0.0198  0.0406
  394loPI   C5A 6299  11.425  19.669   7.378 -0.1818 -0.1175  0.2789
  394loPI   C6A 6300  11.589  19.556   6.988  0.4200  0.2907 -0.4088
  394loPI   C1B 6301   9.628  19.740   8.236 -0.0517  0.2390  0.0957
  394loPI   C2B 6302   9.547  19.680   7.850  0.1706  0.1857 -0.2195
  394loPI   C3B 6303   9.787  19.751   7.535  0.0089  0.0473  0.0924
  394loPI   C4B 6304  10.025  20.025   7.155 -0.1128  0.0843  0.2350
  395loPI    C1 6305   8.410   2.990   9.125 -0.2955 -0.1647 -0.0321
  395loPI    C2 6306   8.587   2.702   8.911 -0.1194 -0.0618 -0.0271
  395loPI    C3 6307   8.771   2.854   9.233 -0.1931  0.0839 -0.0527
  395loPI   PO4 6308   8.106   2.905   9.065  0.0833  0.1602  0.2288
  395loPI   GL1 6309   8.146   2.832   8.682  0.0929 -0.0271  0.1469
  395loPI   GL2 6310   7.880   3.076   8.672 -0.0094 -0.4119 -0.0410
  395loPI   C1A 6311   8.428   2.890   8.397 -0.3076 -0.0905 -0.3299
  395loPI   C2A 6312   8.500   2.833   8.015  0.1415  0.0074  0.0458
  395loPI   C3A 6313   8.474   2.771   7.582  0.0884  0.0950 -0.0898
  395loPI   C4A 6314   8.564   2.976   7.184  0.0592 -0.1914 -0.1424
  395loPI   C5A 6315   8.830   3.207   6.985 -0.0017  0.4823 -0.1270
  395loPI   C6A 6316   8.845   3.528   6.662  0.2098  0.0173  0.1300
  395loPI   C1B 6317   7.969   2.958   8.225  0.1776 -0.1524  0.0464
  395loPI   C2B 6318   8.026   2.838   7.806 -0.2569 -0.1464 -0.0367
  395loPI   C3B 6319   7.993   3.006   7.391  0.4027 -0.0189 -0.0904
  395loPI   C4B 6320   8.063   2.906   7.042  0.1882 -0.1086 -0.1736
  396loPI    C1 6321  18.838   3.792   9.645  0.1367  0.0529  0.1717
  396loPI    C2 6322  18.959   4.119   9.840 -0.2034  0.2903 -0.0066
  396loPI    C3 6323  18.610   3.947   9.934 -0.0842  0.0495  0.0019
  396loPI   PO4 6324  18.763   3.873   9.353  0.1173  0.0408  0.3464
  396loPI   GL1 6325  19.086   3.926   8.985  0.2518 -0.0349 -0.1851
  396loPI   GL2 6326  19.465   3.926   8.993 -0.1449 -0.0511 -0.1379
  396loPI   C1A 6327  19.214   3.529   8.933 -0.2202 -0.0585  0.0328
  396loPI   C2A 6328  19.288   3.259   8.528  0.0381  0.3166 -0.3029
  396loPI   C3A 6329  19.611   3.240   8.156  0.0650 -0.5268  0.1310
  396loPI   C4A 6330  19.861   3.421   7.824  0.4356  0.3197 -0.3769
  396loPI   C5A 6331  19.811   3.461   7.460  0.1516 -0.1293  0.0700
  396loPI   C6A 6332  19.709   3.524   7.003 -0.1952  0.1161 -0.2533
  396loPI   C1B 6333  19.645   3.756   8.661  0.3108 -0.3372 -0.0006
  396loPI   C2B 6334  19.814   3.724   8.228  0.0293 -0.0548 -0.0647
  396loPI   C3B 6335  20.173   3.763   8.073 -0.4116  0.0406 -0.1141
  396loPI   C4B 6336  20.420   3.771   7.656 -0.3495  0.2301 -0.0130
  397loPI    C1 6337  19.634   8.433   9.967  0.0966  0.1606  0.2742
  397loPI    C2 6338  19.784   8.099  10.127  0.0236 -0.0287 -0.0440
  397loPI    C3 6339  19.398   8.115  10.024  0.0598  0.1035 -0.1614
  397loPI   PO4 6340  19.812   8.442   9.726 -0.1891 -0.0642 -0.2265
  397loPI   GL1 6341  19.712   8.500   9.227 -0.2124  0.0971 -0.0116
  397loPI   GL2 6342  19.707   8.205   9.041 -0.0736  0.0188 -0.1063
  397loPI   C1A 6343  19.992   8.584   8.904  0.0223 -0.0410  0.1564
  397loPI   C2A 6344  20.037   8.489   8.454 -0.2661  0.1504 -0.1705
  397loPI   C3A 6345  20.083   8.518   8.020 -0.1127 -0.2933 -0.1809
  397loPI   C4A 6346  20.208   8.585   7.657  0.1002  0.0637  0.0296
  397loPI   C5A 6347  20.231   8.459   7.190  0.0403 -0.1106 -0.0285
  397loPI   C6A 6348  20.169   8.696   6.857  0.2234  0.1397  0.3439
  397loPI   C1B 6349  19.756   8.111   8.696 -0.0071  0.1604 -0.0722
  397loPI   C2B 6350  19.827   7.971   8.256  0.5170  0.1265  0.2161
  397loPI   C3B 6351  20.043   8.094   7.831 -0.0977  0.2671  0.1525
  397loPI   C4B 6352  20.278   8.030   7.450 -0.0227  0.0218 -0.0829
  398loPI    C1 6353  18.576   7.931   9.441  0.0713  0.2520  0.1005
  398loPI    C2 6354  18.613   7.788   9.813 -0.0916 -0.1399 -0.0291
  398loPI    C3 6355  18.930   7.946   9.627  0.0218 -0.0613  0.2271
  398loPI   PO4 6356  18.414   7.621   9.367  0.1513 -0.1078 -0.2873
  398loPI   GL1 6357  18.437   7.457   9.038  0.2144  0.2291 -0.4112
  398loPI   GL2 6358  18.665   7.317   8.866 -0.2105  0.1784  0.0133
  398loPI   C1A 6359  18.335   7.639   8.668 -0.1688  0.1498 -0.0874
  398loPI   C2A 6360  18.441   7.718   8.316  0.2356  0.4068 -0.1432
  398loPI   C3A 6361  18.403   7.963   7.872  0.0688  0.1648  0.2407
  398loPI   C4A 6362  18.708   7.965   7.510 -0.0531  0.2581 -0.2891
  398loPI   C5A 6363  19.063   7.849   7.427  0.0734 -0.0177 -0.1492
  398loPI   C6A 6364  19.322   8.113   7.124 -0.1821 -0.2463  0.0485
  398loPI   C1B 6365  18.538   7.253   8.324  0.0293  0.1069 -0.1397
  398loPI   C2B 6366  18.561   7.347   7.882 -0.1350 -0.0114 -0.0265
  398loPI   C3B 6367  18.670   7.420   7.486  0.1882 -0.0406 -0.1379
  398loPI   C4B 6368  18.809   7.534   7.088  0.0755  0.2292 -0.1236
  399loPI    C1 6369   2.348   2.515   9.270 -0.0494 -0.2740 -0.0567
  399loPI    C2 6370   2.045   2.587   9.522  0.0672  0.0250  0.0013
  399loPI    C3 6371   2.415   2.529   9.664  0.0437 -0.3185 -0.0708
  399loPI   PO4 6372   2.213   2.266   9.098 -0.3843 -0.0298 -0.1066
  399loPI   GL1 6373   1.982   2.271   8.693 -0.1260 -0.0973  0.1347
  399loPI   GL2 6374   1.817   2.009   8.788 -0.1774  0.1436  0.1669
  399loPI   C1A 6375   1.894   2.300   8.254  0.3004  0.2850 -0.1726
  399loPI   C2A 6376   1.706   2.602   7.898 -0.1391  0.1078  0.2483
  399loPI   C3A 6377   1.661   2.887   7.527  0.2493  0.1007 -0.0529
  399loPI   C4A 6378   1.887   2.934   7.176 -0.0084 -0.0811 -0.2264
  399loPI   C5A 6379   2.087   3.287   6.972 -0.2076 -0.3293 -0.2891
  399loPI   C6A 6380   2.426   3.490   6.731 -0.1743  0.0147 -0.0239
  399loPI   C1B 6381   1.783   1.824   8.308 -0.0630 -0.0886 -0.3622
  399loPI   C2B 6382   2.049   1.914   7.942 -0.0645 -0.1617 -0.2144
  399loPI   C3B 6383   2.277   2.134   7.573 -0.0268 -0.2139  0.0459
  399loPI   C4B 6384   2.467   2.074   7.113 -0.2677  0.0816  0.0425
  400loPI    C1 6385   0.788  13.427  10.317 -0.2430  0.0955 -0.1119
  400loPI    C2 6386   0.879  13.155  10.596 -0.0794 -0.0333 -0.2875
  400loPI    C3 6387   0.517  13.325  10.593 -0.0558  0.0302  0.0501
  400loPI   PO4 6388   0.772  13.249   9.969  0.1607 -0.1750  0.1645
  400loPI   GL1 6389   1.032  13.265   9.576 -0.0886  0.2193 -0.0013
  400loPI   GL2 6390   1.066  12.894   9.471 -0.0505  0.1618 -0.1991
  400loPI   C1A 6391   1.164  13.305   9.142 -0.0391  0.2151 -0.1301
  400loPI   C2A 6392   1.173  13.426   8.740 -0.0722 -0.0836  0.0175
  400loPI   C3A 6393   1.211  13.582   8.277  0.0516 -0.0073 -0.0692
  400loPI   C4A 6394   1.280  13.421   7.886  0.0383 -0.2304 -0.1738
  400loPI   C5A 6395   1.240  13.486   7.472 -0.0506  0.2182 -0.0643
  400loPI   C6A 6396   0.880  13.258   7.097  0.0627 -0.0943  0.4124
  400loPI   C1B 6397   1.102  12.668   9.063 -0.1552  0.0320 -0.1814
  400loPI   C2B 6398   1.056  12.264   8.782 -0.0726 -0.0355  0.1863
  400loPI   C3B 6399   0.891  12.341   8.315  0.0223 -0.1238 -0.0635
  400loPI   C4B 6400   0.768  12.712   8.145 -0.2675  0.4171  0.0134
  401loPI    C1 6401  17.530   6.328   9.379 -0.1512 -0.0407  0.1196
  401loPI    C2 6402  17.136   6.276   9.425 -0.1510  0.0556  0.2341
  401loPI    C3 6403  17.393   6.027   9.603 -0.1622 -0.2585 -0.1730
  401loPI   PO4 6404  17.565   6.313   9.132  0.0145 -0.0718  0.2259
  401loPI   GL1 6405  17.460   6.187   8.683  0.0026 -0.1277  0.0070
  401loPI   GL2 6406  17.432   5.792   8.686  0.2357  0.3788 -0.2810
  401loPI   C1A 6407  17.515   6.190   8.241 -0.0546  0.1075  0.0989
  401loPI   C2A 6408  17.466   6.067   7.872 -0.0049  0.1412  0.0063
  401loPI   C3A 6409  17.307   5.786   7.563  0.0479  0.3169  0.1071
  401loPI   C4A 6410  17.110   5.469   7.320 -0.2107 -0.3001 -0.3163
  401loPI   C5A 6411  17.124   5.213   6.968 -0.2078  0.0642 -0.0921
  401loPI   C6A 6412  17.213   4.743   6.931  0.0126  0.1420 -0.0399
  401loPI   C1B 6413  17.347   5.741   8.300  0.0758  0.0600  0.0198
  401loPI   C2B 6414  17.452   5.559   7.984 -0.2099 -0.1790 -0.3001
  401loPI   C3B 6415  17.328   5.170   7.792  0.3031 -0.0802  0.2289
  401loPI   C4B 6416  16.990   4.978   7.510  0.1828 -0.2054  0.3680
  402loPI    C1 6417  16.048   4.043   9.700 -0.0193  0.0873  0.0895
  402loPI    C2 6418  16.109   4.438   9.673  0.1595  0.0446 -0.1715
  402loPI    C3 6419  16.335   4.217   9.919 -0.1896  0.1554  0.2610
  402loPI   PO4 6420  16.042   3.983   9.371  0.0099 -0.1265 -0.1668
  402loPI   GL1 6421  16.288   3.879   9.004  0.1964  0.1093  0.1872
  402loPI   GL2 6422  16.372   3.625   9.110 -0.1289 -0.2020 -0.0333
  402loPI   C1A 6423  16.103   3.780   8.570  0.2794 -0.5003  0.1624
  402loPI   C2A 6424  16.105   3.659   7.993  0.1732 -0.0215 -0.2946
  402loPI   C3A 6425  16.030   3.719   7.566 -0.2118 -0.0535 -0.0540
  402loPI   C4A 6426  16.455   3.616   7.355  0.1549  0.2169  0.1482
  402loPI   C5A 6427  16.863   3.617   7.298 -0.1698 -0.0118 -0.1114
  402loPI   C6A 6428  17.233   3.713   7.130 -0.1221  0.0515 -0.1508
  402loPI   C1B 6429  16.364   3.330   8.742 -0.5270 -0.1969  0.1645
  402loPI   C2B 6430  16.467   3.389   8.379  0.1784 -0.0264 -0.1643
  402loPI   C3B 6431  16.930   3.352   8.247 -0.0572 -0.2818  0.0608
  402loPI   C4B 6432  17.090   2.851   8.241  0.2446 -0.0860  0.1919
  403loPI    C1 6433  12.035  18.599   9.542 -0.0410  0.0090  0.0156
  403loPI    C2 6434  11.649  18.693   9.591 -0.0347  0.0705 -0.0506
  403loPI    C3 6435  11.802  18.374   9.776 -0.1865 -0.1203 -0.2489
  403loPI   PO4 6436  12.118  18.857   9.530 -0.2020  0.0975  0.1212
  403loPI   GL1 6437  12.158  19.052   9.136 -0.0767  0.4947 -0.4080
  403loPI   GL2 6438  12.289  19.276   9.101 -0.1048  0.1673 -0.0431
  403loPI   C1A 6439  12.204  18.789   8.811  0.2398  0.1111  0.0794
  403loPI   C2A 6440  12.250  18.504   8.455 -0.0955  0.4857  0.0287
  403loPI   C3A 6441  12.027  18.068   8.304  0.0915 -0.3277  0.0018
  403loPI   C4A 6442  11.828  17.937   7.905 -0.1138 -0.1855  0.1061
  403loPI   C5A 6443  11.846  17.967   7.437 -0.2006  0.3920 -0.0393
  403loPI   C6A 6444  11.971  17.835   7.063 -0.2903  0.1380 -0.3495
  403loPI   C1B 6445  12.315  19.379   8.578 -0.0688 -0.2999  0.1840
  403loPI   C2B 6446  12.460  19.553   8.282  0.2021  0.2451 -0.3172
  403loPI   C3B 6447  12.573  19.815   8.040  0.1420 -0.0698 -0.2918
  403loPI   C4B 6448  12.379  19.774   7.548  0.1998 -0.0415  0.0936
  404loPI    C1 6449  14.202   9.027   9.344  0.0776  0.0485 -0.1365
  404loPI    C2 6450  14.300   9.399   9.453  0.1094  0.0717 -0.2439
  404loPI    C3 6451  14.351   9.096   9.709  0.1470  0.1314 -0.1804
  404loPI   PO4 6452  13.957   9.090   9.184 -0.0476  0.3355 -0.2669
  404loPI   GL1 6453  13.753   8.915   8.855  0.0568 -0.1991  0.0504
  404loPI   GL2 6454  13.773   9.036   8.647  0.1362  0.2068 -0.0466
  404loPI   C1A 6455  14.101   8.680   8.640 -0.0629 -0.2022  0.0038
  404loPI   C2A 6456  14.383   8.445   8.503 -0.1394 -0.4764  0.0248
  404loPI   C3A 6457  14.463   8.308   8.072 -0.1844  0.0762  0.2208
  404loPI   C4A 6458  14.647   8.298   7.699 -0.1425 -0.2952  0.0156
  404loPI   C5A 6459  14.799   8.396   7.317  0.1594 -0.2414  0.1545
  404loPI   C6A 6460  15.009   8.724   7.103 -0.1040  0.1265  0.2069
  404loPI   C1B 6461  13.913   8.997   8.301  0.0721 -0.0624 -0.1402
  404loPI   C2B 6462  13.935   8.976   7.767  0.3456 -0.0981  0.1672
  404loPI   C3B 6463  13.931   8.805   7.375  0.1065  0.2261 -0.3098
  404loPI   C4B 6464  13.955   9.037   6.903 -0.1577  0.1871  0.0983
  405loPI    C1 6465   5.723  12.577  10.054  0.1506 -0.1744 -0.0061
  405loPI    C2 6466   5.740  12.813  10.377 -0.0015 -0.0001 -0.1231
  405loPI    C3 6467   5.456  12.533  10.349  0.0100 -0.0133 -0.1077
  405loPI   PO4 6468   5.893  12.604   9.942  0.0479  0.2471 -0.0355
  405loPI   GL1 6469   5.952  12.570   9.516  0.2682 -0.1306  0.0960
  405loPI   GL2 6470   5.944  12.730   9.253  0.0494 -0.1191  0.1614
  405loPI   C1A 6471   6.207  12.340   9.231  0.1165  0.1764 -0.3463
  405loPI   C2A 6472   6.190  12.172   8.873  0.0294  0.0719 -0.1512
  405loPI   C3A 6473   6.129  12.199   8.437 -0.0825 -0.1280  0.0793
  405loPI   C4A 6474   6.029  11.999   8.053 -0.4782 -0.2743 -0.2274
  405loPI   C5A 6475   6.109  12.142   7.693 -0.1485  0.2143  0.1182
  405loPI   C6A 6476   6.185  12.261   7.246  0.3078 -0.2512  0.1451
  405loPI   C1B 6477   5.917  12.570   8.827  0.0742  0.0692 -0.0169
  405loPI   C2B 6478   5.663  12.297   8.468  0.0614  0.2746  0.0991
  405loPI   C3B 6479   5.521  12.155   8.156  0.2902 -0.1127  0.3947
  405loPI   C4B 6480   5.170  11.947   7.865 -0.1471  0.2152  0.0580
  406loPI    C1 6481  11.127  11.690  10.097 -0.0564  0.1611 -0.3546
  406loPI    C2 6482  11.518  11.648  10.172 -0.1095  0.0867 -0.1100
  406loPI    C3 6483  11.362  12.013  10.120 -0.0702  0.1431  0.1528
  406loPI   PO4 6484  11.085  11.489   9.900  0.1249 -0.0212 -0.1877
  406loPI   GL1 6485  11.282  11.385   9.489 -0.0109 -0.1032  0.2796
  406loPI   GL2 6486  11.348  11.147   9.151 -0.1003 -0.0939 -0.3817
  406loPI   C1A 6487  11.205  11.656   9.083 -0.2448  0.1187  0.0196
  406loPI   C2A 6488  11.168  11.762   8.733  0.1038 -0.1144 -0.0392
  406loPI   C3A 6489  11.342  11.743   8.316 -0.1467 -0.1233 -0.0264
  406loPI   C4A 6490  11.480  11.476   7.929 -0.1358  0.4507  0.1033
  406loPI   C5A 6491  11.726  11.377   7.578 -0.0639 -0.0143 -0.0368
  406loPI   C6A 6492  11.796  11.641   7.145  0.1122 -0.0088 -0.2229
  406loPI   C1B 6493  11.142  11.071   8.712 -0.2209 -0.0355 -0.1401
  406loPI   C2B 6494  10.981  11.396   8.371 -0.3103  0.3691  0.2367
  406loPI   C3B 6495  10.830  11.706   8.148 -0.2284 -0.1226  0.0509
  406loPI   C4B 6496  10.570  11.952   7.910  0.3322 -0.2296  0.1979
  407loPI    C1 6497   5.849   5.573   9.372  0.2122 -0.0271  0.0837
  407loPI    C2 6498   5.727   5.408   9.715 -0.0407  0.1752  0.0941
  407loPI    C3 6499   5.600   5.773   9.613 -0.0181  0.0914 -0.2454
  407loPI   PO4 6500   5.785   5.511   9.012 -0.1058  0.0457 -0.1001
  407loPI   GL1 6501   5.891   5.316   8.653 -0.1879  0.0405  0.1104
  407loPI   GL2 6502   5.597   5.165   8.785 -0.0536 -0.1658  0.1346
  407loPI   C1A 6503   5.945   5.406   8.244  0.0995  0.0899  0.1056
  407loPI   C2A 6504   5.680   5.435   7.847  0.2315 -0.0740 -0.1785
  407loPI   C3A 6505   5.428   5.674   7.516 -0.0053  0.2082  0.1333
  407loPI   C4A 6506   5.280   6.055   7.520 -0.0718 -0.1905  0.2319
  407loPI   C5A 6507   5.399   6.458   7.287  0.1314  0.2173 -0.0962
  407loPI   C6A 6508   5.134   6.689   7.334  0.0375  0.2013 -0.3141
  407loPI   C1B 6509   5.479   5.113   8.355 -0.2898  0.2505  0.0414
  407loPI   C2B 6510   5.292   5.057   7.985  0.0520  0.0199 -0.3551
  407loPI   C3B 6511   4.862   5.142   7.881 -0.0449  0.0716 -0.1950
  407loPI   C4B 6512   4.568   4.854   7.765  0.1107 -0.0980  0.4072
  408loPI    C1 6513  15.600  11.461   8.861  0.0657 -0.3299 -0.2405
  408loPI    C2 6514  15.308  11.293   9.075 -0.2388  0.2982 -0.1375
  408loPI    C3 6515  15.582  11.522   9.256 -0.0577  0.2313 -0.3231
  408loPI   PO4 6516  15.605  11.249   8.667  0.4231  0.0595 -0.0208
  408loPI   GL1 6517  15.838  10.896   8.628 -0.0018 -0.0903  0.0562
  408loPI   GL2 6518  16.264  10.888   8.646  0.1475  0.1106  0.1603
  408loPI   C1A 6519  16.081  10.458   8.675  0.0950 -0.1834  0.1526
  408loPI   C2A 6520  16.458  10.439   8.383 -0.1421 -0.3646 -0.3699
  408loPI   C3A 6521  16.563  10.545   7.931  0.0172 -0.1416  0.2844
  408loPI   C4A 6522  16.726  10.593   7.468  0.0458  0.2282  0.0178
  408loPI   C5A 6523  17.054  10.612   7.048  0.0336  0.0099 -0.0506
  408loPI   C6A 6524  17.496  10.877   7.119 -0.2021 -0.2135  0.3661
  408loPI   C1B 6525  16.188  10.794   8.224  0.1423 -0.0654  0.1376
  408loPI   C2B 6526  16.067  10.639   7.793 -0.1960  0.3501  0.4322
  408loPI   C3B 6527  16.214  10.731   7.305 -0.0084 -0.0218  0.2222
  408loPI   C4B 6528  16.452  10.831   7.070 -0.2165 -0.1529 -0.1057
  409loPI    C1 6529  19.445   7.194   9.936 -0.1058 -0.2543 -0.0668
  409loPI    C2 6530  19.820   7.097  10.034 -0.0026  0.0853 -0.1115
  409loPI    C3 6531  19.534   7.100  10.314  0.0395 -0.1103 -0.0644
  409loPI   PO4 6532  19.530   7.173   9.609 -0.1535  0.1949  0.1866
  409loPI   GL1 6533  19.443   7.292   9.097  0.0497  0.0119 -0.2189
  409loPI   GL2 6534  19.728   7.059   9.160  0.3032 -0.2256  0.1914
  409loPI   C1A 6535  19.412   7.224   8.693  0.0491 -0.2724 -0.1806
  409loPI   C2A 6536  19.276   7.356   8.310  0.1596  0.1295  0.1416
  409loPI   C3A 6537  19.436   7.727   8.066 -0.0186  0.6842 -0.1887
  409loPI   C4A 6538  19.595   7.926   7.727  0.1818  0.0403  0.0176
  409loPI   C5A 6539  19.663   8.147   7.508 -0.1220 -0.0792  0.2117
  409loPI   C6A 6540  19.838   8.043   7.231  0.2519 -0.2777  0.2406
  409loPI   C1B 6541  19.938   7.034   8.739 -0.0178 -0.1659  0.0679
  409loPI   C2B 6542  19.942   6.843   8.382  0.2950  0.2108  0.0229
  409loPI   C3B 6543  19.764   7.041   8.003 -0.1448 -0.2144  0.1223
  409loPI   C4B 6544  19.755   7.127   7.523  0.0153  0.1773 -0.4646
  410loPI    C1 6545   4.729   3.113   9.711 -0.0783 -0.0390 -0.1384
  410loPI    C2 6546   4.708   2.918  10.060  0.1621 -0.1232 -0.1690
  410loPI    C3 6547   4.890   3.274  10.041  0.0212 -0.0512 -0.1807
  410loPI   PO4 6548   4.750   2.927   9.533 -0.1392 -0.1915 -0.0393
  410loPI   GL1 6549   4.921   2.814   9.183 -0.0326  0.0032  0.0631
  410loPI   GL2 6550   5.126   2.566   9.427  0.0370 -0.3329 -0.1874
  410loPI   C1A 6551   4.897   2.806   8.765  0.0481 -0.1288 -0.1704
  410loPI   C2A 6552   4.879   2.814   8.372 -0.0821 -0.0928 -0.2970
  410loPI   C3A 6553   5.010   2.990   7.928 -0.1165  0.0741 -0.1165
  410loPI   C4A 6554   4.881   3.388   7.633  0.0334 -0.0150  0.2503
  410loPI   C5A 6555   4.610   3.727   7.267 -0.0957  0.0251  0.1499
  410loPI   C6A 6556   4.443   3.804   6.841  0.1464  0.2345 -0.0962
  410loPI   C1B 6557   5.221   2.397   8.997 -0.0205  0.0818  0.3070
  410loPI   C2B 6558   5.431   2.076   8.578 -0.0481  0.2606  0.1014
  410loPI   C3B 6559   5.756   1.826   8.530 -0.2461  0.0037  0.2740
  410loPI   C4B 6560   5.878   1.763   8.169  0.0269 -0.0040 -0.0113
  411loPI    C1 6561   5.798  17.816   9.896 -0.4066 -0.0453 -0.0313
  411loPI    C2 6562   5.846  18.213   9.901  0.1677 -0.1044 -0.1361
  411loPI    C3 6563   5.830  18.009  10.245  0.1547 -0.0204 -0.0866
  411loPI   PO4 6564   5.876  17.723   9.675 -0.0175  0.0769 -0.1406
  411loPI   GL1 6565   6.088  18.063   9.364  0.0080  0.1144  0.4361
  411loPI   GL2 6566   5.846  17.969   9.168  0.1611  0.0508 -0.0071
  411loPI   C1A 6567   6.331  18.163   8.900  0.0720 -0.0743 -0.1356
  411loPI   C2A 6568   6.286  18.315   8.532  0.1914  0.0466  0.1504
  411loPI   C3A 6569   6.425  18.367   8.106 -0.1067 -0.0414  0.3209
  411loPI   C4A 6570   6.311  18.489   7.684 -0.0089 -0.2877  0.0324
  411loPI   C5A 6571   6.095  18.308   7.399 -0.0743  0.5123 -0.0889
  411loPI   C6A 6572   6.210  18.226   6.928 -0.2413 -0.0454 -0.2158
  411loPI   C1B 6573   5.827  17.781   8.825 -0.0287  0.4070 -0.3335
  411loPI   C2B 6574   6.108  17.838   8.534 -0.2426  0.0963  0.3514
  411loPI   C3B 6575   6.116  17.961   8.146 -0.2698 -0.0446  0.0237
  411loPI   C4B 6576   6.277  17.983   7.767 -0.1715  0.0777 -0.0072
  412loPI    C1 6577  15.143   8.818   9.379  0.1968 -0.0967 -0.0169
  412loPI    C2 6578  15.430   8.734   9.645  0.0706 -0.0203  0.1458
  412loPI    C3 6579  15.085   8.531   9.652  0.1857 -0.2356 -0.1638
  412loPI   PO4 6580  15.189   8.740   9.148  0.2256  0.3513 -0.1794
  412loPI   GL1 6581  15.426   8.709   8.799  0.1847 -0.0821  0.0269
  412loPI   GL2 6582  15.410   8.422   8.753 -0.1599 -0.1556 -0.2552
  412loPI   C1A 6583  15.433   8.983   8.440  0.2446 -0.1681 -0.0749
  412loPI   C2A 6584  15.382   9.030   7.960 -0.0941 -0.1137 -0.4498
  412loPI   C3A 6585  15.501   9.072   7.497 -0.1425 -0.1786 -0.0596
  412loPI   C4A 6586  15.585   8.740   7.118 -0.1271 -0.1480 -0.1100
  412loPI   C5A 6587  15.403   8.399   6.850 -0.2481  0.2147 -0.4872
  412loPI   C6A 6588  15.400   8.289   6.449  0.3884  0.1108 -0.2504
  412loPI   C1B 6589  15.510   8.431   8.385  0.1564 -0.1921 -0.0952
  412loPI   C2B 6590  15.641   8.268   8.015 -0.3707 -0.2004 -0.0961
  412loPI   C3B 6591  15.876   8.333   7.608  0.1514  0.3174 -0.0140
  412loPI   C4B 6592  15.766   8.132   7.293  0.2325  0.6749  0.0468
  413loPI    C1 6593  13.296  17.383   9.520 -0.1172  0.2470 -0.0799
  413loPI    C2 6594  13.547  17.467   9.819 -0.0234  0.0148 -0.0909
  413loPI    C3 6595  13.158  17.554   9.854  0.0086  0.1064  0.0454
  413loPI   PO4 6596  13.491  17.308   9.310 -0.2694  0.0390  0.0984
  413loPI   GL1 6597  13.386  17.128   8.963  0.2175  0.2709 -0.2264
  413loPI   GL2 6598  13.288  17.181   8.702 -0.3608  0.3026 -0.1606
  413loPI   C1A 6599  13.742  16.863   8.660  0.0292  0.0875  0.0290
  413loPI   C2A 6600  13.866  16.650   8.290  0.0858 -0.0391 -0.2826
  413loPI   C3A 6601  13.966  16.298   8.140  0.0010  0.2190  0.0424
  413loPI   C4A 6602  13.801  16.343   7.628  0.1477 -0.0428  0.2553
  413loPI   C5A 6603  13.511  16.563   7.275  0.0831 -0.0076 -0.3261
  413loPI   C6A 6604  13.172  16.723   6.963 -0.4293 -0.2014 -0.1558
  413loPI   C1B 6605  13.218  17.325   8.154  0.4677 -0.0590  0.4269
  413loPI   C2B 6606  13.183  17.406   7.742 -0.0166  0.2109 -0.0780
  413loPI   C3B 6607  13.135  17.788   7.566  0.3498 -0.1039 -0.0535
  413loPI   C4B 6608  12.933  17.717   7.221 -0.2324  0.1708  0.0378
  414loPI    C1 6609   8.681  12.700  10.054  0.1369  0.2599 -0.0265
  414loPI    C2 6610   8.942  12.805  10.338  0.1888  0.0360  0.0107
  414loPI    C3 6611   8.807  12.429  10.320 -0.0856  0.1352 -0.0455
  414loPI   PO4 6612   8.784  12.761   9.840  0.0143 -0.0939  0.3882
  414loPI   GL1 6613   8.770  12.834   9.455  0.1798  0.1344 -0.3450
  414loPI   GL2 6614   8.558  12.612   9.201 -0.2467  0.2038  0.0485
  414loPI   C1A 6615   8.959  13.052   9.140  0.3024  0.0957  0.0513
  414loPI   C2A 6616   9.024  13.059   8.760  0.0764 -0.1869  0.2784
  414loPI   C3A 6617   9.150  12.964   8.303 -0.2183  0.3253  0.1901
  414loPI   C4A 6618   9.002  12.786   8.012  0.0933  0.2508  0.0966
  414loPI   C5A 6619   8.870  12.694   7.595 -0.3518  0.0820  0.2338
  414loPI   C6A 6620   8.912  12.577   7.212  0.0968  0.1534 -0.0159
  414loPI   C1B 6621   8.425  12.451   8.800  0.3002 -0.3195 -0.1713
  414loPI   C2B 6622   8.509  12.309   8.485  0.0840  0.1246 -0.0900
  414loPI   C3B 6623   8.297  12.501   8.132 -0.1655 -0.0549 -0.1000
  414loPI   C4B 6624   8.368  12.573   7.703  0.0619  0.0428  0.3599
  415loPI    C1 6625  17.076  18.232   8.995 -0.0147 -0.3744  0.2326
  415loPI    C2 6626  17.000  18.200   9.386 -0.2546 -0.1656  0.2049
  415loPI    C3 6627  16.723  18.091   9.119 -0.1373 -0.1937  0.0941
  415loPI   PO4 6628  17.302  18.138   9.009 -0.1111 -0.0607 -0.3476
  415loPI   GL1 6629  17.406  17.822   8.685  0.2125 -0.2495  0.3587
  415loPI   GL2 6630  17.728  17.687   8.678  0.0280 -0.0779 -0.2176
  415loPI   C1A 6631  17.380  17.897   8.229 -0.1355 -0.0042 -0.1817
  415loPI   C2A 6632  17.303  17.774   7.852  0.1496  0.1099  0.0191
  415loPI   C3A 6633  17.227  17.805   7.370  0.2993 -0.2515  0.0184
  415loPI   C4A 6634  16.944  17.921   7.075 -0.4553  0.1995 -0.0611
  415loPI   C5A 6635  16.544  17.740   6.811 -0.3184 -0.0967  0.0908
  415loPI   C6A 6636  16.182  17.802   6.753 -0.0653 -0.4053 -0.2280
  415loPI   C1B 6637  17.796  17.474   8.302 -0.0079 -0.1913  0.1074
  415loPI   C2B 6638  17.926  17.405   7.772 -0.2194 -0.0003  0.0357
  415loPI   C3B 6639  17.820  17.440   7.347  0.4181  0.1818 -0.0420
  415loPI   C4B 6640  18.061  17.547   6.978  0.0694  0.1954  0.2008
  416loPI    C1 6641   6.345   0.871   9.701  0.0584 -0.1240 -0.1792
  416loPI    C2 6642   6.555   0.734  10.013 -0.0714  0.0119 -0.0304
  416loPI    C3 6643   6.630   1.098   9.866  0.1137 -0.1224 -0.2760
  416loPI   PO4 6644   6.318   0.695   9.533 -0.2976 -0.4823 -0.3787
  416loPI   GL1 6645   6.196   0.622   9.168 -0.0926  0.1421  0.1694
  416loPI   GL2 6646   5.985   0.932   9.111  0.0902 -0.0226  0.2926
  416loPI   C1A 6647   6.169   0.640   8.708 -0.2286  0.0119  0.1215
  416loPI   C2A 6648   6.355   0.456   8.292 -0.0790  0.2424 -0.0430
  416loPI   C3A 6649   6.312   0.428   7.895 -0.0669 -0.2485  0.1478
  416loPI   C4A 6650   6.292   0.273   7.467 -0.0504  0.4880  0.0095
  416loPI   C5A 6651   6.143  -0.168   7.374  0.2408 -0.1387 -0.2194
  416loPI   C6A 6652   6.032  -0.270   7.046  0.0689 -0.1954 -0.3831
  416loPI   C1B 6653   5.752   0.912   8.761  0.1347  0.2838 -0.3199
  416loPI   C2B 6654   5.889   0.753   8.331  0.1383 -0.0387 -0.0953
  416loPI   C3B 6655   6.026   0.853   7.933  0.4724 -0.1474  0.2078
  416loPI   C4B 6656   5.797   1.006   7.614 -0.0581 -0.0467 -0.0169
  417loPI    C1 6657   7.386  10.491   9.657  0.1466 -0.2821 -0.0066
  417loPI    C2 6658   7.715  10.581   9.866  0.0447 -0.0473  0.0563
  417loPI    C3 6659   7.411  10.393  10.044 -0.0915  0.2609  0.1571
  417loPI   PO4 6660   7.332  10.798   9.391  0.0957  0.3829 -0.0235
  417loPI   GL1 6661   7.132  10.895   9.021 -0.1875  0.3588 -0.0024
  417loPI   GL2 6662   6.879  11.215   8.912 -0.3336 -0.1644 -0.0317
  417loPI   C1A 6663   7.037  10.603   8.729  0.3375  0.2998 -0.0186
  417loPI   C2A 6664   7.133  10.287   8.507 -0.0452  0.3216 -0.0620
  417loPI   C3A 6665   7.285  10.215   8.053 -0.1266  0.1326 -0.4057
  417loPI   C4A 6666   7.139  10.498   7.719  0.2223  0.1612 -0.1277
  417loPI   C5A 6667   7.311  10.850   7.443 -0.2660 -0.0708 -0.0312
  417loPI   C6A 6668   7.489  11.100   7.189  0.0913 -0.0788 -0.0126
  417loPI   C1B 6669   6.884  11.478   8.510 -0.0614 -0.1474 -0.0171
  417loPI   C2B 6670   6.889  11.577   8.078 -0.4000  0.2332  0.4325
  417loPI   C3B 6671   6.748  11.543   7.608  0.0573  0.2243 -0.0702
  417loPI   C4B 6672   6.947  12.033   7.359 -0.3903  0.1864 -0.4483
  418loPI    C1 6673   2.701   4.411   9.863  0.0210 -0.2109 -0.1922
  418loPI    C2 6674   2.786   4.133  10.138  0.1132  0.0449  0.0427
  418loPI    C3 6675   2.878   4.516  10.205  0.0942  0.1187 -0.3277
  418loPI   PO4 6676   2.753   4.541   9.583 -0.0092  0.2359  0.0509
  418loPI   GL1 6677   2.601   4.301   9.268  0.1291 -0.0165 -0.0449
  418loPI   GL2 6678   2.317   4.144   9.075 -0.2108 -0.1311 -0.0423
  418loPI   C1A 6679   2.669   4.380   8.861 -0.2236 -0.0404  0.2036
  418loPI   C2A 6680   2.449   4.651   8.604 -0.2363  0.0507  0.3705
  418loPI   C3A 6681   2.478   4.671   8.145 -0.1687 -0.1271  0.0593
  418loPI   C4A 6682   2.501   4.588   7.750  0.2863 -0.0264  0.2264
  418loPI   C5A 6683   2.364   4.501   7.452  0.2911 -0.0042  0.0622
  418loPI   C6A 6684   2.060   4.300   7.512  0.1710 -0.0489 -0.3581
  418loPI   C1B 6685   2.350   4.053   8.650 -0.0916  0.0977 -0.2847
  418loPI   C2B 6686   2.352   3.731   8.267  0.1644  0.0838  0.1859
  418loPI   C3B 6687   2.207   3.371   8.255  0.0437 -0.0126  0.1005
  418loPI   C4B 6688   2.079   3.176   8.566  0.3508 -0.3836  0.1875
  419loPI    C1 6689   3.175  13.908   9.935  0.1224 -0.1448  0.0999
  419loPI    C2 6690   3.197  13.600  10.190  0.1598 -0.1546  0.0849
  419loPI    C3 6691   3.048  13.951  10.312  0.2128 -0.1481  0.1311
  419loPI   PO4 6692   3.183  13.728   9.710  0.0668  0.2462 -0.1999
  419loPI   GL1 6693   3.256  13.836   9.290  0.2801  0.0244  0.1295
  419loPI   GL2 6694   3.117  13.455   9.281 -0.3194  0.2716  0.3739
  419loPI   C1A 6695   3.311  13.724   8.813  0.0613 -0.5222 -0.0850
  419loPI   C2A 6696   3.323  13.532   8.305 -0.1654 -0.0937  0.0256
  419loPI   C3A 6697   3.495  13.465   7.805  0.3604  0.1702  0.3055
  419loPI   C4A 6698   3.936  13.632   7.573  0.0769 -0.0584  0.0265
  419loPI   C5A 6699   3.979  13.921   7.223  0.1838 -0.2226  0.2089
  419loPI   C6A 6700   4.106  13.868   6.784 -0.1442 -0.1534 -0.1983
  419loPI   C1B 6701   2.746  13.306   9.082 -0.0360 -0.0240  0.2550
  419loPI   C2B 6702   2.720  13.011   8.750 -0.1636  0.2112  0.0030
  419loPI   C3B 6703   2.664  12.727   8.247  0.0623 -0.1189  0.1802
  419loPI   C4B 6704   2.668  12.537   7.855  0.2575 -0.0913 -0.2195
  420loPI    C1 6705  13.767   1.148   9.160  0.0392  0.2878  0.0238
  420loPI    C2 6706  13.590   1.189   9.516  0.0249  0.0418  0.0464
  420loPI    C3 6707  13.438   1.374   9.196 -0.1756 -0.0302  0.0982
  420loPI   PO4 6708  13.888   0.923   9.200  0.1098  0.2828 -0.1081
  420loPI   GL1 6709  13.702   0.396   9.111  0.2849  0.1299 -0.1712
  420loPI   GL2 6710  13.720   0.605   8.843  0.0583 -0.1006 -0.0904
  420loPI   C1A 6711  13.418   0.195   8.934  0.1364  0.3780  0.0201
  420loPI   C2A 6712  13.162   0.145   8.575 -0.0809  0.4095  0.1266
  420loPI   C3A 6713  13.017  -0.005   8.156 -0.4147 -0.0241  0.3054
  420loPI   C4A 6714  13.061  -0.066   7.747  0.3136  0.1501 -0.0447
  420loPI   C5A 6715  13.051   0.161   7.328  0.4171  0.0192  0.0708
  420loPI   C6A 6716  13.063   0.164   7.005  0.1413 -0.1126  0.1528
  420loPI   C1B 6717  13.678   0.989   8.594  0.1893  0.3882  0.0443
  420loPI   C2B 6718  13.588   0.887   8.198 -0.3952  0.0284  0.0543
  420loPI   C3B 6719  13.496   0.584   7.810  0.0902  0.3599 -0.4257
  420loPI   C4B 6720  13.400   0.446   7.395 -0.0300  0.0366 -0.0695
  421loPI    C1 6721  12.310   4.574   9.802 -0.0125  0.0171 -0.1239
  421loPI    C2 6722  12.635   4.807   9.812 -0.0784  0.1141 -0.2148
  421loPI    C3 6723  12.671   4.411   9.857  0.0354  0.1401 -0.0706
  421loPI   PO4 6724  12.103   4.629   9.593 -0.1396  0.0228  0.1290
  421loPI   GL1 6725  11.842   4.477   9.424  0.1044 -0.0561  0.1791
  421loPI   GL2 6726  11.709   4.610   9.202  0.1241 -0.1663 -0.1501
  421loPI   C1A 6727  11.889   4.216   8.932  0.1710 -0.2439  0.0502
  421loPI   C2A 6728  11.798   4.356   8.544  0.1782 -0.0287  0.1055
  421loPI   C3A 6729  11.924   4.261   8.044  0.2617  0.0662 -0.1695
  421loPI   C4A 6730  11.933   3.994   7.615 -0.1390 -0.0349 -0.2684
  421loPI   C5A 6731  11.909   3.769   7.216 -0.1181 -0.1554  0.0527
  421loPI   C6A 6732  12.039   3.460   6.860  0.3835  0.1177  0.1447
  421loPI   C1B 6733  11.422   4.484   8.901  0.0184 -0.0180 -0.5357
  421loPI   C2B 6734  11.291   4.394   8.523  0.2052  0.1331 -0.1250
  421loPI   C3B 6735  11.352   4.374   8.147  0.0297 -0.2201 -0.1633
  421loPI   C4B 6736  11.049   4.310   7.844  0.2142  0.1701  0.1193
  422loPI    C1 6737  19.009   2.820   9.421  0.2548  0.1749  0.1187
  422loPI    C2 6738  18.705   2.718   9.660  0.1094  0.0240 -0.1268
  422loPI    C3 6739  18.984   2.974   9.790  0.0130 -0.0265  0.1890
  422loPI   PO4 6740  19.091   2.633   9.352 -0.0765  0.0484  0.2614
  422loPI   GL1 6741  19.176   2.204   9.130  0.4086 -0.1512  0.1358
  422loPI   GL2 6742  19.114   2.502   8.909  0.3467  0.0783 -0.0569
  422loPI   C1A 6743  19.239   1.929   8.879 -0.4392  0.1217 -0.0325
  422loPI   C2A 6744  19.384   1.991   8.509  0.0547 -0.0397  0.3129
  422loPI   C3A 6745  19.502   1.838   8.098 -0.2019  0.0886 -0.0771
  422loPI   C4A 6746  19.544   1.902   7.647 -0.0732  0.1472 -0.1256
  422loPI   C5A 6747  19.419   1.873   7.201  0.0657 -0.2293 -0.1937
  422loPI   C6A 6748  19.486   1.811   6.773 -0.1205  0.1590  0.1371
  422loPI   C1B 6749  19.139   2.596   8.604 -0.0923 -0.0445  0.1425
  422loPI   C2B 6750  19.233   2.391   8.222  0.2797  0.0516  0.0522
  422loPI   C3B 6751  19.270   2.349   7.745 -0.0346  0.0657 -0.0100
  422loPI   C4B 6752  19.192   2.700   7.552 -0.0233 -0.1023 -0.2502
  423loPI    C1 6753  16.840   5.042   9.252 -0.3027  0.0473 -0.1870
  423loPI    C2 6754  16.646   5.392   9.265 -0.1072  0.1495  0.0853
  423loPI    C3 6755  16.673   5.166   9.594 -0.2063 -0.1099 -0.0818
  423loPI   PO4 6756  16.822   4.999   9.061  0.1055  0.0337 -0.4007
  423loPI   GL1 6757  16.862   5.189   8.751  0.1941 -0.1420 -0.0151
  423loPI   GL2 6758  17.154   5.253   8.590 -0.1198 -0.2783 -0.0365
  423loPI   C1A 6759  16.810   5.319   8.220 -0.1503  0.2066  0.0698
  423loPI   C2A 6760  16.671   5.274   7.743  0.0715 -0.0794 -0.1136
  423loPI   C3A 6761  16.659   5.213   7.188 -0.1225  0.0701  0.1782
  423loPI   C4A 6762  16.668   5.111   6.741  0.3096  0.2778 -0.3756
  423loPI   C5A 6763  16.739   4.807   6.522  0.2598 -0.0852  0.3295
  423loPI   C6A 6764  16.690   4.863   6.186 -0.0678 -0.1030 -0.2100
  423loPI   C1B 6765  17.099   4.896   8.303 -0.1511  0.2071  0.0643
  423loPI   C2B 6766  17.314   4.460   8.412  0.0270  0.4333 -0.3292
  423loPI   C3B 6767  17.609   4.347   8.163  0.0546 -0.3022  0.1293
  423loPI   C4B 6768  17.690   3.970   7.948  0.2165  0.5205  0.1720
  424loPI    C1 6769   6.540  19.626   9.328 -0.0557 -0.1100 -0.1557
  424loPI    C2 6770   6.681  19.756   9.679  0.0114 -0.0516 -0.2040
  424loPI    C3 6771   6.653  19.363   9.608 -0.1479 -0.0650 -0.0753
  424loPI   PO4 6772   6.592  19.708   9.175  0.0516 -0.2239 -0.1767
  424loPI   GL1 6773   6.777  19.538   8.782  0.1969  0.4713 -0.0607
  424loPI   GL2 6774   6.995  19.325   8.716 -0.2725  0.0792 -0.0006
  424loPI   C1A 6775   6.753  19.562   8.316 -0.1588 -0.0408  0.2442
  424loPI   C2A 6776   6.859  19.353   8.011 -0.0832  0.3145  0.2529
  424loPI   C3A 6777   6.826  19.190   7.610  0.0905  0.0235  0.1129
  424loPI   C4A 6778   6.701  18.914   7.203 -0.0754 -0.2574  0.1091
  424loPI   C5A 6779   6.914  18.745   6.899 -0.2003 -0.2269 -0.4716
  424loPI   C6A 6780   6.627  18.478   6.650  0.0554 -0.2443  0.2714
  424loPI   C1B 6781   7.079  18.998   8.359  0.2688  0.1550 -0.4745
  424loPI   C2B 6782   6.921  18.825   7.951 -0.1718 -0.1598 -0.4250
  424loPI   C3B 6783   6.884  18.503   7.481  0.3236  0.1491 -0.0920
  424loPI   C4B 6784   6.589  18.408   7.166 -0.0249 -0.2248  0.2643
  425loPI    C1 6785   2.915  11.725   9.575 -0.1102 -0.1375  0.0829
  425loPI    C2 6786   2.765  11.968   9.856  0.0581 -0.0696  0.1150
  425loPI    C3 6787   3.100  11.760   9.928  0.1515  0.0153 -0.0663
  425loPI   PO4 6788   2.684  11.589   9.490 -0.1157  0.0633  0.1113
  425loPI   GL1 6789   2.449  11.471   9.088  0.0800 -0.2751  0.2072
  425loPI   GL2 6790   2.303  11.776   9.073 -0.1589  0.0284  0.2779
  425loPI   C1A 6791   2.110  11.390   8.791  0.0235 -0.2367 -0.0333
  425loPI   C2A 6792   1.969  11.583   8.505 -0.1928  0.0987 -0.0544
  425loPI   C3A 6793   1.805  11.502   8.003 -0.0149 -0.1350 -0.1790
  425loPI   C4A 6794   1.879  11.516   7.571 -0.5133  0.1428  0.0387
  425loPI   C5A 6795   1.880  11.424   7.166  0.1961 -0.1818  0.1426
  425loPI   C6A 6796   1.827  11.631   6.711 -0.0876  0.5424 -0.1491
  425loPI   C1B 6797   2.461  11.668   8.575  0.0967  0.0474  0.2582
  425loPI   C2B 6798   2.275  11.638   8.081 -0.3451 -0.0648 -0.3246
  425loPI   C3B 6799   2.270  11.877   7.767  0.1511 -0.1815  0.0602
  425loPI   C4B 6800   2.499  12.079   7.560 -0.1310  0.0649 -0.0551
  426loPI    C1 6801  10.499  11.029   9.844 -0.0009  0.0052  0.0217
  426loPI    C2 6802  10.624  11.327  10.080  0.0827  0.0605 -0.0912
  426loPI    C3 6803  10.305  11.109  10.185  0.2225 -0.0285  0.1585
  426loPI   PO4 6804  10.601  11.119   9.591 -0.1324 -0.0920  0.3773
  426loPI   GL1 6805  10.479  11.134   9.248  0.2860 -0.2260  0.3656
  426loPI   GL2 6806  10.841  11.278   9.202  0.0125 -0.0132  0.1145
  426loPI   C1A 6807  10.260  11.057   8.784  0.3502 -0.1079  0.0007
  426loPI   C2A 6808  10.235  11.042   8.246  0.1229 -0.4930 -0.1259
  426loPI   C3A 6809  10.408  10.840   7.881  0.0050 -0.1044  0.1720
  426loPI   C4A 6810  10.380  11.005   7.471 -0.1667 -0.1058  0.1919
  426loPI   C5A 6811  10.590  11.366   7.140  0.1651  0.3587  0.2879
  426loPI   C6A 6812  10.837  11.765   7.293  0.0915  0.1087  0.3637
  426loPI   C1B 6813  10.713  11.326   8.816 -0.3251 -0.2333 -0.1057
  426loPI   C2B 6814  10.509  11.415   8.403 -0.3134 -0.3014  0.1179
  426loPI   C3B 6815  10.351  11.483   8.003 -0.0340  0.1165  0.1447
  426loPI   C4B 6816  10.535  11.521   7.689 -0.2464 -0.1103  0.2600
  427loPI    C1 6817   5.435  19.112  10.053  0.2384 -0.0112 -0.2146
  427loPI    C2 6818   5.389  19.502   9.979  0.0730  0.0076 -0.0232
  427loPI    C3 6819   5.123  19.309  10.207  0.0976 -0.2406 -0.2006
  427loPI   PO4 6820   5.365  19.001   9.865 -0.0764  0.0562  0.2220
  427loPI   GL1 6821   5.400  18.892   9.435 -0.0158 -0.0411 -0.1127
  427loPI   GL2 6822   5.182  18.958   9.195 -0.0494  0.1760 -0.0596
  427loPI   C1A 6823   5.496  19.324   9.296  0.1418 -0.1068  0.0922
  427loPI   C2A 6824   5.300  19.446   8.924 -0.0335  0.0738  0.1153
  427loPI   C3A 6825   5.069  19.519   8.603  0.1959 -0.0890 -0.1251
  427loPI   C4A 6826   4.930  19.487   8.167  0.2040 -0.0045  0.1007
  427loPI   C5A 6827   4.805  19.602   7.796  0.2830  0.2112 -0.0531
  427loPI   C6A 6828   4.788  19.658   7.329 -0.2824  0.2218 -0.0204
  427loPI   C1B 6829   5.011  18.983   8.777  0.0669 -0.0103 -0.0687
  427loPI   C2B 6830   5.011  18.972   8.288 -0.1974 -0.0914 -0.1244
  427loPI   C3B 6831   4.919  19.097   7.798  0.0306  0.0441  0.3500
  427loPI   C4B 6832   4.920  19.103   7.335  0.1418  0.2202  0.0263
  428loPI    C1 6833  18.001   6.005   9.376  0.0098  0.0985 -0.2466
  428loPI    C2 6834  17.869   5.830   9.711  0.1998  0.1360 -0.1506
  428loPI    C3 6835  17.926   6.226   9.701  0.1340  0.1435 -0.2477
  428loPI   PO4 6836  17.839   5.836   9.139  0.3779  0.0504  0.5130
  428loPI   GL1 6837  17.929   5.691   8.777  0.0167  0.2537 -0.1109
  428loPI   GL2 6838  18.206   5.512   8.898  0.1852  0.0066 -0.1024
  428loPI   C1A 6839  17.838   5.757   8.350 -0.1124 -0.0986 -0.3717
  428loPI   C2A 6840  17.982   5.602   7.876 -0.3621 -0.3160  0.0089
  428loPI   C3A 6841  17.655   5.453   7.462  0.0838  0.2163  0.3922
  428loPI   C4A 6842  17.609   5.730   7.088  0.1780 -0.3300 -0.3400
  428loPI   C5A 6843  17.868   6.012   7.039  0.0427  0.0842 -0.1410
  428loPI   C6A 6844  17.981   6.464   7.140  0.1158  0.2176 -0.1859
  428loPI   C1B 6845  18.326   5.726   8.539  0.0999  0.1105  0.4008
  428loPI   C2B 6846  18.665   5.988   8.191 -0.3085 -0.0252 -0.2332
  428loPI   C3B 6847  18.985   6.129   7.925  0.1171 -0.2329  0.0512
  428loPI   C4B 6848  19.219   6.443   7.678  0.1177  0.1281 -0.4848
  429loPI    C1 6849  11.741   8.866   9.256  0.1619 -0.1747 -0.0014
  429loPI    C2 6850  11.797   9.260   9.295  0.0233 -0.1678  0.1407
  429loPI    C3 6851  12.009   9.005   9.518  0.1769 -0.1780 -0.0152
  429loPI   PO4 6852  11.665   8.882   8.978  0.1678 -0.2477  0.3322
  429loPI   GL1 6853  11.496   9.001   8.559  0.1724 -0.0398 -0.1019
  429loPI   GL2 6854  11.837   9.015   8.456 -0.2382 -0.3271 -0.2701
  429loPI   C1A 6855  11.601   8.868   8.076  0.1365 -0.1045  0.1508
  429loPI   C2A 6856  11.591   8.812   7.523  0.2441  0.0691 -0.1938
  429loPI   C3A 6857  11.515   8.935   7.129 -0.0369  0.2924  0.1335
  429loPI   C4A 6858  11.379   9.291   6.945  0.2158  0.2692 -0.3365
  429loPI   C5A 6859  11.343   9.674   6.757  0.1091  0.1227  0.2926
  429loPI   C6A 6860  10.975   9.784   6.504  0.0272 -0.0014  0.3060
  429loPI   C1B 6861  12.054   8.707   8.125  0.1083  0.1756  0.0931
  429loPI   C2B 6862  12.339   8.636   7.819 -0.1067  0.1599 -0.1456
  429loPI   C3B 6863  12.505   8.787   7.425  0.1419  0.1130 -0.1130
  429loPI   C4B 6864  12.468   9.031   7.202  0.0240  0.0977  0.0413
  430loPI    C1 6865  13.107   8.936   9.319 -0.0294  0.0268 -0.0036
  430loPI    C2 6866  13.294   8.687   9.069 -0.0374  0.1672 -0.1510
  430loPI    C3 6867  13.506   8.914   9.320 -0.0162  0.2174 -0.2139
  430loPI   PO4 6868  12.966   9.056   9.172 -0.1005 -0.4379  0.0772
  430loPI   GL1 6869  13.008   9.069   8.818  0.3218 -0.2189 -0.0418
  430loPI   GL2 6870  13.285   9.075   8.747 -0.0589 -0.1548  0.4557
  430loPI   C1A 6871  12.895   9.051   8.442  0.2943  0.1191  0.2260
  430loPI   C2A 6872  12.761   9.177   8.033  0.3165 -0.2795  0.2118
  430loPI   C3A 6873  12.759   9.252   7.642 -0.0282  0.0962 -0.2211
  430loPI   C4A 6874  12.607   9.620   7.393  0.0507  0.3277  0.0906
  430loPI   C5A 6875  12.460   9.567   7.073 -0.1412 -0.0010  0.1147
  430loPI   C6A 6876  12.304   9.522   6.732 -0.1006 -0.0848 -0.0740
  430loPI   C1B 6877  13.325   9.005   8.249  0.2496  0.0095  0.1955
  430loPI   C2B 6878  13.508   8.686   7.988  0.0778  0.0913  0.1089
  430loPI   C3B 6879  13.510   8.624   7.591  0.1676  0.0415 -0.0697
  430loPI   C4B 6880  13.388   8.561   7.122  0.1011  0.0826  0.2468
  431loPI    C1 6881   7.324   2.492   9.501  0.3599 -0.0192  0.1056
  431loPI    C2 6882   7.358   2.821   9.725  0.3754  0.0328  0.0274
  431loPI    C3 6883   7.481   2.468   9.868  0.0759  0.0065  0.2315
  431loPI   PO4 6884   7.346   2.544   9.257  0.3317 -0.0246  0.0540
  431loPI   GL1 6885   7.646   2.638   8.936  0.1620  0.1463  0.1210
  431loPI   GL2 6886   7.810   2.502   8.772 -0.2075 -0.1372  0.0794
  431loPI   C1A 6887   7.475   2.719   8.549  0.1322 -0.2441  0.1818
  431loPI   C2A 6888   7.587   2.637   8.142 -0.0493  0.1831 -0.1890
  431loPI   C3A 6889   7.621   2.699   7.647  0.0126 -0.0246  0.0867
  431loPI   C4A 6890   7.687   2.695   7.230  0.1380 -0.2844  0.1617
  431loPI   C5A 6891   7.470   2.802   6.902 -0.2005  0.1168 -0.0458
  431loPI   C6A 6892   7.452   2.751   6.530 -0.1534 -0.2293 -0.1026
  431loPI   C1B 6893   7.850   2.285   8.360  0.2794 -0.2695  0.0182
  431loPI   C2B 6894   7.802   2.244   7.913 -0.2392 -0.2148  0.0813
  431loPI   C3B 6895   7.747   2.232   7.553 -0.3419  0.0431 -0.1091
  431loPI   C4B 6896   7.738   2.030   7.184 -0.2272 -0.4439 -0.2454
  432loPI    C1 6897   4.414  17.046   9.437  0.1602 -0.0770  0.0579
  432loPI    C2 6898   4.021  17.038   9.512  0.1214 -0.1535 -0.1458
  432loPI    C3 6899   4.268  16.797   9.714  0.0763 -0.0394  0.0480
  432loPI   PO4 6900   4.466  17.044   9.170 -0.4819 -0.0347 -0.0395
  432loPI   GL1 6901   4.119  17.109   9.015 -0.0872 -0.2242  0.1271
  432loPI   GL2 6902   3.903  17.227   9.054 -0.1413  0.2070 -0.1078
  432loPI   C1A 6903   4.307  17.118   8.508  0.0115 -0.1505  0.0306
  432loPI   C2A 6904   4.440  17.134   8.146 -0.0951  0.0485  0.1227
  432loPI   C3A 6905   4.227  17.220   7.764 -0.2161 -0.2268 -0.1509
  432loPI   C4A 6906   4.299  16.986   7.234  0.2479 -0.0306  0.1081
  432loPI   C5A 6907   4.464  16.515   7.079 -0.0338 -0.1540 -0.2333
  432loPI   C6A 6908   4.412  16.050   6.801 -0.0750  0.0831 -0.1169
  432loPI   C1B 6909   3.809  17.106   8.625 -0.0200  0.0629  0.0720
  432loPI   C2B 6910   3.950  16.870   8.154 -0.0542 -0.0100  0.0999
  432loPI   C3B 6911   3.728  16.750   7.973  0.0660  0.1687 -0.1749
  432loPI   C4B 6912   3.524  16.619   7.499 -0.1059 -0.1450 -0.0902
  433loPI    C1 6913   2.896   2.872   9.241 -0.0076  0.1781 -0.0450
  433loPI    C2 6914   2.554   2.913   9.445  0.0250 -0.0315  0.0541
  433loPI    C3 6915   2.751   3.237   9.317 -0.2541  0.0888 -0.0782
  433loPI   PO4 6916   2.841   2.735   9.052  0.2906 -0.0739 -0.1594
  433loPI   GL1 6917   2.831   2.401   8.848 -0.1062  0.0351 -0.1327
  433loPI   GL2 6918   2.546   2.431   8.743 -0.3270  0.2963  0.1752
  433loPI   C1A 6919   3.029   2.477   8.471  0.1540 -0.1305  0.3643
  433loPI   C2A 6920   3.382   2.271   8.301 -0.0139 -0.2757  0.1342
  433loPI   C3A 6921   3.671   2.274   7.974 -0.1421  0.0112  0.4266
  433loPI   C4A 6922   3.972   2.116   7.957  0.0827  0.1085  0.0375
  433loPI   C5A 6923   4.143   1.762   7.790  0.3022 -0.0695  0.1874
  433loPI   C6A 6924   4.219   1.627   7.328  0.0312  0.1646 -0.0387
  433loPI   C1B 6925   2.474   2.506   8.372 -0.2116  0.1435  0.0541
  433loPI   C2B 6926   2.390   2.386   7.991  0.0308 -0.0649  0.0390
  433loPI   C3B 6927   2.085   2.623   7.605 -0.0340  0.1146  0.1359
  433loPI   C4B 6928   1.792   2.455   7.375  0.1962  0.1493 -0.3419
  434loPI    C1 6929   9.048   4.199   9.344 -0.0124 -0.1705 -0.0299
  434loPI    C2 6930   9.333   4.166   9.624  0.0958  0.0897 -0.1069
  434loPI    C3 6931   9.029   4.420   9.677 -0.1040 -0.1584 -0.0431
  434loPI   PO4 6932   8.977   3.848   9.279  0.0878 -0.0540  0.0700
  434loPI   GL1 6933   9.165   3.551   8.939 -0.2184  0.1406  0.1106
  434loPI   GL2 6934   9.291   3.342   8.799 -0.0463 -0.0997  0.1281
  434loPI   C1A 6935   9.287   3.770   8.518 -0.1354  0.0588 -0.0444
  434loPI   C2A 6936   9.406   3.823   8.142 -0.3305  0.3151 -0.0752
  434loPI   C3A 6937   9.589   4.095   7.867  0.0729  0.1412 -0.0291
  434loPI   C4A 6938   9.771   4.366   7.501  0.1625  0.1069 -0.1069
  434loPI   C5A 6939   9.613   4.445   7.137  0.4340 -0.1247 -0.0026
  434loPI   C6A 6940   9.488   4.449   6.758  0.0196  0.0034  0.3915
  434loPI   C1B 6941   9.298   3.292   8.342 -0.0900 -0.1780  0.1302
  434loPI   C2B 6942   9.270   3.322   7.877 -0.0265  0.1699 -0.3206
  434loPI   C3B 6943   9.431   3.658   7.652 -0.1315  0.1406 -0.0053
  434loPI   C4B 6944   9.324   3.954   7.356  0.0559  0.1712 -0.3986
  435loPI    C1 6945  11.606  14.846   9.550 -0.0835  0.1641  0.0828
  435loPI    C2 6946  11.829  14.565   9.729 -0.0184  0.1424 -0.0317
  435loPI    C3 6947  11.434  14.577   9.792 -0.0564 -0.1187 -0.2058
  435loPI   PO4 6948  11.682  14.705   9.301 -0.1909  0.0965  0.0119
  435loPI   GL1 6949  11.639  14.528   8.934 -0.4625 -0.1379  0.0015
  435loPI   GL2 6950  11.917  14.542   8.725  0.2456 -0.0290 -0.0457
  435loPI   C1A 6951  11.311  14.558   8.543  0.2084  0.2207 -0.2462
  435loPI   C2A 6952  11.299  14.583   8.087 -0.0964  0.0953 -0.2092
  435loPI   C3A 6953  11.466  14.696   7.683  0.0224 -0.1156  0.0726
  435loPI   C4A 6954  11.481  14.984   7.295 -0.3348  0.3380  0.0914
  435loPI   C5A 6955  11.751  15.026   6.893  0.1419 -0.1737 -0.0406
  435loPI   C6A 6956  11.969  15.413   6.740 -0.0482  0.0844  0.2232
  435loPI   C1B 6957  11.829  14.590   8.355 -0.0844 -0.0617 -0.3042
  435loPI   C2B 6958  11.868  14.825   7.988  0.0133  0.3225  0.2254
  435loPI   C3B 6959  12.007  14.852   7.505  0.0028  0.2986  0.0738
  435loPI   C4B 6960  11.968  14.602   7.020  0.1508 -0.0362 -0.1493
  436loPI    C1 6961   0.270   3.793   9.457 -0.1344  0.0328  0.1218
  436loPI    C2 6962  -0.050   3.725   9.226 -0.0672 -0.0465  0.0518
  436loPI    C3 6963  -0.066   4.004   9.512 -0.3396 -0.3370  0.3286
  436loPI   PO4 6964   0.466   3.799   9.254 -0.0997  0.0843  0.1420
  436loPI   GL1 6965   0.649   3.960   8.848 -0.2076 -0.0059  0.2662
  436loPI   GL2 6966   0.672   4.197   9.023 -0.2936 -0.0379  0.0965
  436loPI   C1A 6967   0.716   3.996   8.402  0.0702  0.2981 -0.2097
  436loPI   C2A 6968   0.617   4.257   8.068 -0.1010  0.1114  0.1636
  436loPI   C3A 6969   0.484   4.310   7.650  0.2553  0.0613 -0.3096
  436loPI   C4A 6970   0.299   4.600   7.507 -0.1478 -0.2289  0.1802
  436loPI   C5A 6971   0.078   4.749   7.127 -0.0079 -0.3049  0.1869
  436loPI   C6A 6972  -0.126   4.748   6.735 -0.1947 -0.0578  0.3271
  436loPI   C1B 6973   0.999   4.480   8.655  0.0208  0.0218  0.1863
  436loPI   C2B 6974   0.783   4.667   8.299  0.1596  0.0404 -0.2190
  436loPI   C3B 6975   0.556   4.815   7.881  0.1497 -0.0565  0.1827
  436loPI   C4B 6976   0.019   4.996   7.904 -0.2538  0.1636 -0.3453
  437loPI    C1 6977   9.727   4.803   9.315  0.0850  0.0401 -0.0379
  437loPI    C2 6978   9.414   4.555   9.319 -0.1301  0.3070 -0.0549
  437loPI    C3 6979   9.673   4.554   9.624 -0.1464  0.0851 -0.0402
  437loPI   PO4 6980   9.823   4.775   9.118 -0.4029  0.0733 -0.2387
  437loPI   GL1 6981   9.746   4.791   8.780  0.2600 -0.0993 -0.1354
  437loPI   GL2 6982   9.537   4.837   8.651 -0.0772  0.0390  0.0844
  437loPI   C1A 6983   9.977   4.759   8.409 -0.2747 -0.0273 -0.1221
  437loPI   C2A 6984  10.140   4.761   8.090 -0.0732  0.1755  0.1673
  437loPI   C3A 6985  10.067   4.693   7.665  0.1885  0.1508 -0.3575
  437loPI   C4A 6986  10.248   4.465   7.312  0.1309  0.2503  0.1459
  437loPI   C5A 6987  10.182   4.148   7.213  0.3042 -0.1681 -0.0034
  437loPI   C6A 6988  10.142   3.899   6.879 -0.4769 -0.0468  0.1769
  437loPI   C1B 6989   9.460   5.039   8.231  0.1704  0.3508 -0.0344
  437loPI   C2B 6990   9.479   5.249   7.810 -0.0398  0.1649  0.1118
  437loPI   C3B 6991   9.404   5.360   7.361  0.4422 -0.3105 -0.0835
  437loPI   C4B 6992   9.154   5.345   6.991  0.1762 -0.3072 -0.1586
  438loPI    C1 6993  10.598   0.941   9.610 -0.0044  0.0892 -0.2617
  438loPI    C2 6994  10.407   1.262   9.467  0.0261  0.2186 -0.0180
  438loPI    C3 6995  10.488   1.236   9.858  0.0776 -0.0593 -0.0454
  438loPI   PO4 6996  10.436   0.730   9.410 -0.0362 -0.2505  0.2631
  438loPI   GL1 6997  10.398   0.981   9.035  0.0602  0.1021 -0.0346
  438loPI   GL2 6998  10.685   1.178   9.036 -0.2075  0.0377 -0.0377
  438loPI   C1A 6999  10.100   0.942   8.780  0.0536  0.0912 -0.0437
  438loPI   C2A 7000   9.719   0.888   8.589 -0.0502 -0.0087  0.1328
  438loPI   C3A 7001   9.377   0.814   8.245 -0.1316 -0.1762  0.0156
  438loPI   C4A 7002   9.297   0.782   7.834 -0.1728  0.1119 -0.0329
  438loPI   C5A 7003   9.002   0.483   7.605  0.1971  0.1143 -0.2699
  438loPI   C6A 7004   8.817   0.128   7.256 -0.4039 -0.1775 -0.1708
  438loPI   C1B 7005  10.892   1.010   8.661  0.1206 -0.0117  0.1986
  438loPI   C2B 7006  11.050   1.086   8.231  0.1761 -0.2761  0.2365
  438loPI   C3B 7007  11.283   1.127   7.860  0.2245 -0.0537 -0.0264
  438loPI   C4B 7008  11.459   1.451   7.636 -0.1966 -0.2458 -0.0263
  439loPI    C1 7009   6.138   4.000   9.514  0.0035 -0.0253  0.0509
  439loPI    C2 7010   6.183   3.646   9.695 -0.3976 -0.0792  0.0558
  439loPI    C3 7011   6.164   3.981   9.912  0.0622 -0.0403  0.0464
  439loPI   PO4 7012   5.951   3.961   9.320 -0.1740 -0.0194  0.0894
  439loPI   GL1 7013   5.947   3.893   8.867 -0.1066 -0.1605  0.2431
  439loPI   GL2 7014   6.034   3.487   8.862 -0.0663 -0.0934  0.0517
  439loPI   C1A 7015   6.206   3.921   8.490 -0.1579  0.0735 -0.0370
  439loPI   C2A 7016   6.412   3.863   8.140 -0.2684  0.0955 -0.2346
  439loPI   C3A 7017   6.600   3.575   7.899  0.0585 -0.1076 -0.4601
  439loPI   C4A 7018   6.377   3.483   7.564  0.3746  0.1171  0.0306
  439loPI   C5A 7019   6.309   3.420   7.090 -0.1886 -0.2146  0.0943
  439loPI   C6A 7020   6.591   3.510   6.760  0.0037  0.0602 -0.1039
  439loPI   C1B 7021   5.869   3.563   8.461 -0.0880  0.1577  0.0280
  439loPI   C2B 7022   5.523   3.581   8.262 -0.1798 -0.0338  0.3110
  439loPI   C3B 7023   5.195   3.725   7.934 -0.2815  0.0928  0.1294
  439loPI   C4B 7024   5.157   3.974   7.522 -0.0532  0.2585 -0.1025
  440loPI    C1 7025  13.244  16.334   9.389  0.1682  0.0914  0.0858
  440loPI    C2 7026  13.212  15.935   9.392 -0.2085  0.1147 -0.1145
  440loPI    C3 7027  13.028  16.153   9.673  0.0372  0.1487  0.0236
  440loPI   PO4 7028  13.204  16.345   9.161 -0.0698  0.1860 -0.0189
  440loPI   GL1 7029  13.218  16.077   8.886  0.1942 -0.0555  0.0026
  440loPI   GL2 7030  13.379  15.772   8.959 -0.2021  0.1598  0.2646
  440loPI   C1A 7031  13.152  16.087   8.415 -0.1869 -0.0096  0.0860
  440loPI   C2A 7032  13.175  15.928   8.062  0.0107  0.4271  0.0750
  440loPI   C3A 7033  13.240  15.608   7.669 -0.0127 -0.0623  0.0507
  440loPI   C4A 7034  13.549  15.752   7.328 -0.0632 -0.4032  0.1408
  440loPI   C5A 7035  13.727  16.014   7.028  0.3254 -0.2145  0.1630
  440loPI   C6A 7036  13.946  16.436   7.138 -0.0614  0.3739  0.2935
  440loPI   C1B 7037  13.119  15.653   8.571 -0.2843  0.0047 -0.2325
  440loPI   C2B 7038  12.998  15.517   8.292 -0.0486  0.0289  0.1773
  440loPI   C3B 7039  13.122  15.226   7.909 -0.0884  0.3141 -0.2493
  440loPI   C4B 7040  13.291  15.171   7.446  0.0185  0.0416  0.0757
  441loPI    C1 7041   4.232  13.706   9.840 -0.0152 -0.0635 -0.1691
  441loPI    C2 7042   4.068  13.894  10.153 -0.0774 -0.1834 -0.1288
  441loPI    C3 7043   4.369  13.637  10.209  0.1304  0.0394 -0.2031
  441loPI   PO4 7044   4.370  13.825   9.579  0.1922  0.0735  0.0475
  441loPI   GL1 7045   4.238  13.660   9.272  0.1587 -0.1424  0.0981
  441loPI   GL2 7046   4.383  13.875   9.046 -0.0643  0.1225 -0.2974
  441loPI   C1A 7047   4.302  13.496   8.749  0.0420  0.0236  0.1926
  441loPI   C2A 7048   4.155  13.480   8.329  0.4227 -0.0984 -0.0677
  441loPI   C3A 7049   4.040  13.275   7.893 -0.1777  0.3001  0.0041
  441loPI   C4A 7050   3.902  13.169   7.463 -0.3942  0.1201 -0.0521
  441loPI   C5A 7051   3.940  12.978   7.125 -0.1824 -0.3920  0.2238
  441loPI   C6A 7052   4.141  13.002   6.738 -0.3775 -0.1235  0.1236
  441loPI   C1B 7053   4.227  14.008   8.664 -0.0110 -0.2579  0.1428
  441loPI   C2B 7054   4.242  14.260   8.368 -0.0352 -0.1505  0.1624
  441loPI   C3B 7055   4.114  14.589   7.988  0.1041  0.0301 -0.1753
  441loPI   C4B 7056   4.148  14.565   7.517 -0.2766 -0.0105  0.2892
  442loPI    C1 7057   1.255   7.983   9.724  0.0639 -0.1432 -0.1537
  442loPI    C2 7058   1.307   7.635   9.915  0.0562 -0.1517 -0.1669
  442loPI    C3 7059   0.938   7.759   9.822  0.0635 -0.1751 -0.2274
  442loPI   PO4 7060   1.452   8.003   9.582 -0.3431  0.0871  0.1009
  442loPI   GL1 7061   1.642   8.193   9.142 -0.0268 -0.0633  0.3174
  442loPI   GL2 7062   1.361   8.190   9.021  0.2989  0.2330 -0.3926
  442loPI   C1A 7063   1.769   8.083   8.651 -0.0205  0.2631  0.1215
  442loPI   C2A 7064   1.752   8.194   8.221 -0.0655  0.0187  0.0924
  442loPI   C3A 7065   1.623   8.058   7.816  0.0271 -0.2556 -0.1471
  442loPI   C4A 7066   1.811   8.341   7.479 -0.0175  0.0700 -0.0977
  442loPI   C5A 7067   1.939   8.739   7.145 -0.0826 -0.1404  0.0698
  442loPI   C6A 7068   1.955   9.057   7.247 -0.0495 -0.2461  0.0431
  442loPI   C1B 7069   1.254   8.292   8.672 -0.2680 -0.0813  0.0061
  442loPI   C2B 7070   1.219   8.447   8.241 -0.0228 -0.0536  0.0504
  442loPI   C3B 7071   1.138   8.433   7.871 -0.1201  0.3651  0.0197
  442loPI   C4B 7072   1.162   8.068   7.478  0.3038  0.3446  0.5504
  443loPI    C1 7073   4.948   4.827   9.284  0.1049  0.1488  0.1666
  443loPI    C2 7074   5.163   4.509   9.395  0.0240 -0.0357 -0.1902
  443loPI    C3 7075   4.791   4.557   9.535  0.0751 -0.0390 -0.0511
  443loPI   PO4 7076   5.162   4.964   9.100  0.0213  0.3476  0.0086
  443loPI   GL1 7077   5.052   5.077   8.736  0.0841  0.0657  0.1603
  443loPI   GL2 7078   5.089   4.865   8.544  0.1715  0.1953 -0.3084
  443loPI   C1A 7079   4.992   5.285   8.328 -0.2865  0.0313  0.2171
  443loPI   C2A 7080   5.290   5.575   8.141 -0.0692 -0.2150  0.2470
  443loPI   C3A 7081   5.293   5.966   8.000  0.1975  0.0217  0.5691
  443loPI   C4A 7082   5.410   6.409   7.796  0.2394  0.0364 -0.0482
  443loPI   C5A 7083   5.610   6.820   7.554  0.0839  0.0227 -0.1155
  443loPI   C6A 7084   5.628   6.884   7.150 -0.1135  0.0558 -0.1182
  443loPI   C1B 7085   5.326   4.574   8.229 -0.0964 -0.5620 -0.0411
  443loPI   C2B 7086   5.454   4.387   7.794 -0.1747  0.1062  0.1072
  443loPI   C3B 7087   5.615   4.346   7.282  0.2508 -0.3584  0.0850
  443loPI   C4B 7088   5.822   4.388   6.882 -0.3176 -0.1966 -0.0639
  444loPI    C1 7089  14.834  18.428   9.773  0.0970 -0.1767  0.0006
  444loPI    C2 7090  15.110  18.653   9.956 -0.1414  0.0736  0.0599
  444loPI    C3 7091  14.789  18.526  10.158 -0.2245  0.0440 -0.0890
  444loPI   PO4 7092  14.870  18.295   9.526  0.0318 -0.0797  0.1461
  444loPI   GL1 7093  15.062  18.456   9.124  0.2509 -0.0103 -0.5456
  444loPI   GL2 7094  14.709  18.328   9.009 -0.1211 -0.0815  0.0183
  444loPI   C1A 7095  15.055  18.334   8.670 -0.0101 -0.1987  0.0134
  444loPI   C2A 7096  15.368  18.276   8.285  0.2194  0.2864  0.0141
  444loPI   C3A 7097  15.046  18.401   7.910 -0.0723  0.4182 -0.1882
  444loPI   C4A 7098  15.075  18.316   7.493  0.1711 -0.1998  0.0148
  444loPI   C5A 7099  15.213  17.988   7.211  0.4383 -0.0785  0.2525
  444loPI   C6A 7100  15.471  17.612   7.218 -0.1695  0.0136  0.1224
  444loPI   C1B 7101  14.356  18.359   8.675 -0.3712  0.1303 -0.1731
  444loPI   C2B 7102  14.138  17.920   8.685  0.1048 -0.0400  0.2592
  444loPI   C3B 7103  14.200  17.606   8.364  0.1399 -0.0447 -0.2514
  444loPI   C4B 7104  14.121  17.704   8.018  0.0490 -0.0661 -0.1944
  445loPI    C1 7105   7.066   3.409   9.245  0.2101 -0.0503 -0.1252
  445loPI    C2 7106   7.035   3.033   9.379  0.1371  0.0573  0.1677
  445loPI    C3 7107   7.311   3.278   9.533  0.1546  0.1382  0.0093
  445loPI   PO4 7108   7.015   3.486   8.990  0.2006 -0.3190 -0.0511
  445loPI   GL1 7109   7.277   3.647   8.636 -0.2165  0.1172  0.2821
  445loPI   GL2 7110   7.640   3.526   8.577 -0.1157  0.1355  0.1373
  445loPI   C1A 7111   7.400   3.670   8.146 -0.0472 -0.3383 -0.1972
  445loPI   C2A 7112   7.454   3.829   7.766  0.1015  0.1829  0.4445
  445loPI   C3A 7113   7.340   4.131   7.473 -0.0569 -0.2699  0.2912
  445loPI   C4A 7114   7.540   4.190   7.002  0.0935  0.0263 -0.3183
  445loPI   C5A 7115   7.822   4.449   6.755 -0.2235 -0.1582  0.1341
  445loPI   C6A 7116   8.141   4.622   6.682  0.1576  0.3062  0.0872
  445loPI   C1B 7117   7.622   4.086   8.425 -0.4347  0.1893  0.0966
  445loPI   C2B 7118   7.480   4.204   8.099 -0.0041  0.0921  0.0683
  445loPI   C3B 7119   7.234   4.457   7.845  0.0283  0.2374  0.3840
  445loPI   C4B 7120   7.193   4.871   7.732 -0.0235  0.0761 -0.1370
  446loPI    C1 7121   6.240   8.139   9.517 -0.1018  0.0459 -0.1559
  446loPI    C2 7122   6.098   8.256   9.872 -0.2237  0.2598 -0.2731
  446loPI    C3 7123   6.343   7.941   9.848 -0.2261  0.2355 -0.0018
  446loPI   PO4 7124   5.971   8.151   9.318 -0.2616 -0.3234 -0.1341
  446loPI   GL1 7125   5.818   8.096   8.935  0.1586  0.2713  0.4654
  446loPI   GL2 7126   5.630   8.400   9.030 -0.1377  0.2041 -0.1991
  446loPI   C1A 7127   6.097   8.155   8.568 -0.1674  0.0177 -0.1727
  446loPI   C2A 7128   6.009   8.298   8.228 -0.2068  0.0404 -0.0864
  446loPI   C3A 7129   5.867   8.251   7.720 -0.0877 -0.0005 -0.1092
  446loPI   C4A 7130   6.107   8.187   7.269  0.0021 -0.2243  0.0316
  446loPI   C5A 7131   6.430   8.370   7.043  0.2800 -0.0442  0.0959
  446loPI   C6A 7132   6.796   8.574   6.842  0.1125 -0.2051 -0.0362
  446loPI   C1B 7133   5.625   8.509   8.574  0.1031 -0.0267 -0.0172
  446loPI   C2B 7134   5.573   8.594   8.080 -0.2725  0.1086 -0.0035
  446loPI   C3B 7135   5.533   8.523   7.585  0.0207 -0.3569  0.3072
  446loPI   C4B 7136   5.675   8.406   7.194 -0.2187  0.1945  0.0525
  447loPI    C1 7137   3.572   4.839   9.415  0.1825  0.0568  0.2425
  447loPI    C2 7138   3.885   5.088   9.431  0.4699 -0.2451 -0.3461
  447loPI    C3 7139   3.943   4.692   9.440  0.0760 -0.3041 -0.1581
  447loPI   PO4 7140   3.421   4.914   9.326 -0.0613  0.1499  0.0568
  447loPI   GL1 7141   3.365   4.992   8.947 -0.0068 -0.0369 -0.0898
  447loPI   GL2 7142   3.473   4.681   8.825 -0.0293  0.1716 -0.1369
  447loPI   C1A 7143   2.989   4.794   8.742  0.0268 -0.1967 -0.1012
  447loPI   C2A 7144   2.958   4.584   8.319 -0.0230 -0.0461 -0.2769
  447loPI   C3A 7145   3.015   4.280   7.933  0.2278  0.2436  0.0822
  447loPI   C4A 7146   2.585   4.083   7.655  0.3410  0.0552  0.0275
  447loPI   C5A 7147   2.309   3.826   7.741  0.0828 -0.1615  0.0302
  447loPI   C6A 7148   2.051   3.661   7.852  0.1460  0.3223 -0.1509
  447loPI   C1B 7149   3.267   4.352   8.608  0.1949  0.2212 -0.2010
  447loPI   C2B 7150   2.926   4.122   8.511 -0.4345  0.2440  0.0286
  447loPI   C3B 7151   2.610   4.158   8.289 -0.0057  0.0232 -0.0024
  447loPI   C4B 7152   2.280   4.206   8.050  0.0799  0.2394  0.2194
  448loPI    C1 7153  14.732  11.376   9.109  0.2331  0.0773  0.1424
  448loPI    C2 7154  14.949  11.521   9.413  0.1240  0.0066  0.2551
  448loPI    C3 7155  14.893  11.126   9.377  0.2534  0.0041  0.0621
  448loPI   PO4 7156  14.862  11.490   8.829  0.4039  0.0041  0.0045
  448loPI   GL1 7157  15.161  11.349   8.518  0.2950 -0.2810  0.1526
  448loPI   GL2 7158  15.113  11.612   8.383 -0.0239 -0.3074 -0.0658
  448loPI   C1A 7159  15.171  11.235   8.095 -0.1643  0.2065 -0.1672
  448loPI   C2A 7160  15.149  11.172   7.656  0.4497  0.1565  0.3640
  448loPI   C3A 7161  15.049  10.860   7.263 -0.0021  0.1889  0.2589
  448loPI   C4A 7162  15.151  10.599   6.940 -0.1700  0.1472  0.2423
  448loPI   C5A 7163  15.028  10.424   6.505 -0.0048  0.0963  0.0655
  448loPI   C6A 7164  15.234  10.148   6.235  0.1462  0.0091 -0.0614
  448loPI   C1B 7165  15.176  11.676   7.878  0.1776 -0.0459 -0.0768
  448loPI   C2B 7166  15.325  11.597   7.442  0.1837  0.1234 -0.2606
  448loPI   C3B 7167  15.392  11.258   7.188 -0.0273  0.0940 -0.0919
  448loPI   C4B 7168  15.591  11.397   6.738  0.3617  0.0704 -0.1792
  449loPI    C1 7169  17.340   6.760   9.210 -0.1002  0.2965 -0.2936
  449loPI    C2 7170  17.525   7.099   9.314  0.0693  0.0651  0.1909
  449loPI    C3 7171  17.737   6.765   9.258 -0.1488 -0.0850  0.2473
  449loPI   PO4 7172  17.115   6.703   9.107 -0.1705 -0.0793  0.1320
  449loPI   GL1 7173  16.960   7.002   8.879  0.1090 -0.1464 -0.0561
  449loPI   GL2 7174  17.360   6.993   8.770 -0.0596  0.0578  0.0578
  449loPI   C1A 7175  17.034   7.110   8.452 -0.1648 -0.3425 -0.2568
  449loPI   C2A 7176  16.913   7.169   7.999  0.0085 -0.2355 -0.2978
  449loPI   C3A 7177  16.728   7.426   7.602  0.2303  0.0791  0.1537
  449loPI   C4A 7178  16.734   7.723   7.356 -0.0319  0.0769 -0.0111
  449loPI   C5A 7179  16.932   7.975   7.025  0.1850 -0.1454 -0.0155
  449loPI   C6A 7180  17.261   8.199   6.768  0.1487 -0.0018 -0.0138
  449loPI   C1B 7181  17.391   6.774   8.429 -0.3400 -0.1534 -0.4169
  449loPI   C2B 7182  17.426   6.639   7.996 -0.0156 -0.2395  0.3049
  449loPI   C3B 7183  17.682   6.707   7.569 -0.2889  0.0250 -0.2075
  449loPI   C4B 7184  17.640   6.908   7.130  0.1197 -0.1892 -0.0245
  450loPI    C1 7185  16.307  15.028   9.562 -0.0381  0.1403  0.0219
  450loPI    C2 7186  16.193  14.744   9.820  0.4481 -0.0975 -0.0139
  450loPI    C3 7187  16.565  14.891   9.835  0.3527  0.1884 -0.3139
  450loPI   PO4 7188  16.181  14.870   9.327 -0.0073  0.3826  0.0903
  450loPI   GL1 7189  15.952  14.840   8.965  0.2156  0.2363  0.1553
  450loPI   GL2 7190  16.222  14.819   8.744  0.0397 -0.2376  0.2178
  450loPI   C1A 7191  15.700  14.836   8.564 -0.1594 -0.0366  0.0972
  450loPI   C2A 7192  15.654  14.508   8.310  0.1351 -0.0844 -0.2106
  450loPI   C3A 7193  15.845  14.237   8.076 -0.3337 -0.4427  0.0071
  450loPI   C4A 7194  15.864  13.919   7.663 -0.1999  0.0552  0.0327
  450loPI   C5A 7195  15.767  14.110   7.353  0.0138  0.5241 -0.0472
  450loPI   C6A 7196  15.735  14.320   6.952  0.2357 -0.2973 -0.1188
  450loPI   C1B 7197  16.115  14.740   8.298 -0.1062  0.1972 -0.3841
  450loPI   C2B 7198  15.950  14.767   7.960 -0.0866  0.5642 -0.1470
  450loPI   C3B 7199  16.066  14.869   7.706  0.0036  0.5789  0.0709
  450loPI   C4B 7200  16.171  14.617   7.335 -0.1699  0.1182 -0.0764
  451loPI    C1 7201  18.835  12.607   9.886 -0.0216 -0.1463  0.2636
  451loPI    C2 7202  19.088  12.359  10.073  0.1346 -0.1481  0.0531
  451loPI    C3 7203  19.052  12.738  10.196  0.0176 -0.2286  0.2712
  451loPI   PO4 7204  18.869  12.483   9.623 -0.3913  0.3928  0.1590
  451loPI   GL1 7205  18.800  12.553   9.240 -0.1865 -0.0119 -0.1067
  451loPI   GL2 7206  18.437  12.702   9.141  0.3520  0.0556  0.0079
  451loPI   C1A 7207  18.819  12.376   8.883 -0.0412  0.1464  0.2111
  451loPI   C2A 7208  18.909  12.480   8.521  0.1247 -0.2561 -0.2953
  451loPI   C3A 7209  18.654  12.498   8.111  0.0998  0.0065 -0.1327
  451loPI   C4A 7210  18.416  12.856   7.764  0.0091 -0.2144 -0.0243
  451loPI   C5A 7211  18.167  12.912   7.471  0.1955  0.0449 -0.2014
  451loPI   C6A 7212  17.923  13.219   7.327  0.0691  0.1911 -0.1871
  451loPI   C1B 7213  18.544  12.796   8.759  0.2293  0.3582  0.6095
  451loPI   C2B 7214  18.782  12.942   8.415  0.0916  0.0533  0.0384
  451loPI   C3B 7215  18.894  12.968   8.030  0.2040  0.0447  0.1288
  451loPI   C4B 7216  18.861  12.761   7.623  0.0297  0.0650  0.0242
  452loPI    C1 7217  10.158   5.152   9.247 -0.2922  0.1589 -0.0548
  452loPI    C2 7218  10.334   5.250   9.592 -0.1509 -0.0822 -0.0558
  452loPI    C3 7219   9.937   5.206   9.576 -0.2034  0.3385 -0.0236
  452loPI   PO4 7220  10.296   5.221   9.040  0.0575 -0.4931  0.1473
  452loPI   GL1 7221  10.102   5.159   8.635 -0.2005  0.2999 -0.1926
  452loPI   GL2 7222   9.901   5.259   8.485  0.1410 -0.2140 -0.2166
  452loPI   C1A 7223  10.422   5.095   8.301  0.1769  0.0447  0.0551
  452loPI   C2A 7224  10.460   5.378   7.947 -0.2326  0.1454 -0.1501
  452loPI   C3A 7225  10.623   5.512   7.607  0.1651 -0.1569  0.2312
  452loPI   C4A 7226  10.692   5.672   7.188  0.0733 -0.0838  0.2381
  452loPI   C5A 7227  10.816   5.552   6.736 -0.0479  0.2227  0.0181
  452loPI   C6A 7228  10.734   5.323   6.271  0.0462  0.2106 -0.1292
  452loPI   C1B 7229   9.980   5.252   8.041 -0.0537  0.0010 -0.2252
  452loPI   C2B 7230  10.036   5.263   7.596  0.0419  0.0662 -0.4449
  452loPI   C3B 7231  10.175   5.450   7.363 -0.0954 -0.2742 -0.2793
  452loPI   C4B 7232  10.362   5.296   6.984 -0.0879 -0.0118 -0.0275
  453loPI    C1 7233   8.401   8.427   9.358 -0.0940 -0.0390  0.0316
  453loPI    C2 7234   8.467   8.799   9.488  0.1650 -0.0801  0.0219
  453loPI    C3 7235   8.434   8.499   9.750 -0.3335 -0.0101  0.0481
  453loPI   PO4 7236   8.201   8.439   9.155  0.0737  0.0776  0.0942
  453loPI   GL1 7237   8.185   8.680   8.716  0.0537  0.0088  0.1035
  453loPI   GL2 7238   8.385   8.587   8.384  0.0389 -0.0562  0.1298
  453loPI   C1A 7239   7.760   8.664   8.596 -0.0943 -0.3601  0.1872
  453loPI   C2A 7240   7.363   8.388   8.409 -0.4169  0.3632 -0.0928
  453loPI   C3A 7241   7.309   8.356   7.946 -0.1208  0.2167 -0.0694
  453loPI   C4A 7242   7.217   8.113   7.629 -0.2122  0.2893 -0.0391
  453loPI   C5A 7243   7.259   7.827   7.328 -0.0370 -0.2418  0.0820
  453loPI   C6A 7244   6.828   7.543   7.150 -0.0619 -0.2469  0.0887
  453loPI   C1B 7245   8.392   8.557   7.889 -0.0874 -0.2323 -0.1183
  453loPI   C2B 7246   8.207   8.772   7.641  0.5026  0.2355  0.2612
  453loPI   C3B 7247   8.231   8.738   7.202  0.0811  0.2755 -0.0314
  453loPI   C4B 7248   8.348   8.776   6.760 -0.1188 -0.3325 -0.0006
  454loPI    C1 7249   3.820   7.634   9.818 -0.0535  0.0163  0.0821
  454loPI    C2 7250   3.923   8.004   9.929 -0.0678  0.1066 -0.2000
  454loPI    C3 7251   3.638   7.807  10.129 -0.1707  0.3085 -0.1449
  454loPI   PO4 7252   3.867   7.625   9.526 -0.3595  0.1291 -0.0431
  454loPI   GL1 7253   4.052   7.763   9.168  0.2500  0.3716 -0.1398
  454loPI   GL2 7254   3.899   7.516   9.002  0.0669  0.0435 -0.0531
  454loPI   C1A 7255   4.223   7.882   8.834 -0.2471 -0.4962  0.0223
  454loPI   C2A 7256   4.302   7.959   8.450 -0.2738  0.5231 -0.2868
  454loPI   C3A 7257   4.556   7.917   8.075  0.3921  0.0854 -0.1631
  454loPI   C4A 7258   4.502   8.238   7.666  0.3896  0.0676 -0.3755
  454loPI   C5A 7259   4.382   8.728   7.465 -0.2118 -0.0017 -0.4409
  454loPI   C6A 7260   4.209   8.923   7.187 -0.2629 -0.2540  0.0748
  454loPI   C1B 7261   3.919   7.649   8.567  0.0249 -0.0515 -0.0112
  454loPI   C2B 7262   4.050   7.699   8.146  0.1471 -0.3296 -0.1010
  454loPI   C3B 7263   4.161   7.650   7.771  0.1602  0.0578 -0.1911
  454loPI   C4B 7264   4.319   7.450   7.380 -0.1527 -0.3053  0.2113
  455loPI    C1 7265   8.011  19.244   9.589 -0.0640 -0.0838  0.0468
  455loPI    C2 7266   8.222  19.143   9.914 -0.0677 -0.3029 -0.0171
  455loPI    C3 7267   7.838  19.250   9.950  0.0717  0.1783  0.1096
  455loPI   PO4 7268   8.177  19.375   9.461 -0.0804 -0.3496  0.0650
  455loPI   GL1 7269   8.045  19.553   9.171 -0.4256  0.2516  0.3706
  455loPI   GL2 7270   7.748  19.378   9.200 -0.1246  0.3348  0.1953
  455loPI   C1A 7271   7.956  19.525   8.704 -0.1462  0.0320  0.1826
  455loPI   C2A 7272   7.847  19.656   8.281  0.0834  0.2306  0.1986
  455loPI   C3A 7273   7.577  19.617   7.876 -0.1837 -0.0699  0.3836
  455loPI   C4A 7274   7.348  19.389   7.613  0.1759  0.1502  0.0487
  455loPI   C5A 7275   7.092  19.662   7.471  0.2145  0.2241  0.0849
  455loPI   C6A 7276   6.678  19.913   7.623 -0.0608 -0.0568 -0.2372
  455loPI   C1B 7277   7.818  19.049   8.814  0.1379 -0.0045 -0.0337
  455loPI   C2B 7278   7.789  18.948   8.386  0.2317  0.4117 -0.2514
  455loPI   C3B 7279   7.477  18.977   8.013 -0.0411  0.0228 -0.3873
  455loPI   C4B 7280   7.330  18.912   7.535 -0.0117 -0.0887  0.0118
  456loPI    C1 7281  11.665  19.687   9.513  0.1237 -0.2177  0.1334
  456loPI    C2 7282  11.907  19.814   9.805  0.0403  0.1020  0.0678
  456loPI    C3 7283  11.668  19.499   9.866  0.1964  0.0189  0.2609
  456loPI   PO4 7284  11.678  19.849   9.224  0.0835 -0.0616 -0.0774
  456loPI   GL1 7285  11.388  19.801   8.869 -0.0496  0.0252 -0.0230
  456loPI   GL2 7286  11.466  19.631   8.527  0.0426  0.1797 -0.2734
  456loPI   C1A 7287  11.590  20.136   8.551 -0.1506  0.2646 -0.4746
  456loPI   C2A 7288  11.806  20.268   8.057 -0.1032 -0.1849 -0.1042
  456loPI   C3A 7289  11.603  20.546   7.791  0.2817 -0.0469  0.1441
  456loPI   C4A 7290  11.511  20.752   7.461 -0.0979  0.0779 -0.8138
  456loPI   C5A 7291  11.408  21.071   7.182 -0.0448  0.2878  0.1293
  456loPI   C6A 7292  11.458  21.042   6.811  0.3608 -0.1655  0.1893
  456loPI   C1B 7293  11.574  19.318   8.243 -0.1865  0.2300  0.0365
  456loPI   C2B 7294  11.891  19.115   7.994 -0.0451 -0.0159 -0.2696
  456loPI   C3B 7295  11.971  18.933   7.661 -0.0090  0.0840 -0.0958
  456loPI   C4B 7296  11.863  18.590   7.448  0.2860  0.1885 -0.1478
  457loPI    C1 7297  17.115   1.629   9.815  0.0268  0.1351  0.0333
  457loPI    C2 7298  17.139   1.918  10.091  0.0550  0.0731  0.0958
  457loPI    C3 7299  16.791   1.734  10.024  0.0677  0.0285  0.1515
  457loPI   PO4 7300  17.167   1.706   9.613  0.0635  0.2603  0.1099
  457loPI   GL1 7301  17.207   1.663   9.214 -0.0004  0.1736  0.0668
  457loPI   GL2 7302  17.538   1.497   9.300 -0.0853  0.0841  0.1706
  457loPI   C1A 7303  17.522   1.855   8.853  0.0405 -0.1314  0.2348
  457loPI   C2A 7304  17.599   1.800   8.438  0.0380  0.2946  0.0301
  457loPI   C3A 7305  17.394   1.935   8.056 -0.1734  0.1458  0.0979
  457loPI   C4A 7306  17.333   1.799   7.571 -0.1335  0.5831  0.2994
  457loPI   C5A 7307  17.565   1.752   7.258  0.0363  0.2157 -0.1809
  457loPI   C6A 7308  17.502   1.422   7.011 -0.2101  0.2417 -0.0210
  457loPI   C1B 7309  17.596   1.379   8.889  0.0031  0.3063  0.0972
  457loPI   C2B 7310  17.867   1.222   8.640 -0.0645  0.0068  0.5379
  457loPI   C3B 7311  18.279   1.251   8.443  0.2826 -0.1384  0.2322
  457loPI   C4B 7312  18.555   1.567   8.364 -0.0146  0.0941 -0.1481
  458loPI    C1 7313   7.870   5.799   9.221  0.0457 -0.2371  0.0341
  458loPI    C2 7314   8.196   5.924   9.027 -0.1244  0.1186 -0.0311
  458loPI    C3 7315   8.196   5.904   9.426 -0.1054  0.3689 -0.0169
  458loPI   PO4 7316   7.624   5.917   9.207  0.0008 -0.0397  0.4096
  458loPI   GL1 7317   7.585   6.125   8.838 -0.2571  0.2006  0.2729
  458loPI   GL2 7318   7.510   5.860   8.596  0.1973 -0.1186 -0.0021
  458loPI   C1A 7319   7.952   6.116   8.707  0.0115  0.3685  0.2830
  458loPI   C2A 7320   8.373   6.047   8.505  0.1264 -0.4814  0.3446
  458loPI   C3A 7321   8.603   6.235   8.101 -0.3669  0.1162 -0.0311
  458loPI   C4A 7322   8.997   6.165   7.950  0.1891  0.3706 -0.1495
  458loPI   C5A 7323   9.329   6.102   7.552  0.4980 -0.3896  0.2299
  458loPI   C6A 7324   9.535   6.351   7.162 -0.3910  0.3039  0.0831
  458loPI   C1B 7325   7.343   5.774   8.181  0.1123  0.1418  0.0195
  458loPI   C2B 7326   7.253   5.741   7.724  0.0476  0.1070  0.0155
  458loPI   C3B 7327   7.158   5.713   7.336 -0.0356  0.2660  0.1273
  458loPI   C4B 7328   6.968   5.631   6.932  0.0139 -0.1786 -0.2402
  459loPI    C1 7329   2.450  15.277  10.095  0.1062 -0.0796 -0.0337
  459loPI    C2 7330   2.598  15.625  10.225  0.0891 -0.0564 -0.0757
  459loPI    C3 7331   2.412  15.379  10.480  0.1974 -0.0844 -0.0232
  459loPI   PO4 7332   2.616  15.072   9.768 -0.1024  0.0444 -0.3213
  459loPI   GL1 7333   2.701  14.890   9.306  0.0389  0.0835  0.1321
  459loPI   GL2 7334   2.795  15.160   9.270  0.5464 -0.2805  0.0865
  459loPI   C1A 7335   2.446  14.737   8.948  0.1016  0.2661  0.0764
  459loPI   C2A 7336   2.251  14.470   8.523  0.5479  0.0475 -0.2092
  459loPI   C3A 7337   2.242  14.286   8.106 -0.1890  0.0495 -0.0157
  459loPI   C4A 7338   2.424  14.318   7.851 -0.1045  0.1473 -0.1451
  459loPI   C5A 7339   2.624  14.350   7.419 -0.0388 -0.2439  0.0721
  459loPI   C6A 7340   3.064  14.561   7.208 -0.1952  0.1309 -0.5343
  459loPI   C1B 7341   2.463  15.235   8.953 -0.2001  0.0864  0.0067
  459loPI   C2B 7342   2.467  15.019   8.532  0.2341 -0.1248 -0.0681
  459loPI   C3B 7343   2.304  14.801   8.156  0.0883 -0.1109 -0.2131
  459loPI   C4B 7344   2.103  14.690   7.740 -0.0979  0.0649 -0.1376
  460loPI    C1 7345  12.651  12.412   9.305  0.1103  0.1215  0.0436
  460loPI    C2 7346  12.564  12.541   8.936 -0.0667  0.1193  0.0838
  460loPI    C3 7347  12.522  12.786   9.249 -0.1309  0.0529  0.1278
  460loPI   PO4 7348  12.496  12.195   9.251 -0.1189  0.4551 -0.0958
  460loPI   GL1 7349  12.384  12.050   8.914 -0.1665  0.0209  0.1967
  460loPI   GL2 7350  12.608  12.060   8.799  0.1325  0.0791  0.0456
  460loPI   C1A 7351  12.255  12.241   8.575 -0.2994 -0.0956 -0.2814
  460loPI   C2A 7352  12.022  12.370   8.252  0.0061 -0.0020 -0.0021
  460loPI   C3A 7353  11.843  12.301   7.923  0.1422  0.0300  0.2902
  460loPI   C4A 7354  11.652  12.067   7.582  0.1844 -0.2569  0.2222
  460loPI   C5A 7355  11.409  11.758   7.502  0.2201  0.0102  0.1445
  460loPI   C6A 7356  11.318  11.695   7.067  0.0749  0.0906  0.0643
  460loPI   C1B 7357  12.740  12.018   8.429  0.2319  0.1221 -0.1056
  460loPI   C2B 7358  12.740  11.764   8.032  0.1877 -0.1853 -0.1669
  460loPI   C3B 7359  12.819  11.871   7.619  0.3139  0.0593  0.2033
  460loPI   C4B 7360  13.119  11.756   7.210 -0.1465 -0.2296 -0.1655
  461loPI    C1 7361  16.629   1.024   9.785  0.1807  0.1314 -0.1621
  461loPI    C2 7362  16.485   1.284  10.053  0.1195  0.0272 -0.0932
  461loPI    C3 7363  16.872   1.183  10.060  0.1436  0.1168 -0.1209
  461loPI   PO4 7364  16.500   0.986   9.458  0.1689  0.3348 -0.0477
  461loPI   GL1 7365  16.429   0.730   9.083 -0.0310 -0.1465 -0.1689
  461loPI   GL2 7366  16.620   0.486   9.070  0.0809 -0.0552  0.2070
  461loPI   C1A 7367  16.505   0.955   8.720 -0.2291 -0.0745  0.1349
  461loPI   C2A 7368  16.718   1.153   8.454 -0.0855  0.0781 -0.2596
  461loPI   C3A 7369  16.983   0.927   8.226  0.2470 -0.3231 -0.0435
  461loPI   C4A 7370  16.918   0.780   7.882  0.1033  0.2488 -0.0434
  461loPI   C5A 7371  17.064   0.745   7.414  0.1221 -0.0868  0.0083
  461loPI   C6A 7372  17.240   0.973   7.032 -0.1462 -0.1591 -0.2202
  461loPI   C1B 7373  16.580   0.364   8.714  0.0186 -0.2507  0.2425
  461loPI   C2B 7374  16.793   0.430   8.336  0.0949  0.1188  0.1687
  461loPI   C3B 7375  17.136   0.343   8.077  0.2728  0.0725 -0.1015
  461loPI   C4B 7376  17.370   0.477   7.735 -0.0711 -0.2844  0.1342
  462loPI    C1 7377   6.345   6.467   9.749  0.1543  0.1395  0.0759
  462loPI    C2 7378   6.511   6.130   9.886 -0.0662  0.0018  0.0090
  462loPI    C3 7379   6.621   6.483  10.039  0.4947 -0.0587 -0.2298
  462loPI   PO4 7380   6.327   6.449   9.466 -0.0200 -0.0576 -0.1119
  462loPI   GL1 7381   6.069   6.715   9.203  0.0038 -0.2219  0.1558
  462loPI   GL2 7382   6.381   6.836   9.160 -0.1271 -0.3383 -0.3611
  462loPI   C1A 7383   6.209   6.530   8.807  0.0915 -0.0000  0.1253
  462loPI   C2A 7384   6.151   6.700   8.415  0.0181  0.1685  0.1860
  462loPI   C3A 7385   6.374   6.972   8.147 -0.0813  0.4368 -0.0100
  462loPI   C4A 7386   6.695   7.112   7.913 -0.4033 -0.3434 -0.0876
  462loPI   C5A 7387   6.995   7.458   7.657 -0.3922 -0.0760  0.1817
  462loPI   C6A 7388   7.209   7.251   7.358 -0.1048 -0.1419 -0.0813
  462loPI   C1B 7389   6.656   6.731   8.783  0.1868  0.0069 -0.0173
  462loPI   C2B 7390   6.738   6.527   8.276  0.2324  0.1504  0.3293
  462loPI   C3B 7391   6.731   6.548   7.840 -0.1946  0.4198  0.0243
  462loPI   C4B 7392   6.786   6.608   7.417 -0.0416  0.0172  0.2047
  463loPI    C1 7393  18.460  18.064   9.238  0.2737  0.1496 -0.2765
  463loPI    C2 7394  18.536  17.894   8.884 -0.3627 -0.2739 -0.2277
  463loPI    C3 7395  18.682  17.732   9.220  0.0968  0.0294 -0.2723
  463loPI   PO4 7396  18.577  18.402   9.250 -0.1982  0.2596 -0.0751
  463loPI   GL1 7397  18.791  18.390   8.917  0.0296 -0.2204 -0.2064
  463loPI   GL2 7398  18.921  18.708   8.804  0.0022 -0.1742 -0.2262
  463loPI   C1A 7399  18.804  18.147   8.591  0.1175 -0.0946  0.5391
  463loPI   C2A 7400  18.874  17.998   8.170 -0.0772 -0.1941 -0.0259
  463loPI   C3A 7401  18.939  18.069   7.784 -0.0711 -0.2612 -0.1103
  463loPI   C4A 7402  18.648  18.091   7.452 -0.3093  0.1492 -0.0592
  463loPI   C5A 7403  18.538  18.051   7.023 -0.0087 -0.2137  0.0741
  463loPI   C6A 7404  18.388  17.830   6.683 -0.5518 -0.1806  0.2402
  463loPI   C1B 7405  18.899  18.985   8.485 -0.1131  0.0098  0.1884
  463loPI   C2B 7406  18.777  18.942   8.003  0.1143 -0.0547  0.0841
  463loPI   C3B 7407  18.608  19.128   7.541  0.2044  0.0911  0.1018
  463loPI   C4B 7408  18.805  19.369   7.220  0.0001  0.0930 -0.0166
  464loPI    C1 7409  16.290  19.500   9.617 -0.2086 -0.2164 -0.0456
  464loPI    C2 7410  16.029  19.611   9.900 -0.1082 -0.0605 -0.0131
  464loPI    C3 7411  16.353  19.398   9.999 -0.0243  0.0743  0.0039
  464loPI   PO4 7412  16.110  19.466   9.379 -0.2701 -0.1306 -0.1363
  464loPI   GL1 7413  16.069  19.628   8.938  0.3289 -0.0332  0.1117
  464loPI   GL2 7414  16.214  19.916   8.775 -0.1952 -0.1462  0.0109
  464loPI   C1A 7415  16.069  19.461   8.445  0.1088 -0.1777  0.1756
  464loPI   C2A 7416  16.197  19.533   8.002  0.3792  0.0997 -0.0202
  464loPI   C3A 7417  16.551  19.509   7.700 -0.3066  0.1218  0.1565
  464loPI   C4A 7418  16.653  19.755   7.312  0.0456 -0.0739 -0.3312
  464loPI   C5A 7419  16.796  19.799   7.004 -0.1893  0.1774 -0.0665
  464loPI   C6A 7420  16.572  20.091   6.752 -0.0687  0.2102  0.0944
  464loPI   C1B 7421  16.284  19.931   8.358  0.2774  0.1560  0.0840
  464loPI   C2B 7422  16.534  19.907   8.032  0.1988  0.0829 -0.0546
  464loPI   C3B 7423  16.190  19.965   7.729 -0.1057  0.2261  0.0229
  464loPI   C4B 7424  16.145  19.686   7.428  0.0995 -0.0139 -0.0329
  465loPI    C1 7425  12.296   3.503   9.117 -0.0046  0.3226  0.0805
  465loPI    C2 7426  12.359   3.333   9.473  0.1384 -0.1254 -0.1510
  465loPI    C3 7427  12.433   3.723   9.422  0.1871 -0.0716  0.2861
  465loPI   PO4 7428  12.472   3.255   8.943 -0.0047 -0.3098 -0.0673
  465loPI   GL1 7429  12.638   3.305   8.619 -0.2354  0.1290  0.1878
  465loPI   GL2 7430  12.432   3.530   8.551 -0.3274  0.0463  0.3555
  465loPI   C1A 7431  12.810   3.437   8.171 -0.0618 -0.1480  0.0924
  465loPI   C2A 7432  13.154   3.550   7.901 -0.3301  0.1026  0.1074
  465loPI   C3A 7433  13.361   3.316   7.560 -0.1010 -0.3012 -0.1145
  465loPI   C4A 7434  13.511   3.291   7.195  0.4663  0.4147 -0.0388
  465loPI   C5A 7435  13.564   3.360   6.714  0.3031 -0.0599  0.2471
  465loPI   C6A 7436  13.348   3.447   6.479  0.0926 -0.0356  0.0197
  465loPI   C1B 7437  12.293   3.455   8.101 -0.4277 -0.0530 -0.1154
  465loPI   C2B 7438  12.058   3.521   7.831  0.1007 -0.3180  0.2743
  465loPI   C3B 7439  11.657   3.458   7.621  0.1463 -0.0050 -0.2528
  465loPI   C4B 7440  11.538   3.128   7.836  0.1089 -0.1123 -0.2039
  466loPI    C1 7441  13.464   0.752   9.462 -0.3235 -0.0661 -0.1285
  466loPI    C2 7442  13.277   0.521   9.729  0.0023 -0.0289  0.1383
  466loPI    C3 7443  13.641   0.421   9.597 -0.0474  0.0915 -0.0967
  466loPI   PO4 7444  13.394   0.736   9.272 -0.1276 -0.0851  0.1670
  466loPI   GL1 7445  13.308   0.953   8.991 -0.1772  0.0558 -0.0663
  466loPI   GL2 7446  13.071   1.156   8.884 -0.4882 -0.1353  0.1799
  466loPI   C1A 7447  13.261   0.667   8.657 -0.0964 -0.0597  0.2009
  466loPI   C2A 7448  13.187   0.484   8.218  0.3734 -0.0531  0.0614
  466loPI   C3A 7449  13.014   0.522   7.833 -0.2061 -0.2246 -0.3174
  466loPI   C4A 7450  12.673   0.270   7.627 -0.2335  0.3237 -0.0488
  466loPI   C5A 7451  12.392   0.433   7.376  0.3503 -0.0530  0.0903
  466loPI   C6A 7452  12.013   0.601   7.196  0.0568 -0.2080  0.1935
  466loPI   C1B 7453  12.917   1.005   8.556 -0.0638 -0.0817  0.2140
  466loPI   C2B 7454  12.555   0.826   8.239  0.0283  0.0725 -0.1927
  466loPI   C3B 7455  12.584   0.758   7.746 -0.0887  0.1076  0.3997
  466loPI   C4B 7456  12.840   0.726   7.339  0.4104 -0.0184 -0.2382
  467loPI    C1 7457   4.042   2.337   9.708 -0.0407 -0.0787  0.1222
  467loPI    C2 7458   3.810   2.388   9.386  0.1323 -0.1457 -0.0152
  467loPI    C3 7459   3.766   2.626   9.705  0.0733  0.0311 -0.1534
  467loPI   PO4 7460   4.331   2.213   9.649  0.1385  0.1912 -0.0239
  467loPI   GL1 7461   4.321   2.204   9.163 -0.2169  0.2743  0.3669
  467loPI   GL2 7462   4.074   2.398   8.914 -0.5758 -0.0329 -0.1056
  467loPI   C1A 7463   4.576   2.365   8.869  0.3839 -0.3591  0.0977
  467loPI   C2A 7464   4.923   2.328   8.599  0.0114 -0.0813  0.0253
  467loPI   C3A 7465   5.061   2.140   8.291  0.2416 -0.0314 -0.0926
  467loPI   C4A 7466   5.459   2.107   7.983 -0.1253  0.1617 -0.0440
  467loPI   C5A 7467   5.828   1.990   7.751 -0.2654 -0.4485 -0.0494
  467loPI   C6A 7468   6.072   2.212   7.714  0.0513  0.0795  0.5029
  467loPI   C1B 7469   4.148   2.065   8.608  0.1954 -0.0009  0.4185
  467loPI   C2B 7470   4.016   1.845   8.341  0.1552 -0.2797 -0.2941
  467loPI   C3B 7471   3.670   1.696   8.080  0.0465  0.0698 -0.0758
  467loPI   C4B 7472   3.658   1.592   7.679 -0.1541 -0.0006 -0.4608
  468loPI    C1 7473  14.748  14.118   9.682 -0.1359  0.1353  0.0405
  468loPI    C2 7474  14.960  14.448   9.763  0.1859 -0.0477 -0.0366
  468loPI    C3 7475  14.885  14.182  10.052  0.0972 -0.0048 -0.0196
  468loPI   PO4 7476  14.544  14.232   9.457  0.3246 -0.1142 -0.0875
  468loPI   GL1 7477  14.526  14.143   8.920 -0.1477  0.0030 -0.2145
  468loPI   GL2 7478  14.681  14.412   9.038 -0.2456 -0.2083  0.0523
  468loPI   C1A 7479  14.501  14.197   8.476 -0.0708  0.3094 -0.0655
  468loPI   C2A 7480  14.672  14.247   8.121  0.0515 -0.1880 -0.3086
  468loPI   C3A 7481  14.849  14.062   7.776 -0.1552  0.2231  0.2590
  468loPI   C4A 7482  14.593  13.877   7.434 -0.1933 -0.3937 -0.3269
  468loPI   C5A 7483  14.178  13.610   7.410  0.2525  0.0796 -0.1036
  468loPI   C6A 7484  13.921  13.931   7.611 -0.0333  0.1305  0.1165
  468loPI   C1B 7485  14.607  14.671   8.640 -0.0918 -0.0992  0.1770
  468loPI   C2B 7486  14.852  14.699   8.206 -0.0105 -0.0204 -0.4411
  468loPI   C3B 7487  14.839  14.567   7.678 -0.1596 -0.2501  0.0929
  468loPI   C4B 7488  14.677  14.410   7.237 -0.3290  0.1669  0.1983
  469loPI    C1 7489   4.785  17.960   9.475 -0.0802  0.2516  0.0871
  469loPI    C2 7490   4.977  18.137   9.778  0.0808  0.0046  0.1319
  469loPI    C3 7491   4.610  17.989   9.834 -0.0930  0.4000  0.0696
  469loPI   PO4 7492   4.999  17.886   9.342 -0.1838  0.2619 -0.2641
  469loPI   GL1 7493   4.978  17.923   8.824 -0.6349 -0.1223 -0.1329
  469loPI   GL2 7494   5.330  17.988   9.007  0.1156 -0.2322 -0.4598
  469loPI   C1A 7495   4.908  17.892   8.344  0.1391  0.0672 -0.1177
  469loPI   C2A 7496   5.090  17.995   7.908  0.1910 -0.1822  0.0305
  469loPI   C3A 7497   5.311  18.101   7.635 -0.0118  0.0966  0.2129
  469loPI   C4A 7498   5.217  18.324   7.242 -0.2512  0.1585  0.1959
  469loPI   C5A 7499   5.090  18.704   7.048  0.0193 -0.1144  0.1035
  469loPI   C6A 7500   5.254  18.941   6.767  0.0357  0.0263  0.1865
  469loPI   C1B 7501   5.349  18.197   8.518 -0.2648  0.0622  0.1083
  469loPI   C2B 7502   5.344  18.366   8.156  0.0771  0.0394  0.0184
  469loPI   C3B 7503   5.630  18.371   7.857 -0.1409 -0.0677 -0.0013
  469loPI   C4B 7504   5.595  18.509   7.520  0.1217  0.0841  0.0564
  470loPI    C1 7505  17.363  10.257   9.348  0.1355 -0.1772  0.1234
  470loPI    C2 7506  17.634  10.076   9.580  0.2806  0.0838  0.1615
  470loPI    C3 7507  17.468  10.420   9.699  0.0014 -0.0253  0.0939
  470loPI   PO4 7508  17.460  10.370   9.127 -0.0833 -0.1352 -0.0802
  470loPI   GL1 7509  17.247  10.313   8.694 -0.0335  0.1535  0.0244
  470loPI   GL2 7510  17.140  10.037   8.837  0.4374  0.2546  0.2103
  470loPI   C1A 7511  17.525  10.015   8.472  0.0848 -0.1288  0.0576
  470loPI   C2A 7512  17.716   9.957   8.100  0.0318  0.1179 -0.0255
  470loPI   C3A 7513  17.847   9.776   7.789  0.2889  0.0009  0.0043
  470loPI   C4A 7514  17.890   9.928   7.394  0.0032  0.2469  0.2605
  470loPI   C5A 7515  17.902   9.691   6.965 -0.4127  0.1670  0.1334
  470loPI   C6A 7516  17.733   9.523   6.675 -0.3477 -0.0937  0.0759
  470loPI   C1B 7517  16.835  10.151   8.615  0.2819  0.0465 -0.0001
  470loPI   C2B 7518  17.024  10.305   8.222 -0.1909 -0.2368 -0.1388
  470loPI   C3B 7519  17.188  10.451   7.828 -0.0565  0.0231  0.2001
  470loPI   C4B 7520  17.183  10.800   7.510  0.0803  0.0028  0.3054
  471loPI    C1 7521   1.342  17.401   9.530  0.0486  0.2167  0.0331
  471loPI    C2 7522   1.540  17.620   9.800  0.2494 -0.0069  0.0713
  471loPI    C3 7523   1.308  17.317   9.919 -0.0117  0.1679  0.0174
  471loPI   PO4 7524   1.389  17.336   9.357  0.1921 -0.1241  0.1359
  471loPI   GL1 7525   1.209  17.028   9.054  0.0899  0.1346  0.0499
  471loPI   GL2 7526   1.319  16.621   9.089  0.0716  0.3476  0.3136
  471loPI   C1A 7527   1.165  17.005   8.648  0.0829 -0.2967 -0.2848
  471loPI   C2A 7528   0.881  17.215   8.335 -0.0958  0.1261 -0.0190
  471loPI   C3A 7529   0.843  17.382   7.929  0.3954 -0.1985  0.3260
  471loPI   C4A 7530   0.646  17.357   7.526  0.2492  0.1387 -0.2105
  471loPI   C5A 7531   0.672  17.140   7.225 -0.0321 -0.2346 -0.1089
  471loPI   C6A 7532   0.940  16.708   7.163 -0.2302 -0.1087 -0.2704
  471loPI   C1B 7533   1.483  16.620   8.679  0.2261  0.1504 -0.1554
  471loPI   C2B 7534   1.438  16.357   8.316 -0.1565 -0.0579  0.1491
  471loPI   C3B 7535   1.654  16.345   7.962 -0.1214  0.0917 -0.1898
  471loPI   C4B 7536   1.943  16.463   7.581  0.1682  0.0031 -0.3082
  472loPI    C1 7537  16.939  16.659   9.085 -0.1452 -0.1210  0.0855
  472loPI    C2 7538  17.024  16.603   9.472  0.0094 -0.0683  0.0597
  472loPI    C3 7539  16.701  16.432   9.312 -0.1852  0.0985  0.2678
  472loPI   PO4 7540  17.288  16.674   9.013  0.1990  0.4179 -0.1507
  472loPI   GL1 7541  17.322  16.866   8.596 -0.4628 -0.1165  0.1305
  472loPI   GL2 7542  17.311  16.583   8.534  0.0157 -0.1542 -0.0186
  472loPI   C1A 7543  17.731  16.914   8.405  0.4986  0.1033  0.0255
  472loPI   C2A 7544  18.049  16.832   8.093  0.0315  0.0850  0.0892
  472loPI   C3A 7545  18.228  16.848   7.701  0.3390  0.2430 -0.0833
  472loPI   C4A 7546  18.151  17.050   7.409 -0.1454  0.1815 -0.0957
  472loPI   C5A 7547  17.889  17.030   7.027 -0.1364 -0.0916  0.1281
  472loPI   C6A 7548  17.748  17.269   6.715 -0.1404  0.3518  0.2625
  472loPI   C1B 7549  17.311  16.286   8.330  0.0910 -0.1165  0.1039
  472loPI   C2B 7550  17.464  16.226   7.934  0.3007  0.0661 -0.1350
  472loPI   C3B 7551  17.584  16.384   7.644 -0.1717 -0.1568 -0.0632
  472loPI   C4B 7552  17.689  16.271   7.159 -0.0241 -0.0592 -0.1348
  473loPI    C1 7553   8.378  11.003   9.764  0.2308 -0.2745 -0.2280
  473loPI    C2 7554   8.115  11.258   9.923  0.2217 -0.2594 -0.2669
  473loPI    C3 7555   8.110  10.873  10.030  0.3608 -0.2064 -0.0617
  473loPI   PO4 7556   8.306  11.133   9.473 -0.0430 -0.0776  0.3362
  473loPI   GL1 7557   8.430  11.164   9.113 -0.0805  0.1540 -0.1025
  473loPI   GL2 7558   8.531  10.935   8.874  0.0989 -0.0161 -0.3168
  473loPI   C1A 7559   8.567  11.464   8.742  0.0077  0.0361 -0.5131
  473loPI   C2A 7560   8.282  11.452   8.376  0.1639 -0.0244  0.0750
  473loPI   C3A 7561   8.054  11.467   8.036  0.0068  0.0456  0.0624
  473loPI   C4A 7562   7.739  11.666   7.828  0.6634 -0.1112  0.1182
  473loPI   C5A 7563   7.757  12.053   7.557 -0.0156  0.1737 -0.0029
  473loPI   C6A 7564   7.730  12.368   7.325  0.2268  0.3088  0.0283
  473loPI   C1B 7565   8.503  11.033   8.422 -0.2784  0.2014 -0.0252
  473loPI   C2B 7566   8.548  11.117   8.040  0.0857 -0.1459  0.0984
  473loPI   C3B 7567   8.712  11.096   7.553 -0.0006 -0.0456 -0.2237
  473loPI   C4B 7568   9.006  11.238   7.301 -0.0452  0.1812 -0.1033
  474loPI    C1 7569   2.623   3.764   9.413  0.0792 -0.0013  0.3782
  474loPI    C2 7570   2.998   3.656   9.500  0.3073  0.2432 -0.2406
  474loPI    C3 7571   2.868   4.021   9.597  0.2503  0.1850 -0.0944
  474loPI   PO4 7572   2.718   3.737   9.126  0.0719 -0.0795 -0.0226
  474loPI   GL1 7573   2.589   3.455   8.772 -0.1194  0.3622 -0.0222
  474loPI   GL2 7574   2.814   3.228   8.784  0.0040 -0.1332  0.1118
  474loPI   C1A 7575   2.814   3.557   8.458  0.1234 -0.3303 -0.4340
  474loPI   C2A 7576   2.846   3.778   8.047 -0.3115 -0.0333 -0.0719
  474loPI   C3A 7577   2.801   3.610   7.591 -0.0589 -0.2240 -0.0953
  474loPI   C4A 7578   2.460   3.595   7.311 -0.0064  0.0663  0.3106
  474loPI   C5A 7579   2.339   4.039   7.178  0.0276  0.0726  0.2381
  474loPI   C6A 7580   1.994   4.276   7.020 -0.1954  0.1984 -0.0677
  474loPI   C1B 7581   3.087   3.028   8.550  0.0905  0.0897 -0.1835
  474loPI   C2B 7582   3.287   2.966   8.168  0.1510 -0.5795 -0.1391
  474loPI   C3B 7583   3.430   3.100   7.755 -0.0302  0.2193  0.2674
  474loPI   C4B 7584   3.392   2.964   7.402 -0.2689 -0.1243  0.2399
  475loPI    C1 7585   6.841   5.344   9.005 -0.0125  0.2032  0.0925
  475loPI    C2 7586   6.760   5.299   9.395  0.2497  0.0381  0.1304
  475loPI    C3 7587   7.008   5.589   9.273  0.0783  0.1627  0.0731
  475loPI   PO4 7588   6.602   5.253   8.926 -0.0077  0.0111  0.1952
  475loPI   GL1 7589   6.322   5.100   8.545  0.0847  0.0286  0.0484
  475loPI   GL2 7590   6.073   4.977   8.367  0.1858 -0.0476 -0.1844
  475loPI   C1A 7591   6.723   5.108   8.227  0.2471 -0.1026  0.0519
  475loPI   C2A 7592   6.698   4.996   7.784  0.0795 -0.0279 -0.0546
  475loPI   C3A 7593   6.373   4.902   7.456  0.1538 -0.1696 -0.0456
  475loPI   C4A 7594   6.032   4.977   7.064 -0.0056 -0.2464 -0.0870
  475loPI   C5A 7595   5.593   4.818   7.005 -0.4230 -0.2131  0.0236
  475loPI   C6A 7596   5.221   4.927   6.875 -0.3390  0.2540 -0.0103
  475loPI   C1B 7597   5.931   5.015   8.001  0.4939 -0.0687 -0.3753
  475loPI   C2B 7598   5.746   4.936   7.590 -0.1645 -0.0910 -0.0370
  475loPI   C3B 7599   5.417   4.766   7.476 -0.2154 -0.2707  0.0768
  475loPI   C4B 7600   5.001   4.942   7.349 -0.0197  0.0629  0.0333
  476loPI    C1 7601  11.758  15.986   9.565  0.0505  0.4182  0.2061
  476loPI    C2 7602  12.138  16.107   9.528  0.2043 -0.1268 -0.1147
  476loPI    C3 7603  12.019  15.917   9.860  0.0293  0.6230  0.2745
  476loPI   PO4 7604  11.680  15.900   9.353 -0.1388  0.1624  0.3551
  476loPI   GL1 7605  11.543  16.027   8.971  0.2562 -0.1842 -0.2566
  476loPI   GL2 7606  11.326  16.113   8.773  0.0516  0.2328 -0.2265
  476loPI   C1A 7607  11.666  15.799   8.555 -0.1468 -0.0656 -0.1288
  476loPI   C2A 7608  11.563  15.715   8.215 -0.0785  0.3631 -0.3033
  476loPI   C3A 7609  11.474  15.900   7.779 -0.0914  0.1354 -0.3735
  476loPI   C4A 7610  11.127  16.010   7.628  0.0603  0.0261 -0.1010
  476loPI   C5A 7611  10.994  16.339   7.391 -0.0887  0.1197 -0.5517
  476loPI   C6A 7612  10.575  16.464   7.304 -0.2033  0.2753  0.0572
  476loPI   C1B 7613  11.172  15.707   8.623 -0.2454 -0.0848 -0.0030
  476loPI   C2B 7614  11.228  15.368   8.460  0.2256  0.0431  0.0864
  476loPI   C3B 7615  11.148  15.343   8.025  0.1270  0.0290 -0.0799
  476loPI   C4B 7616  10.997  15.557   7.638 -0.2129  0.2287 -0.0493
  477loPI    C1 7617  19.144   1.321   9.599 -0.0393  0.1143  0.0505
  477loPI    C2 7618  18.906   1.226   9.292  0.3045 -0.3543 -0.0823
  477loPI    C3 7619  18.916   0.992   9.617  0.0404  0.0675  0.2407
  477loPI   PO4 7620  19.353   1.385   9.429  0.4306 -0.1585 -0.2480
  477loPI   GL1 7621  19.552   1.334   9.076  0.1354 -0.0401  0.0918
  477loPI   GL2 7622  19.496   1.041   9.037  0.5014 -0.0096 -0.1898
  477loPI   C1A 7623  19.361   1.456   8.713  0.0021 -0.3568 -0.0840
  477loPI   C2A 7624  18.994   1.486   8.535  0.0913 -0.3054 -0.0277
  477loPI   C3A 7625  18.894   1.434   8.060  0.0040 -0.1016  0.1975
  477loPI   C4A 7626  19.069   1.070   7.805 -0.5023 -0.0223  0.1664
  477loPI   C5A 7627  19.317   0.710   7.926 -0.0640  0.2661 -0.3274
  477loPI   C6A 7628  19.377   0.431   7.651  0.2490  0.1829 -0.0161
  477loPI   C1B 7629  19.575   0.678   8.822  0.2686 -0.0904  0.2929
  477loPI   C2B 7630  19.307   0.539   8.683 -0.1738  0.0555  0.0280
  477loPI   C3B 7631  18.825   0.552   8.556 -0.1283 -0.1444 -0.1473
  477loPI   C4B 7632  18.494   0.621   8.393  0.2056 -0.0821  0.2019
  478loPI    C1 7633  15.546   2.437   9.060  0.0868 -0.0356  0.1221
  478loPI    C2 7634  15.643   2.355   9.440  0.0260  0.1824  0.1861
  478loPI    C3 7635  15.816   2.662   9.251  0.1289  0.0149  0.0038
  478loPI   PO4 7636  15.616   2.263   8.902  0.1837  0.1696  0.4431
  478loPI   GL1 7637  15.350   2.306   8.613  0.4030  0.4819 -0.2069
  478loPI   GL2 7638  15.430   2.561   8.564  0.0242  0.1281 -0.1696
  478loPI   C1A 7639  15.257   2.240   8.249  0.0945 -0.0410 -0.0261
  478loPI   C2A 7640  15.311   2.166   7.845 -0.0336  0.0409 -0.0460
  478loPI   C3A 7641  15.437   2.260   7.455 -0.1445  0.3324 -0.0200
  478loPI   C4A 7642  15.721   2.374   7.018 -0.0291  0.0249  0.5683
  478loPI   C5A 7643  16.147   2.449   6.803 -0.1722  0.0298 -0.0895
  478loPI   C6A 7644  16.554   2.324   6.880  0.0652 -0.3592 -0.0347
  478loPI   C1B 7645  15.727   2.505   8.305  0.0176 -0.0972  0.0712
  478loPI   C2B 7646  15.807   2.250   7.881  0.1280 -0.1198 -0.0836
  478loPI   C3B 7647  15.971   2.153   7.482  0.0978 -0.2329 -0.0534
  478loPI   C4B 7648  16.124   2.034   7.101  0.3929 -0.0184  0.3810
  479loPI    C1 7649   4.888  16.847   9.510 -0.1041 -0.1041 -0.1004
  479loPI    C2 7650   4.843  17.137   9.782 -0.0088  0.0380 -0.2343
  479loPI    C3 7651   5.155  16.888   9.805 -0.0245  0.0226 -0.1887
  479loPI   PO4 7652   4.956  16.942   9.214  0.0345  0.4013  0.1017
  479loPI   GL1 7653   4.775  17.154   8.845 -0.4965  0.1432  0.0479
  479loPI   GL2 7654   4.925  16.881   8.718  0.0382 -0.1059 -0.3941
  479loPI   C1A 7655   4.843  17.371   8.501  0.2758  0.1102 -0.1870
  479loPI   C2A 7656   4.890  17.457   8.088 -0.1654  0.1556 -0.1521
  479loPI   C3A 7657   5.245  17.496   7.866 -0.2857  0.0132  0.0368
  479loPI   C4A 7658   5.036  17.632   7.422  0.1879  0.0871 -0.2065
  479loPI   C5A 7659   5.113  17.898   7.031 -0.0790 -0.0779 -0.2517
  479loPI   C6A 7660   5.233  17.862   6.681  0.1794 -0.3456  0.2980
  479loPI   C1B 7661   5.137  17.023   8.351 -0.0359  0.0364 -0.0446
  479loPI   C2B 7662   5.496  17.205   8.229  0.0210 -0.2056  0.3094
  479loPI   C3B 7663   5.803  17.274   7.830 -0.0842 -0.0225  0.2329
  479loPI   C4B 7664   5.913  17.385   7.519  0.1455 -0.1478  0.1206
  480loPI    C1 7665  11.813  16.609   9.747  0.1716  0.2402  0.0233
  480loPI    C2 7666  12.087  16.409   9.960  0.0990  0.1193  0.0038
  480loPI    C3 7667  11.712  16.270   9.934  0.0765  0.1979 -0.1030
  480loPI   PO4 7668  11.962  16.596   9.515  0.0650 -0.1826  0.1432
  480loPI   GL1 7669  12.002  16.753   9.000 -0.5728 -0.0265 -0.1871
  480loPI   GL2 7670  11.905  16.356   9.114  0.0890 -0.1489  0.0087
  480loPI   C1A 7671  11.981  16.656   8.570  0.1734 -0.4090  0.1583
  480loPI   C2A 7672  12.050  16.710   8.130  0.0022 -0.1616  0.2051
  480loPI   C3A 7673  11.863  16.741   7.692  0.0432  0.2239 -0.0576
  480loPI   C4A 7674  12.049  16.522   7.399 -0.1504 -0.2346 -0.0690
  480loPI   C5A 7675  11.931  16.416   6.988 -0.1767  0.1197 -0.0543
  480loPI   C6A 7676  11.632  16.476   6.751 -0.1851  0.0798  0.0657
  480loPI   C1B 7677  12.012  16.201   8.705 -0.0873  0.5423 -0.2351
  480loPI   C2B 7678  12.259  16.300   8.375  0.3573 -0.0906 -0.0307
  480loPI   C3B 7679  12.573  16.662   8.091 -0.2585  0.2183 -0.2121
  480loPI   C4B 7680  12.752  17.024   7.891 -0.1111  0.0241 -0.1706
  481loPI    C1 7681  14.709  18.904   9.655 -0.1745 -0.0365 -0.1713
  481loPI    C2 7682  14.791  19.289   9.724 -0.0999 -0.0933  0.0668
  481loPI    C3 7683  14.783  19.029  10.028 -0.2774 -0.2564 -0.0750
  481loPI   PO4 7684  14.939  18.805   9.469  0.2819 -0.0463  0.3939
  481loPI   GL1 7685  15.042  18.955   9.085  0.4337  0.0754  0.0491
  481loPI   GL2 7686  15.366  18.843   9.053 -0.0961  0.1324  0.1069
  481loPI   C1A 7687  15.071  19.281   8.764  0.1644 -0.1965 -0.0350
  481loPI   C2A 7688  15.211  19.413   8.353 -0.1110  0.2638  0.0568
  481loPI   C3A 7689  15.158  19.639   7.976  0.0710 -0.0206 -0.1459
  481loPI   C4A 7690  15.162  19.707   7.593 -0.0145  0.1005  0.0698
  481loPI   C5A 7691  15.184  19.946   7.205  0.1315  0.3484  0.1815
  481loPI   C6A 7692  15.204  20.457   7.147 -0.2010  0.0799  0.1837
  481loPI   C1B 7693  15.192  18.851   8.561  0.1988  0.2605  0.0083
  481loPI   C2B 7694  14.852  19.041   8.343 -0.0035  0.2264  0.1261
  481loPI   C3B 7695  14.707  19.354   8.196  0.1808  0.0015 -0.1327
  481loPI   C4B 7696  14.754  19.440   7.763  0.1388  0.0171  0.0844
  482loPI    C1 7697   0.509   7.917   9.651 -0.0324 -0.2108 -0.1478
  482loPI    C2 7698   0.301   7.846   9.985 -0.1746 -0.1483 -0.2220
  482loPI    C3 7699   0.354   8.222   9.858  0.1156 -0.1527 -0.1213
  482loPI   PO4 7700   0.396   7.736   9.514  0.1851 -0.0461 -0.2272
  482loPI   GL1 7701   0.187   7.921   9.065 -0.1902 -0.0782  0.2977
  482loPI   GL2 7702   0.439   7.884   9.059  0.0138  0.0911  0.0089
  482loPI   C1A 7703   0.107   7.622   8.646 -0.0429  0.0528  0.0532
  482loPI   C2A 7704   0.092   7.483   8.202 -0.0084  0.1003 -0.2081
  482loPI   C3A 7705  -0.002   7.528   7.809 -0.2190 -0.5571  0.2391
  482loPI   C4A 7706   0.016   7.588   7.363  0.1111  0.1852 -0.1287
  482loPI   C5A 7707   0.264   7.753   7.094  0.3644  0.2405 -0.0190
  482loPI   C6A 7708   0.505   7.860   6.554  0.2019  0.1055  0.0773
  482loPI   C1B 7709   0.396   8.087   8.605  0.1696 -0.0143  0.4286
  482loPI   C2B 7710   0.482   8.180   8.225 -0.2882  0.0118  0.4056
  482loPI   C3B 7711   0.666   8.195   7.809  0.1238 -0.0053  0.2736
  482loPI   C4B 7712   0.770   8.425   7.513 -0.0631 -0.0367  0.0407
  483loPI    C1 7713   7.814   1.702   9.183  0.2189  0.1191  0.1402
  483loPI    C2 7714   8.134   1.540   9.006  0.1213 -0.0350  0.1021
  483loPI    C3 7715   8.016   1.409   9.365  0.0391 -0.0509  0.0692
  483loPI   PO4 7716   7.629   1.736   8.982 -0.2568  0.0917  0.0623
  483loPI   GL1 7717   7.664   1.843   8.594 -0.4473 -0.1145  0.1798
  483loPI   GL2 7718   7.648   1.672   8.354 -0.3405  0.1549 -0.3075
  483loPI   C1A 7719   8.103   1.865   8.249 -0.3006 -0.3797 -0.1049
  483loPI   C2A 7720   8.120   1.924   7.803  0.0912  0.1055  0.0297
  483loPI   C3A 7721   8.197   1.901   7.469  0.3384 -0.3405  0.2732
  483loPI   C4A 7722   8.226   1.898   6.966 -0.4903  0.5892  0.2061
  483loPI   C5A 7723   8.229   1.894   6.519  0.1886 -0.0748  0.1260
  483loPI   C6A 7724   7.913   1.771   6.235  0.0609  0.1035  0.1489
  483loPI   C1B 7725   7.681   1.778   7.948 -0.2313 -0.0913 -0.1751
  483loPI   C2B 7726   7.834   1.505   7.553 -0.0700  0.2929  0.4358
  483loPI   C3B 7727   7.848   1.401   7.136  0.1205  0.0252 -0.0624
  483loPI   C4B 7728   7.791   1.100   6.923  0.2977  0.1554  0.1805
  484loPI    C1 7729  12.525  18.202   9.912  0.1329  0.0318 -0.2610
  484loPI    C2 7730  12.235  18.087  10.163  0.0947  0.0640 -0.2901
  484loPI    C3 7731  12.617  18.079  10.282  0.0505  0.4048 -0.1121
  484loPI   PO4 7732  12.286  18.173   9.677 -0.0200  0.0407 -0.0281
  484loPI   GL1 7733  12.273  18.108   9.270  0.1179 -0.3594  0.1756
  484loPI   GL2 7734  12.327  18.385   9.113 -0.4086  0.0903  0.0570
  484loPI   C1A 7735  12.284  17.935   8.801  0.0170 -0.1072  0.2376
  484loPI   C2A 7736  12.288  17.535   8.457  0.1002  0.0985 -0.1694
  484loPI   C3A 7737  12.203  17.523   8.057  0.1976 -0.4403  0.0282
  484loPI   C4A 7738  11.989  17.492   7.688  0.3580  0.0078  0.1276
  484loPI   C5A 7739  12.053  17.182   7.320  0.2058 -0.0268  0.0374
  484loPI   C6A 7740  11.781  16.874   7.160 -0.1549  0.4218  0.6376
  484loPI   C1B 7741  11.967  18.323   8.846 -0.0910 -0.0625  0.0588
  484loPI   C2B 7742  11.542  18.124   8.815  0.1582  0.2027  0.3662
  484loPI   C3B 7743  11.269  17.761   8.752  0.5108 -0.2534 -0.1367
  484loPI   C4B 7744  11.135  17.329   8.668  0.2438  0.0735 -0.1434
  485loPI    C1 7745  16.519   7.854   9.343 -0.0381 -0.1012 -0.0436
  485loPI    C2 7746  16.685   7.522   9.494  0.0466  0.0570  0.2186
  485loPI    C3 7747  16.325   7.505   9.321  0.1367 -0.2062  0.0502
  485loPI   PO4 7748  16.620   7.930   9.108 -0.0932 -0.2291 -0.0525
  485loPI   GL1 7749  16.765   7.964   8.755 -0.2489 -0.2820  0.0261
  485loPI   GL2 7750  16.527   7.957   8.369 -0.1526  0.1722  0.2826
  485loPI   C1A 7751  16.992   8.177   8.370  0.2309 -0.1539 -0.3233
  485loPI   C2A 7752  17.168   8.450   8.026 -0.2620  0.0235  0.1341
  485loPI   C3A 7753  17.314   8.671   7.830  0.2392 -0.0328 -0.1296
  485loPI   C4A 7754  17.388   8.909   7.399  0.3190  0.4288  0.5558
  485loPI   C5A 7755  17.440   9.041   6.867 -0.0346  0.2459  0.0739
  485loPI   C6A 7756  17.580   9.044   6.425  0.0638  0.0589  0.0788
  485loPI   C1B 7757  16.601   8.271   8.133  0.0749  0.0186 -0.1289
  485loPI   C2B 7758  16.390   8.427   7.740  0.3455  0.1172  0.1491
  485loPI   C3B 7759  16.178   8.492   7.273  0.0148 -0.1719 -0.1302
  485loPI   C4B 7760  16.477   8.721   6.894  0.1879  0.0946 -0.2708
  486loPI    C1 7761   9.000  14.008   9.989  0.1281  0.0747 -0.0986
  486loPI    C2 7762   9.099  13.657   9.824  0.0875 -0.0199  0.0764
  486loPI    C3 7763   9.342  13.972   9.785  0.0091 -0.0008 -0.2869
  486loPI   PO4 7764   8.658  14.071   9.828  0.2941 -0.0195  0.0665
  486loPI   GL1 7765   8.664  14.321   9.430  0.2380  0.2194  0.1029
  486loPI   GL2 7766   8.631  14.582   9.336 -0.0342 -0.0955 -0.3404
  486loPI   C1A 7767   8.738  14.287   8.960  0.0728  0.0462 -0.0099
  486loPI   C2A 7768   8.406  14.285   8.699 -0.0463 -0.0200 -0.0363
  486loPI   C3A 7769   8.372  14.453   8.222 -0.0367  0.1142  0.0650
  486loPI   C4A 7770   8.360  14.692   7.857 -0.2948 -0.0114  0.2882
  486loPI   C5A 7771   8.422  14.486   7.437  0.3403 -0.2894  0.3159
  486loPI   C6A 7772   8.605  14.472   7.051 -0.2821 -0.0075  0.1626
  486loPI   C1B 7773   8.576  14.802   8.934  0.0949 -0.1051 -0.1223
  486loPI   C2B 7774   8.397  14.799   8.566 -0.0331  0.1793  0.0224
  486loPI   C3B 7775   8.327  15.105   8.183 -0.0807  0.4762  0.2166
  486loPI   C4B 7776   8.472  15.265   7.826 -0.0837 -0.3080 -0.2329
  487loPI    C1 7777  11.376   3.820   9.480 -0.3762 -0.3263 -0.1243
  487loPI    C2 7778  11.481   4.083   9.198 -0.0007 -0.2207  0.1068
  487loPI    C3 7779  11.112   4.090   9.350 -0.0381  0.0797  0.0095
  487loPI   PO4 7780  11.506   3.670   9.381 -0.0045  0.2725 -0.0133
  487loPI   GL1 7781  11.567   3.650   8.937  0.2473  0.0908  0.1067
  487loPI   GL2 7782  11.933   3.635   8.820 -0.0514  0.0920 -0.3914
  487loPI   C1A 7783  11.476   3.981   8.687 -0.2184  0.1816 -0.3194
  487loPI   C2A 7784  11.618   3.970   8.319  0.0228  0.1229  0.1815
  487loPI   C3A 7785  11.525   4.137   7.752 -0.0698  0.0948 -0.2338
  487loPI   C4A 7786  11.483   3.937   7.362 -0.0176  0.1938  0.0522
  487loPI   C5A 7787  11.447   3.687   7.051  0.0223 -0.1407 -0.1261
  487loPI   C6A 7788  11.594   3.535   6.614  0.2311  0.2022  0.2456
  487loPI   C1B 7789  11.774   3.532   8.411 -0.4532 -0.1036 -0.1520
  487loPI   C2B 7790  11.449   3.586   8.093  0.0970 -0.2031  0.1176
  487loPI   C3B 7791  11.179   3.812   7.778  0.0871  0.1256  0.1442
  487loPI   C4B 7792  11.046   3.647   7.279  0.1125  0.0523 -0.2425
  488loPI    C1 7793  19.679  13.391  10.020  0.0577 -0.2909  0.2006
  488loPI    C2 7794  19.346  13.171  10.050 -0.3305  0.2112 -0.2049
  488loPI    C3 7795  19.460  13.404  10.354 -0.1930 -0.1590  0.0351
  488loPI   PO4 7796  19.652  13.461   9.764  0.0855 -0.4003 -0.1386
  488loPI   GL1 7797  19.805  13.285   9.421 -0.0608 -0.2809 -0.1796
  488loPI   GL2 7798  19.618  13.271   9.167  0.0944  0.0278  0.1125
  488loPI   C1A 7799  20.122  13.342   9.075  0.0826 -0.2649  0.0134
  488loPI   C2A 7800  20.131  13.566   8.533 -0.2548 -0.4206  0.0291
  488loPI   C3A 7801  20.424  13.649   8.113 -0.0832 -0.0167 -0.0588
  488loPI   C4A 7802  20.696  13.703   7.882  0.0468  0.0429  0.1156
  488loPI   C5A 7803  20.799  13.879   7.468  0.1594 -0.1858 -0.1281
  488loPI   C6A 7804  21.042  13.761   7.116 -0.0279  0.1650  0.0090
  488loPI   C1B 7805  19.692  13.306   8.723  0.2678 -0.1417 -0.4202
  488loPI   C2B 7806  19.697  13.366   8.285  0.2219 -0.3845 -0.1146
  488loPI   C3B 7807  19.908  13.671   8.090  0.0464 -0.1852 -0.0150
  488loPI   C4B 7808  20.140  13.539   7.654 -0.4110  0.2035  0.0263
  489loPI    C1 7809   9.627   6.189   9.033  0.0422  0.0035 -0.0484
  489loPI    C2 7810   9.454   6.447   9.285  0.0685  0.1617 -0.1906
  489loPI    C3 7811   9.767   6.229   9.406  0.0313  0.1784 -0.0625
  489loPI   PO4 7812   9.597   6.379   8.840 -0.0206  0.3857  0.0715
  489loPI   GL1 7813   9.295   6.513   8.600  0.1473  0.1018  0.1509
  489loPI   GL2 7814   9.482   6.621   8.419 -0.0471  0.1378 -0.0425
  489loPI   C1A 7815   9.035   6.594   8.172 -0.0804 -0.0394  0.0099
  489loPI   C2A 7816   8.963   6.596   7.734  0.0387  0.0350 -0.0091
  489loPI   C3A 7817   9.183   6.637   7.464  0.3383 -0.0016  0.3394
  489loPI   C4A 7818   9.299   6.818   7.100 -0.3151  0.1267  0.4459
  489loPI   C5A 7819   9.676   7.070   6.793 -0.0270  0.2139 -0.1119
  489loPI   C6A 7820   9.991   7.374   6.742 -0.0896  0.2852  0.2969
  489loPI   C1B 7821   9.819   6.791   8.069  0.2175 -0.1624  0.0678
  489loPI   C2B 7822  10.000   7.143   7.921  0.1857  0.1571  0.1037
  489loPI   C3B 7823   9.846   7.526   7.947  0.2383 -0.1583 -0.3153
  489loPI   C4B 7824   9.755   7.962   7.970  0.1163  0.0263  0.3937
  490loPI    C1 7825   1.193  15.542   9.616  0.1479 -0.0883  0.0781
  490loPI    C2 7826   0.827  15.456   9.477  0.0263  0.0287  0.3195
  490loPI    C3 7827   1.063  15.164   9.616 -0.0119 -0.0351  0.2509
  490loPI   PO4 7828   1.255  15.706   9.497 -0.1969  0.1402  0.1093
  490loPI   GL1 7829   1.079  15.806   9.081 -0.1596 -0.0624 -0.1371
  490loPI   GL2 7830   1.189  16.111   9.084  0.0647 -0.1223  0.0597
  490loPI   C1A 7831   0.865  15.733   8.646 -0.5993 -0.1347  0.0484
  490loPI   C2A 7832   0.733  15.476   8.325  0.1586 -0.1625  0.0887
  490loPI   C3A 7833   0.397  15.140   8.169 -0.1362 -0.2158  0.1612
  490loPI   C4A 7834   0.394  15.042   7.675 -0.2250 -0.1058 -0.1673
  490loPI   C5A 7835   0.295  15.047   7.185  0.0358 -0.2276 -0.1399
  490loPI   C6A 7836   0.234  14.879   6.719 -0.0695  0.2254  0.0246
  490loPI   C1B 7837   1.227  16.178   8.691  0.0475  0.1986  0.1190
  490loPI   C2B 7838   1.135  15.987   8.326 -0.2076 -0.4579 -0.1164
  490loPI   C3B 7839   1.160  16.050   7.920 -0.0542 -0.0299 -0.2716
  490loPI   C4B 7840   1.125  15.794   7.533  0.1479 -0.2085 -0.1153
  491loPI    C1 7841  15.244   9.682   9.729 -0.0303  0.1236  0.3444
  491loPI    C2 7842  15.320  10.057   9.612  0.0074  0.0207  0.0317
  491loPI    C3 7843  15.121   9.991   9.953 -0.2138  0.3307 -0.0326
  491loPI   PO4 7844  15.090   9.649   9.269  0.0546  0.2114  0.0272
  491loPI   GL1 7845  15.156   9.815   8.749  0.1717  0.0604  0.3779
  491loPI   GL2 7846  15.074   9.494   8.581 -0.0473 -0.2610 -0.0218
  491loPI   C1A 7847  14.895   9.965   8.337 -0.0416  0.3063  0.2195
  491loPI   C2A 7848  14.855   9.777   7.931 -0.3642 -0.2357  0.0971
  491loPI   C3A 7849  14.659   9.640   7.513 -0.1851 -0.1396  0.3088
  491loPI   C4A 7850  14.548   9.734   7.095 -0.1113 -0.4616  0.0343
  491loPI   C5A 7851  14.702   9.620   6.685  0.2994  0.4712  0.0944
  491loPI   C6A 7852  14.683   9.743   6.240 -0.0120  0.0868 -0.1923
  491loPI   C1B 7853  15.223   9.525   8.165  0.1727  0.0440  0.1636
  491loPI   C2B 7854  15.249   9.506   7.808 -0.0889 -0.0274 -0.0725
  491loPI   C3B 7855  15.219   9.651   7.409  0.0295  0.0261  0.0966
  491loPI   C4B 7856  15.020   9.592   7.129  0.0242 -0.2298 -0.0550
  492loPI    C1 7857   6.196   5.914   9.506 -0.0338  0.0260  0.1089
  492loPI    C2 7858   5.951   6.135   9.733 -0.2767 -0.2306  0.1017
  492loPI    C3 7859   6.066   5.772   9.856 -0.1281 -0.2282 -0.0265
  492loPI   PO4 7860   6.073   6.030   9.248  0.1817 -0.1678 -0.0212
  492loPI   GL1 7861   5.885   5.980   8.910  0.1218  0.0729 -0.0990
  492loPI   GL2 7862   6.155   5.794   8.635 -0.0611  0.2482 -0.1473
  492loPI   C1A 7863   5.882   6.276   8.544 -0.0650  0.0450  0.0816
  492loPI   C2A 7864   5.712   6.358   8.222 -0.0488 -0.3509 -0.0586
  492loPI   C3A 7865   5.854   6.270   7.720  0.1983 -0.4343 -0.0317
  492loPI   C4A 7866   5.994   6.497   7.213 -0.3285 -0.2342 -0.1270
  492loPI   C5A 7867   5.757   6.315   6.899  0.1635 -0.0709 -0.1572
  492loPI   C6A 7868   5.438   6.256   6.669 -0.2190  0.0932 -0.1459
  492loPI   C1B 7869   6.365   5.590   8.272  0.0733  0.2694 -0.0580
  492loPI   C2B 7870   6.330   5.226   7.968  0.1542 -0.1302 -0.1784
  492loPI   C3B 7871   6.093   5.283   7.568 -0.0120  0.6562 -0.1757
  492loPI   C4B 7872   5.832   5.378   7.291  0.2346 -0.5239  0.1965
  493loPI    C1 7873   6.195  19.535   9.908 -0.1034  0.1770  0.0949
  493loPI    C2 7874   5.836  19.640  10.051 -0.2704 -0.1703 -0.0566
  493loPI    C3 7875   6.050  19.357  10.236 -0.1181 -0.0370 -0.0263
  493loPI   PO4 7876   6.186  19.687   9.707  0.2431 -0.0411 -0.3003
  493loPI   GL1 7877   6.030  19.479   9.190 -0.1145 -0.1909  0.1976
  493loPI   GL2 7878   6.043  19.760   9.225 -0.0804 -0.1101  0.1752
  493loPI   C1A 7879   5.856  19.319   8.766 -0.0638 -0.4617 -0.3038
  493loPI   C2A 7880   5.463  19.291   8.462 -0.0284 -0.1298  0.1192
  493loPI   C3A 7881   5.326  19.323   8.043 -0.5442  0.1452  0.4769
  493loPI   C4A 7882   5.281  19.536   7.608 -0.1317  0.1971  0.0747
  493loPI   C5A 7883   5.249  19.362   7.178 -0.2539 -0.2130 -0.0326
  493loPI   C6A 7884   4.897  19.347   6.892  0.1961 -0.0448 -0.0764
  493loPI   C1B 7885   5.958  20.046   8.929 -0.3803  0.0515  0.0131
  493loPI   C2B 7886   5.856  20.185   8.550 -0.1625  0.1466 -0.0425
  493loPI   C3B 7887   5.801  20.205   8.075 -0.1656  0.1702  0.0817
  493loPI   C4B 7888   5.768  20.371   7.598  0.3038 -0.1722  0.4240
  494loPI    C1 7889  11.326  10.675   9.629  0.0504 -0.0887 -0.0715
  494loPI    C2 7890  11.632  10.586   9.872 -0.1360 -0.3230  0.0823
  494loPI    C3 7891  11.330  10.327   9.827 -0.4168 -0.0052  0.0974
  494loPI   PO4 7892  11.463  10.721   9.377 -0.1362  0.0977  0.3466
  494loPI   GL1 7893  11.315  10.648   9.000 -0.4014  0.2277 -0.0043
  494loPI   GL2 7894  11.343  10.341   8.820 -0.2081 -0.1558  0.0518
  494loPI   C1A 7895  11.568  10.761   8.688  0.0648 -0.2525  0.1382
  494loPI   C2A 7896  11.874  10.886   8.364  0.0700 -0.1668  0.0644
  494loPI   C3A 7897  11.811  11.016   7.971 -0.0037  0.1650 -0.1570
  494loPI   C4A 7898  11.991  10.801   7.551  0.0162 -0.0086  0.0855
  494loPI   C5A 7899  12.245  10.647   7.220 -0.2728  0.2217  0.4602
  494loPI   C6A 7900  12.603  10.545   6.911  0.2177 -0.0570 -0.2075
  494loPI   C1B 7901  11.132  10.475   8.472  0.0737  0.0467 -0.0961
  494loPI   C2B 7902  10.716  10.549   8.223  0.0255  0.2794  0.0927
  494loPI   C3B 7903  10.607  10.392   7.711 -0.1889  0.3060 -0.3307
  494loPI   C4B 7904  10.354  10.470   7.307  0.0614 -0.0104  0.1574
  495loPI    C1 7905   6.367   2.748   9.461  0.0609  0.1614 -0.2101
  495loPI    C2 7906   6.379   2.717   9.860  0.2075  0.2634 -0.2058
  495loPI    C3 7907   6.037   2.650   9.665  0.2412 -0.2481 -0.1037
  495loPI   PO4 7908   6.653   2.670   9.382 -0.2397 -0.0313  0.0257
  495loPI   GL1 7909   6.892   2.699   9.014 -0.4885  0.1091  0.1772
  495loPI   GL2 7910   6.914   3.041   8.841 -0.1932  0.1134  0.0519
  495loPI   C1A 7911   6.983   2.600   8.632 -0.2167  0.1057 -0.1569
  495loPI   C2A 7912   7.093   2.602   8.263 -0.0391 -0.0645  0.2223
  495loPI   C3A 7913   7.166   2.888   7.923  0.0606 -0.0703  0.0642
  495loPI   C4A 7914   7.154   2.988   7.455 -0.2043  0.3845 -0.1361
  495loPI   C5A 7915   7.087   3.041   7.036 -0.0759  0.0210  0.0945
  495loPI   C6A 7916   6.927   2.845   6.714  0.1971 -0.0915  0.1715
  495loPI   C1B 7917   7.090   3.118   8.477  0.1788  0.1131 -0.0861
  495loPI   C2B 7918   7.441   3.138   8.259 -0.0201 -0.1187  0.0361
  495loPI   C3B 7919   7.789   3.393   7.991  0.0527 -0.0711  0.0447
  495loPI   C4B 7920   7.868   3.515   7.661  0.1914  0.0107  0.1321
  496loPI    C1 7921   9.438   6.999   9.273 -0.0627 -0.1300 -0.1668
  496loPI    C2 7922   9.102   7.202   9.350 -0.0467 -0.1259 -0.1069
  496loPI    C3 7923   9.449   7.322   9.509 -0.0047 -0.0883 -0.2260
  496loPI   PO4 7924   9.555   6.904   9.060  0.1044 -0.1341 -0.0099
  496loPI   GL1 7925   9.365   7.034   8.660 -0.1335  0.1774 -0.0441
  496loPI   GL2 7926   9.120   7.177   8.837 -0.0281  0.2616  0.1533
  496loPI   C1A 7927   9.352   7.057   8.186  0.0566  0.1923 -0.3442
  496loPI   C2A 7928   9.504   7.169   7.870 -0.2990  0.2729 -0.0105
  496loPI   C3A 7929   9.653   7.213   7.470 -0.4642  0.2018  0.0730
  496loPI   C4A 7930   9.759   7.460   7.263  0.1125 -0.1321  0.0297
  496loPI   C5A 7931   9.969   7.811   7.362 -0.2223  0.1874  0.3602
  496loPI   C6A 7932  10.170   8.286   7.227  0.1138 -0.1280 -0.0852
  496loPI   C1B 7933   9.193   7.435   8.416  0.1813 -0.0334  0.2386
  496loPI   C2B 7934   9.300   7.588   8.027 -0.1136  0.2261  0.1936
  496loPI   C3B 7935   9.404   7.744   7.723  0.3391  0.1682  0.1752
  496loPI   C4B 7936   9.545   7.897   7.236  0.1503 -0.0326  0.1570
  497loPI    C1 7937   5.213   3.335   9.587 -0.2443 -0.4440 -0.3508
  497loPI    C2 7938   5.195   3.691   9.405  0.1756 -0.1037  0.2394
  497loPI    C3 7939   4.885   3.561   9.622  0.0231 -0.1005  0.0262
  497loPI   PO4 7940   5.311   3.111   9.419  0.0832 -0.0975 -0.2719
  497loPI   GL1 7941   5.408   2.971   9.063 -0.2906 -0.0072 -0.0620
  497loPI   GL2 7942   5.685   3.126   8.863 -0.0155 -0.1558 -0.0090
  497loPI   C1A 7943   5.379   2.735   8.588 -0.1963 -0.2809  0.0040
  497loPI   C2A 7944   5.300   2.656   8.138 -0.2043 -0.1756  0.0685
  497loPI   C3A 7945   5.293   2.622   7.682 -0.1295 -0.1442  0.1386
  497loPI   C4A 7946   5.442   2.268   7.448 -0.0521 -0.1433 -0.0446
  497loPI   C5A 7947   5.751   1.874   7.280 -0.1620  0.1539 -0.2132
  497loPI   C6A 7948   6.042   1.943   7.018  0.3206 -0.2593  0.1147
  497loPI   C1B 7949   5.386   3.228   8.572 -0.1347 -0.0374  0.0793
  497loPI   C2B 7950   4.925   3.324   8.503 -0.1634  0.0802  0.0265
  497loPI   C3B 7951   4.771   3.431   8.124 -0.0367 -0.1338  0.1147
  497loPI   C4B 7952   4.648   3.778   7.779 -0.1184  0.3225 -0.0025
  498loPI    C1 7953  14.202   0.002   9.409  0.1717 -0.1112 -0.1192
  498loPI    C2 7954  13.805  -0.031   9.439  0.1566  0.1857  0.0491
  498loPI    C3 7955  14.042  -0.279   9.645  0.0635 -0.1411 -0.2280
  498loPI   PO4 7956  14.234   0.063   9.157  0.0205  0.1908 -0.2975
  498loPI   GL1 7957  13.980   0.175   8.819 -0.1363 -0.0883  0.1067
  498loPI   GL2 7958  14.078  -0.182   8.680 -0.0136 -0.2610  0.1703
  498loPI   C1A 7959  13.679   0.107   8.453 -0.0044 -0.2330 -0.4496
  498loPI   C2A 7960  13.520  -0.012   8.007  0.1451  0.0064  0.1555
  498loPI   C3A 7961  13.532  -0.195   7.591  0.1265  0.2551 -0.2509
  498loPI   C4A 7962  13.306  -0.280   7.222 -0.1604 -0.2268 -0.0214
  498loPI   C5A 7963  12.837  -0.268   7.150 -0.0822  0.1354 -0.0897
  498loPI   C6A 7964  12.528  -0.585   7.323  0.1901 -0.1774 -0.1636
  498loPI   C1B 7965  13.916  -0.275   8.278 -0.0090 -0.2113 -0.1005
  498loPI   C2B 7966  14.013  -0.230   7.887  0.3120  0.1129 -0.0252
  498loPI   C3B 7967  14.111  -0.260   7.418 -0.2150 -0.1267  0.1202
  498loPI   C4B 7968  14.365  -0.578   7.129 -0.2599  0.1188  0.2780
  499loPI    C1 7969  14.391   3.264   9.169  0.0131 -0.1078  0.0236
  499loPI    C2 7970  14.178   3.110   9.471 -0.0757 -0.1027 -0.0362
  499loPI    C3 7971  14.545   3.253   9.538 -0.1852  0.1122  0.1155
  499loPI   PO4 7972  14.395   3.108   9.006 -0.2356  0.2637  0.0543
  499loPI   GL1 7973  14.124   2.968   8.802 -0.0272  0.1040 -0.2287
  499loPI   GL2 7974  13.874   2.745   8.677 -0.1606 -0.0640 -0.2855
  499loPI   C1A 7975  14.207   3.142   8.385  0.1164 -0.0431 -0.1109
  499loPI   C2A 7976  14.212   2.979   7.934  0.2427 -0.1581 -0.3185
  499loPI   C3A 7977  14.385   2.681   7.726 -0.1278 -0.1506  0.1340
  499loPI   C4A 7978  14.620   2.524   7.297 -0.1325  0.0215  0.0477
  499loPI   C5A 7979  14.555   2.150   7.052  0.2026 -0.0222 -0.2922
  499loPI   C6A 7980  14.275   1.866   6.715 -0.2264 -0.3514  0.2319
  499loPI   C1B 7981  13.736   2.790   8.219 -0.0288 -0.1391 -0.3221
  499loPI   C2B 7982  13.778   2.559   7.800 -0.0975 -0.1316 -0.3748
  499loPI   C3B 7983  13.747   2.647   7.394  0.1024 -0.1000 -0.1062
  499loPI   C4B 7984  13.709   2.775   7.014  0.0099  0.1602 -0.0104
  500loPI    C1 7985  10.990   7.216   9.204  0.2234 -0.2901  0.1560
  500loPI    C2 7986  11.130   7.326   9.562 -0.0857  0.0131  0.1886
  500loPI    C3 7987  10.921   7.585   9.341  0.1409 -0.1565 -0.2349
  500loPI   PO4 7988  11.211   7.104   9.052 -0.0855 -0.3176  0.1962
  500loPI   GL1 7989  11.211   7.337   8.648  0.0493  0.3333  0.0372
  500loPI   GL2 7990  11.487   7.321   8.603 -0.0682 -0.1317  0.1064
  500loPI   C1A 7991  11.433   7.803   8.355  0.1493 -0.2422  0.0597
  500loPI   C2A 7992  11.147   8.085   8.097 -0.2032  0.2668 -0.1422
  500loPI   C3A 7993  10.960   8.080   7.683  0.1469 -0.2493 -0.0222
  500loPI   C4A 7994  10.580   8.071   7.371 -0.0067 -0.3397 -0.1685
  500loPI   C5A 7995  10.629   8.129   6.964  0.0052 -0.1012  0.2537
  500loPI   C6A 7996  10.859   8.201   6.601  0.2294 -0.1699  0.0581
  500loPI   C1B 7997  11.473   7.426   8.058  0.1736  0.2879  0.0392
  500loPI   C2B 7998  11.351   7.176   7.727  0.1825 -0.2206  0.0794
  500loPI   C3B 7999  11.421   6.801   7.377 -0.0549 -0.0264  0.1204
  500loPI   C4B 8000  11.681   6.785   7.068 -0.0712  0.1357 -0.1480
  501loPI    C1 8001   0.685   4.950   9.629 -0.0510 -0.0851  0.1139
  501loPI    C2 8002   0.730   5.127   9.985  0.1832  0.1578 -0.0326
  501loPI    C3 8003   0.927   4.788   9.904 -0.1501 -0.0962  0.1949
  501loPI   PO4 8004   0.754   5.186   9.431  0.6442  0.0447 -0.0370
  501loPI   GL1 8005   0.538   5.260   9.128  0.0948 -0.1305  0.0057
  501loPI   GL2 8006   0.429   5.449   8.968  0.0436 -0.1945 -0.1848
  501loPI   C1A 8007   0.178   5.011   8.796 -0.1551 -0.3185  0.3163
  501loPI   C2A 8008  -0.103   4.720   8.574  0.0412 -0.2173 -0.3660
  501loPI   C3A 8009  -0.231   4.635   8.115 -0.2708  0.1396 -0.2705
  501loPI   C4A 8010  -0.216   4.561   7.650 -0.0864 -0.1754 -0.0515
  501loPI   C5A 8011  -0.041   4.255   7.327 -0.1933 -0.1397 -0.0235
  501loPI   C6A 8012   0.117   3.825   7.217 -0.1123  0.0052 -0.1288
  501loPI   C1B 8013   0.419   5.611   8.430  0.1140 -0.0721 -0.2498
  501loPI   C2B 8014   0.207   5.654   8.085  0.0417 -0.0813  0.2079
  501loPI   C3B 8015   0.219   5.543   7.672  0.1754  0.2347 -0.0434
  501loPI   C4B 8016   0.216   5.512   7.201 -0.2754  0.0435  0.0587
  502loPI    C1 8017   4.416   8.044   9.773  0.0590 -0.1864  0.0608
  502loPI    C2 8018   4.394   7.742   9.512 -0.2310 -0.2502  0.1557
  502loPI    C3 8019   4.291   7.684   9.894 -0.1237 -0.0739  0.2124
  502loPI   PO4 8020   4.486   8.207   9.626  0.1105 -0.3081  0.0118
  502loPI   GL1 8021   4.451   8.170   9.231  0.0001  0.0288 -0.0549
  502loPI   GL2 8022   4.621   7.891   9.087 -0.1508  0.0405  0.4836
  502loPI   C1A 8023   4.483   8.338   8.817  0.1481  0.1315 -0.0218
  502loPI   C2A 8024   4.546   8.364   8.395 -0.0041 -0.1495 -0.0700
  502loPI   C3A 8025   4.846   8.322   8.038 -0.1149  0.3591  0.3965
  502loPI   C4A 8026   5.005   8.394   7.625 -0.1831 -0.3397  0.0481
  502loPI   C5A 8027   5.139   8.135   7.347  0.0702  0.0018 -0.2220
  502loPI   C6A 8028   5.286   8.204   6.954 -0.0724  0.0409 -0.2162
  502loPI   C1B 8029   4.800   7.843   8.643 -0.0317 -0.3683 -0.3055
  502loPI   C2B 8030   5.155   7.830   8.387 -0.1053 -0.2174 -0.1060
  502loPI   C3B 8031   5.315   8.071   7.951 -0.2935  0.0847 -0.1330
  502loPI   C4B 8032   5.499   7.910   7.549  0.2081 -0.0127  0.1165
  503loPI    C1 8033  18.933   6.535   9.575 -0.0633  0.0366  0.0874
  503loPI    C2 8034  18.609   6.721   9.720 -0.0287 -0.0956  0.3403
  503loPI    C3 8035  18.875   6.558   9.971  0.1159 -0.1896  0.1288
  503loPI   PO4 8036  18.816   6.509   9.264 -0.0891  0.0190  0.3041
  503loPI   GL1 8037  18.793   6.192   8.981 -0.2274 -0.0451  0.0779
  503loPI   GL2 8038  18.961   5.813   9.005  0.1076  0.2720  0.1378
  503loPI   C1A 8039  18.633   6.208   8.611  0.1859 -0.0120  0.0236
  503loPI   C2A 8040  18.410   6.486   8.359  0.2581 -0.2997  0.1022
  503loPI   C3A 8041  18.372   6.802   8.019 -0.1157 -0.2172  0.0406
  503loPI   C4A 8042  18.194   7.044   7.719 -0.1176 -0.3269 -0.1114
  503loPI   C5A 8043  17.916   7.190   7.446  0.0037  0.2362  0.0562
  503loPI   C6A 8044  18.003   7.319   7.008  0.1040  0.0134  0.1737
  503loPI   C1B 8045  19.223   5.766   8.537  0.1039  0.0331 -0.0780
  503loPI   C2B 8046  19.213   5.723   8.111  0.1176 -0.0050 -0.0089
  503loPI   C3B 8047  19.228   5.882   7.604  0.1334  0.0635 -0.2649
  503loPI   C4B 8048  19.088   5.839   7.261  0.0586  0.3042  0.1254
  504loPI    C1 8049   9.837   8.911   9.534 -0.1855 -0.2345 -0.2232
  504loPI    C2 8050   9.473   9.044   9.631 -0.0255  0.1203 -0.0919
  504loPI    C3 8051   9.705   8.873   9.909 -0.0636 -0.0430 -0.1593
  504loPI   PO4 8052   9.872   8.966   9.251  0.1722  0.2911 -0.1621
  504loPI   GL1 8053   9.793   8.915   8.830 -0.1867  0.3089  0.0454
  504loPI   GL2 8054   9.998   9.261   8.860  0.2362  0.2505 -0.4310
  504loPI   C1A 8055   9.617   8.778   8.423  0.3458 -0.1945 -0.3822
  504loPI   C2A 8056   9.563   8.944   8.127  0.1247  0.0286  0.0571
  504loPI   C3A 8057   9.571   9.105   7.803 -0.0101 -0.0925  0.2680
  504loPI   C4A 8058   9.534   9.353   7.468 -0.0382  0.0756 -0.0532
  504loPI   C5A 8059   9.403   9.615   7.118 -0.3040  0.0047  0.1652
  504loPI   C6A 8060   9.145   9.724   6.719 -0.0779 -0.1424  0.1224
  504loPI   C1B 8061   9.994   9.486   8.465  0.0821 -0.2584  0.2636
  504loPI   C2B 8062   9.848   9.513   8.092 -0.0444 -0.3877 -0.0780
  504loPI   C3B 8063   9.797   9.623   7.807  0.3078  0.1183  0.0439
  504loPI   C4B 8064   9.673   9.889   7.489  0.1019 -0.1202  0.0041
  505loPI    C1 8065  12.784  10.992   9.873 -0.1074  0.3361  0.1541
  505loPI    C2 8066  13.115  10.780   9.946 -0.2205  0.1016 -0.0002
  505loPI    C3 8067  12.933  10.975  10.244 -0.1286 -0.0386  0.1496
  505loPI   PO4 8068  12.806  11.100   9.620  0.2797  0.1890  0.1949
  505loPI   GL1 8069  12.687  11.199   9.155 -0.1030 -0.1735 -0.1161
  505loPI   GL2 8070  13.079  11.236   9.023  0.1655  0.0649 -0.1276
  505loPI   C1A 8071  12.502  11.311   8.795  0.1356 -0.0068 -0.1665
  505loPI   C2A 8072  12.442  11.577   8.371 -0.5066 -0.0374  0.0228
  505loPI   C3A 8073  12.328  12.016   8.119 -0.1619  0.2900  0.0158
  505loPI   C4A 8074  12.302  12.198   7.751  0.2234  0.3168  0.0948
  505loPI   C5A 8075  12.323  12.250   7.272  0.2394 -0.0233  0.1833
  505loPI   C6A 8076  12.419  12.348   6.827  0.2251  0.3760  0.2671
  505loPI   C1B 8077  13.251  11.174   8.555 -0.0971 -0.1657 -0.2813
  505loPI   C2B 8078  13.394  11.020   8.173  0.1226 -0.1516 -0.2161
  505loPI   C3B 8079  13.264  10.974   7.868  0.3053  0.4664  0.0283
  505loPI   C4B 8080  12.975  11.004   7.530 -0.0609  0.2209  0.2021
  506loPI    C1 8081   9.007  15.687   9.423  0.0427  0.0948 -0.0445
  506loPI    C2 8082   8.872  15.425   9.693  0.1650  0.0905  0.0131
  506loPI    C3 8083   8.854  15.817   9.770  0.1770  0.0902  0.0170
  506loPI   PO4 8084   8.841  15.631   9.180 -0.0026 -0.2733 -0.3044
  506loPI   GL1 8085   8.778  15.983   8.835 -0.0810 -0.1887  0.1385
  506loPI   GL2 8086   8.823  16.201   8.933 -0.0499 -0.1126  0.1756
  506loPI   C1A 8087   8.866  16.047   8.442 -0.1033  0.2051  0.1412
  506loPI   C2A 8088   8.949  16.058   8.012  0.1850 -0.1996  0.0181
  506loPI   C3A 8089   9.130  16.035   7.600  0.0600 -0.2298 -0.1830
  506loPI   C4A 8090   9.196  15.523   7.504  0.0773  0.3318  0.0989
  506loPI   C5A 8091   8.872  15.260   7.498 -0.3172 -0.5104 -0.1987
  506loPI   C6A 8092   8.637  15.488   7.234 -0.2157 -0.0505 -0.0200
  506loPI   C1B 8093   8.722  16.477   8.577 -0.1250 -0.1941  0.1158
  506loPI   C2B 8094   8.585  16.484   8.188 -0.0065  0.4156 -0.3797
  506loPI   C3B 8095   8.645  16.515   7.806 -0.1313 -0.0065 -0.0966
  506loPI   C4B 8096   8.890  16.479   7.540 -0.2330  0.1316  0.0966
  507loPI    C1 8097   6.930  17.326   9.278 -0.0247 -0.0121 -0.1257
  507loPI    C2 8098   6.976  17.706   9.160 -0.0538  0.0048 -0.0823
  507loPI    C3 8099   6.686  17.481   9.001  0.1201 -0.0753 -0.2907
  507loPI   PO4 8100   7.095  17.301   9.492 -0.1229  0.1121  0.0166
  507loPI   GL1 8101   7.460  17.384   9.356  0.1970 -0.1525 -0.0387
  507loPI   GL2 8102   7.330  17.191   9.043  0.2427  0.0028 -0.1893
  507loPI   C1A 8103   7.433  17.676   9.061 -0.2443  0.1983  0.0063
  507loPI   C2A 8104   7.153  17.809   8.635 -0.2721  0.0477 -0.2111
  507loPI   C3A 8105   7.022  17.560   8.344  0.3538  0.2057  0.3566
  507loPI   C4A 8106   7.067  17.430   7.890  0.3536  0.3950 -0.1673
  507loPI   C5A 8107   7.031  17.609   7.551  0.4597  0.2068 -0.0420
  507loPI   C6A 8108   7.300  17.907   7.341  0.4443  0.0615 -0.0957
  507loPI   C1B 8109   7.157  17.350   8.771  0.2049 -0.0264 -0.0324
  507loPI   C2B 8110   7.170  17.011   8.541  0.2124 -0.2803  0.0973
  507loPI   C3B 8111   7.336  17.118   8.165  0.0096 -0.0755  0.4241
  507loPI   C4B 8112   7.493  16.884   7.794  0.0043  0.0310 -0.1782
  508loPI    C1 8113   1.559   6.290   9.528 -0.1729  0.0252 -0.0037
  508loPI    C2 8114   1.945   6.388   9.571 -0.1367 -0.0272 -0.2030
  508loPI    C3 8115   1.682   6.485   9.856  0.0733 -0.2524  0.0741
  508loPI   PO4 8116   1.489   6.392   9.305  0.1572 -0.1894  0.0890
  508loPI   GL1 8117   1.287   6.565   8.961  0.0738  0.2384  0.0914
  508loPI   GL2 8118   0.911   6.439   8.803  0.0011  0.1195  0.0518
  508loPI   C1A 8119   1.379   6.786   8.519  0.0376 -0.0570 -0.0472
  508loPI   C2A 8120   1.432   6.965   8.137  0.1563  0.0115  0.0947
  508loPI   C3A 8121   1.621   6.849   7.698  0.0588 -0.0966 -0.2601
  508loPI   C4A 8122   1.674   6.816   7.239  0.1000  0.0253 -0.1395
  508loPI   C5A 8123   1.757   6.954   6.741  0.0353 -0.3065 -0.0617
  508loPI   C6A 8124   1.555   7.174   6.292  0.1101  0.1283 -0.0753
  508loPI   C1B 8125   1.102   6.374   8.306 -0.3740 -0.1001 -0.4353
  508loPI   C2B 8126   1.475   6.484   8.028  0.2460  0.2658  0.3531
  508loPI   C3B 8127   1.606   6.340   7.547 -0.0475 -0.0936 -0.1056
  508loPI   C4B 8128   1.808   6.344   7.100  0.0616  0.1027  0.1210
  509loPI    C1 8129   3.283   7.914   9.631 -0.2420 -0.0233 -0.0663
  509loPI    C2 8130   3.239   8.097   9.984 -0.1758  0.0171 -0.0789
  509loPI    C3 8131   3.210   7.698   9.960  0.0419 -0.0051  0.0107
  509loPI   PO4 8132   3.453   7.956   9.491  0.0076 -0.0204  0.1441
  509loPI   GL1 8133   3.467   8.177   9.165 -0.1772 -0.0402 -0.0046
  509loPI   GL2 8134   3.575   7.978   9.016  0.1752  0.0735  0.0957
  509loPI   C1A 8135   3.494   8.467   8.816 -0.2708  0.3120  0.2045
  509loPI   C2A 8136   3.697   8.783   8.754  0.1025  0.0988 -0.0979
  509loPI   C3A 8137   3.790   8.899   8.426 -0.0113  0.0039 -0.0277
  509loPI   C4A 8138   3.797   8.808   8.037  0.2173 -0.1516  0.4632
  509loPI   C5A 8139   3.796   8.935   7.548  0.1177 -0.1584 -0.0001
  509loPI   C6A 8140   3.725   9.049   7.181 -0.0876  0.1201 -0.2701
  509loPI   C1B 8141   3.570   8.046   8.547  0.0152  0.2296 -0.3808
  509loPI   C2B 8142   3.644   7.994   8.041  0.1259 -0.0554  0.2890
  509loPI   C3B 8143   3.762   7.933   7.656  0.2306  0.2765  0.0613
  509loPI   C4B 8144   4.024   7.919   7.333  0.2507 -0.1920  0.0974
  510loPI    C1 8145  10.020  13.316   9.901 -0.1635 -0.0509 -0.0323
  510loPI    C2 8146  10.167  13.404  10.262  0.0658 -0.1280 -0.1052
  510loPI    C3 8147   9.799  13.252  10.228 -0.0294  0.0554  0.0803
  510loPI   PO4 8148  10.191  13.170   9.781  0.0941 -0.1590  0.2512
  510loPI   GL1 8149  10.286  12.856   9.384 -0.3297 -0.4675 -0.1137
  510loPI   GL2 8150  10.607  12.878   9.205 -0.1616 -0.1843 -0.1516
  510loPI   C1A 8151   9.931  12.782   9.217 -0.2693 -0.4887  0.3506
  510loPI   C2A 8152   9.821  12.582   8.836 -0.1935 -0.0830  0.1625
  510loPI   C3A 8153   9.460  12.547   8.533 -0.0092  0.0457  0.0208
  510loPI   C4A 8154   9.344  12.328   8.182 -0.0200 -0.2293  0.1360
  510loPI   C5A 8155   9.278  12.460   7.784  0.2398  0.0193 -0.3027
  510loPI   C6A 8156   9.162  12.208   7.365  0.1245 -0.0830 -0.1950
  510loPI   C1B 8157  10.614  13.065   8.753 -0.1875  0.1110  0.0965
  510loPI   C2B 8158  10.452  13.328   8.307 -0.1866 -0.3234 -0.1690
  510loPI   C3B 8159  10.397  13.343   7.832 -0.4383 -0.0524 -0.1388
  510loPI   C4B 8160  10.153  13.391   7.508  0.1170  0.2881 -0.1343
  511loPI    C1 8161   5.995  11.060  10.221  0.1968  0.0350  0.2274
  511loPI    C2 8162   6.060  10.857  10.559  0.0115  0.1272  0.3202
  511loPI    C3 8163   6.134  11.249  10.545  0.2482  0.0791  0.1797
  511loPI   PO4 8164   5.842  10.910   9.977  0.0276 -0.0734  0.1994
  511loPI   GL1 8165   5.839  10.686   9.563  0.3166  0.1485  0.0026
  511loPI   GL2 8166   5.895  11.073   9.403  0.0979  0.3922  0.0743
  511loPI   C1A 8167   5.622  10.629   9.120 -0.3014 -0.1144 -0.0581
  511loPI   C2A 8168   5.671  10.706   8.776 -0.0333  0.1263  0.0090
  511loPI   C3A 8169   5.655  10.637   8.342  0.0461 -0.1285 -0.2900
  511loPI   C4A 8170   5.500  10.621   7.954 -0.0664 -0.1522 -0.0436
  511loPI   C5A 8171   5.622  10.419   7.509  0.1852 -0.2046 -0.0485
  511loPI   C6A 8172   5.826  10.471   7.214  0.3494  0.0183 -0.1233
  511loPI   C1B 8173   5.870  11.109   8.937  0.3227 -0.2599  0.2343
  511loPI   C2B 8174   5.591  11.193   8.585  0.2369  0.0973 -0.0366
  511loPI   C3B 8175   5.575  11.120   8.164  0.0053 -0.2611  0.3485
  511loPI   C4B 8176   5.488  11.100   7.753  0.3840 -0.0480  0.0294
  512loPI    C1 8177  18.586  14.944   9.663 -0.0255 -0.2121  0.0973
  512loPI    C2 8178  18.198  14.979   9.751 -0.0058 -0.1577  0.1626
  512loPI    C3 8179  18.474  15.111  10.009  0.0548 -0.1249  0.0817
  512loPI   PO4 8180  18.548  14.938   9.378  0.3535 -0.1264  0.3946
  512loPI   GL1 8181  18.597  15.161   9.028 -0.1132  0.1354  0.2345
  512loPI   GL2 8182  18.741  15.040   8.757 -0.2458  0.2734 -0.0878
  512loPI   C1A 8183  18.349  15.360   8.661  0.1742  0.1778 -0.0563
  512loPI   C2A 8184  18.198  14.968   8.371  0.1167  0.3547 -0.0188
  512loPI   C3A 8185  18.488  14.813   7.933 -0.0299 -0.0342  0.0688
  512loPI   C4A 8186  18.364  14.817   7.521  0.1580  0.0565 -0.2582
  512loPI   C5A 8187  18.313  14.986   7.166 -0.0183 -0.1535  0.3274
  512loPI   C6A 8188  17.876  14.943   6.992  0.1980  0.0898  0.2954
  512loPI   C1B 8189  18.835  15.006   8.287 -0.3026 -0.1545  0.1210
  512loPI   C2B 8190  18.933  15.126   7.800 -0.1005 -0.0310  0.0257
  512loPI   C3B 8191  18.796  14.964   7.391  0.5155 -0.1781 -0.2023
  512loPI   C4B 8192  18.742  15.130   7.003 -0.0535 -0.4938  0.2451
  513loPI    C1 8193  15.337  18.456   9.520  0.0569 -0.0158 -0.0532
  513loPI    C2 8194  15.620  18.714   9.637 -0.0394  0.0798 -0.0299
  513loPI    C3 8195  15.517  18.409   9.875  0.0223  0.0624 -0.0252
  513loPI   PO4 8196  15.511  18.315   9.241  0.1608  0.0263 -0.0073
  513loPI   GL1 8197  15.507  18.337   8.871 -0.0697 -0.1457 -0.0205
  513loPI   GL2 8198  15.566  18.114   8.771  0.3751  0.1229  0.0344
  513loPI   C1A 8199  15.765  18.586   8.585 -0.2954 -0.0867  0.1786
  513loPI   C2A 8200  15.703  18.654   8.198 -0.0051  0.2335 -0.2692
  513loPI   C3A 8201  15.338  18.813   8.005  0.0632 -0.2325 -0.0110
  513loPI   C4A 8202  14.981  18.922   7.743 -0.1289 -0.5481  0.0360
  513loPI   C5A 8203  14.631  18.959   7.919  0.1941 -0.1562 -0.0939
  513loPI   C6A 8204  14.390  18.848   8.263 -0.0015  0.0463  0.0898
  513loPI   C1B 8205  15.771  18.108   8.486 -0.1531  0.1162 -0.0394
  513loPI   C2B 8206  15.855  18.146   8.035 -0.1818 -0.3437 -0.0719
  513loPI   C3B 8207  16.065  18.054   7.618 -0.1745  0.1754 -0.1556
  513loPI   C4B 8208  16.545  17.982   7.436 -0.3122 -0.0822 -0.2821
  514loPI    C1 8209   0.644  12.752   9.924 -0.0703 -0.0116  0.0022
  514loPI    C2 8210   0.784  12.382   9.980  0.1032  0.0989  0.3192
  514loPI    C3 8211   0.474  12.513  10.196  0.1417  0.1912  0.3189
  514loPI   PO4 8212   0.623  12.748   9.625 -0.1830  0.2305  0.1002
  514loPI   GL1 8213   0.735  12.428   9.323 -0.0037 -0.2503  0.2203
  514loPI   GL2 8214   0.427  12.375   9.355  0.1855  0.2079  0.2550
  514loPI   C1A 8215   0.575  12.531   8.946  0.3073  0.0660  0.0330
  514loPI   C2A 8216   0.466  12.511   8.532 -0.2031 -0.1813 -0.0220
  514loPI   C3A 8217   0.233  12.630   8.257 -0.2944  0.1085  0.0115
  514loPI   C4A 8218  -0.080  12.921   8.114 -0.3412 -0.0962 -0.2340
  514loPI   C5A 8219  -0.132  13.229   7.761  0.1064  0.5434  0.0132
  514loPI   C6A 8220  -0.100  12.968   7.372  0.1222 -0.2379  0.4190
  514loPI   C1B 8221   0.156  12.203   9.026 -0.4875  0.4161 -0.3199
  514loPI   C2B 8222   0.128  12.125   8.616  0.2231 -0.2506  0.0881
  514loPI   C3B 8223   0.186  12.127   8.230  0.2214  0.0587  0.2079
  514loPI   C4B 8224   0.579  12.242   7.992 -0.0970  0.2357 -0.3161
  515loPI    C1 8225   4.030   9.236  10.177 -0.1396  0.0223  0.1372
  515loPI    C2 8226   3.774   9.534  10.252  0.0453  0.2008  0.0637
  515loPI    C3 8227   3.848   9.260  10.533 -0.0147  0.3073  0.1845
  515loPI   PO4 8228   4.093   9.316   9.905 -0.2317 -0.2117 -0.0061
  515loPI   GL1 8229   4.314   9.669   9.833 -0.1132  0.1571  0.0762
  515loPI   GL2 8230   4.300   9.880   9.820 -0.3076 -0.1445  0.2530
  515loPI   C1A 8231   4.506   9.410   9.417 -0.3724  0.0238  0.3325
  515loPI   C2A 8232   4.406   9.225   9.017 -0.4050  0.0611  0.0571
  515loPI   C3A 8233   4.477   9.438   8.667 -0.1837 -0.1263 -0.0676
  515loPI   C4A 8234   4.451   9.818   8.523  0.0865 -0.2809 -0.3402
  515loPI   C5A 8235   4.612  10.153   8.368  0.0440  0.1878  0.0073
  515loPI   C6A 8236   4.707  10.116   7.911 -0.2183  0.5617 -0.0060
  515loPI   C1B 8237   4.242  10.045   9.365 -0.3041 -0.2513 -0.1456
  515loPI   C2B 8238   4.184  10.169   8.947 -0.0093  0.2103  0.2109
  515loPI   C3B 8239   4.286  10.496   8.773  0.0624  0.1637  0.3121
  515loPI   C4B 8240   4.160  10.783   8.521 -0.3377  0.0814  0.3962
  516loPI    C1 8241   4.383   6.079   9.644  0.1845  0.0750 -0.0050
  516loPI    C2 8242   4.671   6.231   9.875  0.2201  0.1250 -0.0818
  516loPI    C3 8243   4.492   5.889   9.978  0.2192  0.1594  0.0319
  516loPI   PO4 8244   4.387   6.253   9.360  0.1119 -0.0899 -0.0721
  516loPI   GL1 8245   4.709   6.362   8.996  0.0355  0.0260 -0.1874
  516loPI   GL2 8246   4.964   6.118   8.984 -0.0512 -0.1325  0.4527
  516loPI   C1A 8247   4.887   6.529   8.652 -0.1893  0.2097 -0.1575
  516loPI   C2A 8248   5.174   6.839   8.537  0.1327 -0.1933 -0.1857
  516loPI   C3A 8249   5.319   6.873   8.037 -0.0014  0.0622 -0.3598
  516loPI   C4A 8250   5.241   7.133   7.613 -0.0723 -0.2274 -0.2754
  516loPI   C5A 8251   5.114   7.574   7.443  0.3479 -0.3409  0.2946
  516loPI   C6A 8252   5.011   7.730   7.031  0.0244  0.2868  0.1740
  516loPI   C1B 8253   5.269   6.119   8.655 -0.1274 -0.1433  0.4610
  516loPI   C2B 8254   5.180   6.340   8.301 -0.2002  0.1661  0.0903
  516loPI   C3B 8255   4.925   6.632   8.096 -0.0498 -0.2089  0.2450
  516loPI   C4B 8256   4.924   6.810   7.757 -0.2973  0.0350 -0.1050
  517loPI    C1 8257   4.852   3.975   9.156  0.0279  0.1039  0.0242
  517loPI    C2 8258   4.765   4.018   9.544 -0.1403 -0.0364  0.0035
  517loPI    C3 8259   4.483   3.894   9.289  0.1095 -0.4697 -0.0720
  517loPI   PO4 8260   4.980   4.160   9.031  0.2887  0.1991  0.0583
  517loPI   GL1 8261   4.933   4.279   8.589 -0.4575  0.1290  0.1209
  517loPI   GL2 8262   4.856   3.945   8.292 -0.0940  0.1550  0.1134
  517loPI   C1A 8263   5.352   3.941   8.525 -0.0934 -0.5701 -0.0656
  517loPI   C2A 8264   5.762   4.091   8.361  0.2322 -0.1806  0.2501
  517loPI   C3A 8265   5.945   3.999   7.896 -0.0722  0.0577 -0.2191
  517loPI   C4A 8266   6.353   4.002   7.671  0.2313 -0.0188 -0.1636
  517loPI   C5A 8267   6.651   4.020   7.315 -0.1857  0.0518  0.2656
  517loPI   C6A 8268   7.077   3.979   7.128  0.1553  0.0869  0.2511
  517loPI   C1B 8269   4.922   4.199   7.949  0.0548  0.0144 -0.0318
  517loPI   C2B 8270   4.570   4.280   7.659  0.2521 -0.0923  0.0324
  517loPI   C3B 8271   4.459   4.566   7.383 -0.2345 -0.1114  0.0057
  517loPI   C4B 8272   4.507   4.983   7.292  0.3288 -0.2240 -0.0327
  518loPI    C1 8273   6.596   1.768   9.396  0.1139 -0.2168 -0.1254
  518loPI    C2 8274   6.989   1.733   9.465  0.0411 -0.6499  0.1063
  518loPI    C3 8275   6.727   1.657   9.758 -0.2157 -0.1588  0.0149
  518loPI   PO4 8276   6.583   1.702   9.178  0.3042 -0.0788  0.1459
  518loPI   GL1 8277   6.815   1.481   8.990 -0.0297  0.0176  0.2386
  518loPI   GL2 8278   7.162   1.574   8.983 -0.1454  0.0096  0.1463
  518loPI   C1A 8279   6.708   1.395   8.499  0.2414  0.0759  0.0119
  518loPI   C2A 8280   6.667   1.560   8.114  0.1879  0.2479 -0.1009
  518loPI   C3A 8281   6.710   1.525   7.721 -0.1535  0.0865  0.1786
  518loPI   C4A 8282   6.966   1.511   7.263  0.2053  0.1258 -0.0942
  518loPI   C5A 8283   7.363   1.516   6.918  0.1425  0.1350 -0.0800
  518loPI   C6A 8284   7.750   1.693   6.722 -0.0599 -0.2823  0.1205
  518loPI   C1B 8285   7.186   1.496   8.581  0.1210  0.0914  0.2946
  518loPI   C2B 8286   7.227   1.539   8.195  0.1275  0.0638 -0.2928
  518loPI   C3B 8287   7.224   1.625   7.811 -0.1724 -0.3346  0.1182
  518loPI   C4B 8288   7.444   1.745   7.422 -0.2685 -0.4273 -0.3115
  519loPI    C1 8289  10.205  16.672   9.499  0.2307  0.0567 -0.0357
  519loPI    C2 8290  10.239  16.397   9.788 -0.2665  0.1330  0.1043
  519loPI    C3 8291  10.016  16.321   9.464  0.0166  0.1772 -0.1048
  519loPI   PO4 8292  10.419  16.770   9.344  0.0569 -0.0048  0.0564
  519loPI   GL1 8293  10.631  16.936   8.953 -0.0348 -0.0431 -0.0693
  519loPI   GL2 8294  10.387  16.736   8.851  0.2349  0.0515  0.0970
  519loPI   C1A 8295  10.777  16.925   8.598  0.1976 -0.0771 -0.1563
  519loPI   C2A 8296  10.710  17.061   8.230 -0.0078  0.1972 -0.2007
  519loPI   C3A 8297  10.800  17.178   7.891  0.0592 -0.1707  0.0264
  519loPI   C4A 8298  11.061  17.216   7.517  0.1663  0.0457  0.3022
  519loPI   C5A 8299  11.573  17.122   7.628 -0.0424  0.1562 -0.2574
  519loPI   C6A 8300  11.801  17.183   8.100  0.1146  0.1566 -0.1386
  519loPI   C1B 8301  10.305  17.097   8.542  0.1287 -0.2263 -0.1333
  519loPI   C2B 8302   9.877  17.268   8.374 -0.1041  0.0692 -0.3433
  519loPI   C3B 8303   9.674  17.370   7.919 -0.0337  0.1424  0.1072
  519loPI   C4B 8304   9.257  17.525   7.645  0.1247  0.1196 -0.2116
  520loPI    C1 8305   4.154   1.080   9.962 -0.0927 -0.1865  0.2912
  520loPI    C2 8306   4.093   0.690   9.894 -0.0914 -0.1492  0.0675
  520loPI    C3 8307   3.782   0.941   9.916 -0.0645 -0.0621 -0.4337
  520loPI   PO4 8308   4.318   1.171   9.714 -0.0269 -0.0442  0.2067
  520loPI   GL1 8309   4.233   1.269   9.336  0.1868  0.4479 -0.0776
  520loPI   GL2 8310   4.604   1.248   9.287  0.4288 -0.2825 -0.0935
  520loPI   C1A 8311   4.338   0.996   8.961  0.0068 -0.0239  0.0329
  520loPI   C2A 8312   4.399   0.987   8.458 -0.1215  0.1747  0.0831
  520loPI   C3A 8313   4.500   1.135   7.982  0.1333  0.1571 -0.1931
  520loPI   C4A 8314   4.715   1.258   7.564  0.0922 -0.3533  0.3298
  520loPI   C5A 8315   5.125   1.321   7.272  0.2356  0.2156  0.2097
  520loPI   C6A 8316   5.503   1.306   7.297 -0.1475 -0.3167  0.0435
  520loPI   C1B 8317   4.739   1.426   8.897 -0.0161 -0.1317 -0.2354
  520loPI   C2B 8318   4.887   1.267   8.540 -0.0200  0.0190  0.3112
  520loPI   C3B 8319   5.030   1.181   8.018  0.2348  0.2523  0.5030
  520loPI   C4B 8320   5.246   1.068   7.700 -0.3815  0.0912 -0.0779
  521loPI    C1 8321   7.915   3.584   9.024 -0.0930  0.2201 -0.0567
  521loPI    C2 8322   7.774   3.421   9.361  0.0565 -0.2516 -0.2152
  521loPI    C3 8323   7.527   3.493   9.054  0.0246 -0.3765 -0.2194
  521loPI   PO4 8324   8.135   3.427   8.917  0.2964 -0.0247 -0.6789
  521loPI   GL1 8325   8.216   3.438   8.525 -0.0718  0.3490 -0.0620
  521loPI   GL2 8326   8.162   3.730   8.565 -0.0964 -0.1679  0.1660
  521loPI   C1A 8327   8.326   3.410   8.088 -0.1261 -0.0761 -0.0151
  521loPI   C2A 8328   8.335   3.305   7.587  0.0710  0.2351 -0.0458
  521loPI   C3A 8329   8.558   3.566   7.332  0.3676  0.0734  0.1992
  521loPI   C4A 8330   8.580   3.853   6.968  0.0724  0.1913  0.0541
  521loPI   C5A 8331   8.665   4.161   6.592 -0.0635 -0.1128 -0.1298
  521loPI   C6A 8332   8.934   4.086   6.231 -0.0195 -0.3683 -0.6234
  521loPI   C1B 8333   8.008   3.851   8.181  0.0700  0.3208 -0.0256
  521loPI   C2B 8334   7.869   3.992   7.839  0.0807 -0.0989  0.1225
  521loPI   C3B 8335   7.761   4.375   7.557  0.0478 -0.0797 -0.2629
  521loPI   C4B 8336   7.420   4.675   7.352  0.2640  0.0973  0.3511
  522loPI    C1 8337  19.583   4.453   9.510  0.0295  0.1950 -0.1952
  522loPI    C2 8338  19.316   4.155   9.502  0.0965  0.1383 -0.3942
  522loPI    C3 8339  19.415   4.326   9.850 -0.0183 -0.0024 -0.2909
  522loPI   PO4 8340  19.650   4.413   9.172  0.0149  0.1263  0.1987
  522loPI   GL1 8341  19.222   4.386   8.893 -0.2423  0.1267  0.0304
  522loPI   GL2 8342  18.843   4.459   8.615 -0.1847 -0.0021 -0.1850
  522loPI   C1A 8343  19.251   4.183   8.572  0.0408  0.5165 -0.1702
  522loPI   C2A 8344  19.314   3.805   8.328  0.1660 -0.2411  0.1644
  522loPI   C3A 8345  19.381   3.610   7.826 -0.0692  0.1122 -0.2235
  522loPI   C4A 8346  19.487   3.856   7.406  0.1417  0.1297  0.5525
  522loPI   C5A 8347  19.447   3.931   6.887  0.2798 -0.0307 -0.3998
  522loPI   C6A 8348  19.308   3.606   6.677 -0.2712  0.1313 -0.0541
  522loPI   C1B 8349  18.807   4.043   8.481 -0.0521  0.0521  0.1109
  522loPI   C2B 8350  18.887   3.945   8.112 -0.1960  0.0380  0.0870
  522loPI   C3B 8351  18.656   4.175   7.693 -0.2633 -0.0570  0.4546
  522loPI   C4B 8352  18.646   4.527   7.551 -0.1766 -0.0573 -0.0012
  523loPI    C1 8353   3.223   9.188   9.587 -0.0319 -0.1830  0.2792
  523loPI    C2 8354   2.947   9.225   9.300  0.0649  0.0170  0.2100
  523loPI    C3 8355   2.873   9.362   9.668  0.0142 -0.0671  0.2315
  523loPI   PO4 8356   3.251   8.897   9.613 -0.1565 -0.2567 -0.0593
  523loPI   GL1 8357   3.488   8.771   9.235 -0.3181  0.0957  0.1964
  523loPI   GL2 8358   3.837   8.670   9.217  0.0499 -0.1362 -0.2604
  523loPI   C1A 8359   3.292   9.076   9.013 -0.0804 -0.1098  0.0651
  523loPI   C2A 8360   3.309   9.126   8.603 -0.2133  0.0688 -0.3775
  523loPI   C3A 8361   3.398   9.133   8.188  0.1862 -0.0493  0.0349
  523loPI   C4A 8362   3.316   8.876   7.782  0.1082 -0.0746 -0.1273
  523loPI   C5A 8363   3.190   8.723   7.448 -0.2414  0.1438  0.0740
  523loPI   C6A 8364   3.123   8.371   7.245 -0.0649 -0.2779 -0.1095
  523loPI   C1B 8365   3.972   8.299   8.990 -0.0356  0.0487 -0.0813
  523loPI   C2B 8366   4.038   8.405   8.585 -0.0753 -0.1488 -0.1668
  523loPI   C3B 8367   4.021   8.381   8.104 -0.1426 -0.1751  0.1563
  523loPI   C4B 8368   4.058   8.459   7.702 -0.0606 -0.0887  0.1101
  524loPI    C1 8369  15.213   7.685   9.410 -0.1586  0.1480 -0.1708
  524loPI    C2 8370  15.093   7.885   9.085  0.1133  0.2536 -0.2094
  524loPI    C3 8371  15.483   7.851   9.166  0.0671 -0.1561 -0.1348
  524loPI   PO4 8372  15.123   7.354   9.445 -0.0100  0.1669  0.1655
  524loPI   GL1 8373  15.121   7.128   9.050  0.0081  0.2471  0.2162
  524loPI   GL2 8374  15.051   7.055   8.692  0.2720 -0.1202  0.0284
  524loPI   C1A 8375  15.212   7.529   8.847 -0.0681  0.3161  0.3434
  524loPI   C2A 8376  15.113   7.484   8.421  0.0412  0.2631 -0.0007
  524loPI   C3A 8377  15.453   7.754   8.177  0.4307  0.4062 -0.0843
  524loPI   C4A 8378  15.666   7.787   7.737 -0.1718  0.1882 -0.0998
  524loPI   C5A 8379  15.740   7.635   7.343 -0.0805  0.0145  0.1876
  524loPI   C6A 8380  15.728   7.298   7.133  0.0804  0.2268  0.0199
  524loPI   C1B 8381  15.115   6.927   8.174 -0.0343  0.1579  0.2840
  524loPI   C2B 8382  15.109   7.023   7.806  0.3566  0.1035 -0.2905
  524loPI   C3B 8383  14.621   6.845   7.836  0.1288  0.1893 -0.2509
  524loPI   C4B 8384  14.305   6.600   8.055  0.1964 -0.0927 -0.0458
  525loPI    C1 8385   1.409   1.927   9.224 -0.0104  0.0144  0.1041
  525loPI    C2 8386   1.807   1.957   9.248 -0.0142 -0.0234  0.2183
  525loPI    C3 8387   1.640   1.639   9.071  0.0076  0.0453  0.0726
  525loPI   PO4 8388   1.371   2.122   9.198  0.1614 -0.1376 -0.2644
  525loPI   GL1 8389   1.363   2.311   8.750 -0.0369 -0.0525  0.0763
  525loPI   GL2 8390   1.341   1.983   8.707  0.0468  0.0413 -0.1442
  525loPI   C1A 8391   1.364   2.267   8.322 -0.0864 -0.3041 -0.1793
  525loPI   C2A 8392   1.452   2.130   7.960  0.0190 -0.0493 -0.1217
  525loPI   C3A 8393   1.383   2.222   7.588 -0.0645  0.3175  0.2009
  525loPI   C4A 8394   1.218   2.164   7.264 -0.0585  0.1523 -0.0806
  525loPI   C5A 8395   0.926   1.928   7.024  0.1165 -0.0723 -0.1849
  525loPI   C6A 8396   0.868   1.550   7.045  0.1399 -0.1004  0.1448
  525loPI   C1B 8397   1.258   1.783   8.237 -0.2182  0.4583  0.2600
  525loPI   C2B 8398   1.380   1.606   7.863  0.0178 -0.2870  0.0050
  525loPI   C3B 8399   1.730   1.655   7.655  0.0130  0.0126  0.1803
  525loPI   C4B 8400   2.071   1.538   7.264  0.0821  0.0709 -0.1840
  526loPI    C1 8401  12.221   2.145   9.202  0.0445 -0.1726  0.0014
  526loPI    C2 8402  12.034   1.933   8.920 -0.2083  0.0967 -0.0393
  526loPI    C3 8403  11.843   2.027   9.258  0.0138 -0.0209  0.1217
  526loPI   PO4 8404  12.388   2.384   9.009 -0.4286 -0.1961 -0.1085
  526loPI   GL1 8405  12.483   2.402   8.692  0.0341 -0.1705 -0.1509
  526loPI   GL2 8406  12.550   2.819   8.731 -0.1736 -0.3197  0.0913
  526loPI   C1A 8407  12.442   2.310   8.346 -0.1688  0.3681 -0.1809
  526loPI   C2A 8408  12.435   2.215   7.962  0.2571 -0.4869  0.1578
  526loPI   C3A 8409  12.367   2.162   7.517  0.0748  0.0157  0.0877
  526loPI   C4A 8410  12.208   1.963   7.028 -0.3391 -0.1434  0.0214
  526loPI   C5A 8411  12.248   1.521   6.814 -0.2382 -0.0621 -0.2935
  526loPI   C6A 8412  12.661   1.391   6.838 -0.1562  0.0067 -0.1520
  526loPI   C1B 8413  12.551   3.036   8.250 -0.2398  0.0242 -0.0744
  526loPI   C2B 8414  12.593   3.129   7.836  0.1198 -0.0196  0.1615
  526loPI   C3B 8415  12.370   3.314   7.445 -0.0225 -0.0982 -0.0169
  526loPI   C4B 8416  12.338   3.758   7.497 -0.0700 -0.1255  0.0405
  527loPI    C1 8417  10.928   8.571   9.527  0.0932  0.0041  0.0214
  527loPI    C2 8418  10.706   8.357   9.783  0.0626 -0.1635 -0.1432
  527loPI    C3 8419  11.105   8.327   9.791  0.0533 -0.3349 -0.2574
  527loPI   PO4 8420  10.683   8.689   9.320 -0.3126 -0.1584  0.0341
  527loPI   GL1 8421  10.317   8.609   9.111 -0.2557  0.0995 -0.1322
  527loPI   GL2 8422  10.380   8.301   8.787  0.0800 -0.1001 -0.0090
  527loPI   C1A 8423  10.261   8.813   8.730  0.0396 -0.0523  0.1112
  527loPI   C2A 8424  10.103   8.889   8.385 -0.1860  0.1861 -0.1083
  527loPI   C3A 8425  10.221   8.687   7.933 -0.1811  0.1041  0.0449
  527loPI   C4A 8426  10.317   8.646   7.452 -0.4093 -0.1192 -0.0282
  527loPI   C5A 8427  10.509   8.609   6.998  0.0460 -0.0686  0.0105
  527loPI   C6A 8428  10.742   8.692   6.590  0.1473 -0.1458 -0.3524
  527loPI   C1B 8429  10.594   8.129   8.553  0.0327 -0.1721 -0.1409
  527loPI   C2B 8430  10.628   7.972   8.130 -0.1430 -0.0811  0.0691
  527loPI   C3B 8431  10.397   7.744   7.844  0.0777 -0.1811  0.0983
  527loPI   C4B 8432  10.285   7.452   7.637  0.2545 -0.0107 -0.0595
  528loPI    C1 8433   1.138   0.246   9.508  0.2719 -0.1986  0.0126
  528loPI    C2 8434   1.068   0.238   9.901 -0.0831  0.0026 -0.0427
  528loPI    C3 8435   1.212   0.570   9.730  0.1855 -0.1241 -0.0664
  528loPI   PO4 8436   0.992  -0.013   9.411 -0.3630 -0.1195 -0.1151
  528loPI   GL1 8437   0.983  -0.119   9.063  0.1830 -0.1087 -0.1381
  528loPI   GL2 8438   0.726  -0.312   9.114  0.0187  0.0251 -0.2165
  528loPI   C1A 8439   0.833  -0.168   8.650 -0.1176  0.0841 -0.3758
  528loPI   C2A 8440   0.717  -0.248   8.202  0.1421 -0.1623 -0.1065
  528loPI   C3A 8441   0.368  -0.108   7.951 -0.3397 -0.0245 -0.2617
  528loPI   C4A 8442   0.485   0.199   7.599  0.3424  0.1792 -0.2073
  528loPI   C5A 8443   0.496   0.559   7.340 -0.4550 -0.0027  0.0072
  528loPI   C6A 8444   0.203   0.669   6.941 -0.0163 -0.2555 -0.3356
  528loPI   C1B 8445   0.331  -0.246   8.862  0.0662 -0.3809 -0.2948
  528loPI   C2B 8446   0.209  -0.115   8.427  0.0106  0.2694 -0.1182
  528loPI   C3B 8447  -0.083  -0.208   8.189  0.0118  0.2977  0.0778
  528loPI   C4B 8448  -0.343  -0.401   7.899  0.1608  0.3656  0.0742
  529loPI    C1 8449   2.765  10.236   9.795 -0.0664  0.0085  0.0572
  529loPI    C2 8450   2.804   9.839   9.826  0.0821  0.0210  0.0348
  529loPI    C3 8451   2.621  10.045  10.116  0.4029 -0.0097  0.2640
  529loPI   PO4 8452   2.970  10.264   9.529 -0.1626  0.0052 -0.0989
  529loPI   GL1 8453   3.229  10.181   9.198 -0.1357  0.2397 -0.1771
  529loPI   GL2 8454   2.822  10.130   9.095 -0.0850 -0.1068  0.0115
  529loPI   C1A 8455   3.342  10.047   8.854 -0.4539  0.0154  0.0038
  529loPI   C2A 8456   3.504   9.847   8.511 -0.1099 -0.1447  0.0257
  529loPI   C3A 8457   3.453   9.720   8.061 -0.1121 -0.0555 -0.0574
  529loPI   C4A 8458   3.245   9.412   7.801 -0.2497  0.1610 -0.0219
  529loPI   C5A 8459   3.321   9.255   7.368  0.0734 -0.0062  0.2250
  529loPI   C6A 8460   3.221   9.006   7.074  0.0776 -0.2157  0.3510
  529loPI   C1B 8461   2.874  10.186   8.681  0.0920 -0.0692  0.4088
  529loPI   C2B 8462   3.004  10.035   8.339 -0.0133 -0.4037  0.2182
  529loPI   C3B 8463   2.935   9.896   7.926  0.1194 -0.0905  0.1235
  529loPI   C4B 8464   2.838   9.947   7.541 -0.1469  0.0838 -0.4551
  530loPI    C1 8465  11.393   6.640   9.170 -0.1020  0.0191  0.0425
  530loPI    C2 8466  11.426   6.438   9.513 -0.1017 -0.1793 -0.0726
  530loPI    C3 8467  11.196   6.764   9.495 -0.0440 -0.1254  0.1340
  530loPI   PO4 8468  11.359   6.420   8.978 -0.0424  0.1345 -0.2023
  530loPI   GL1 8469  11.258   6.523   8.485  0.2025 -0.2232 -0.0293
  530loPI   GL2 8470  11.215   6.829   8.587  0.1847  0.0623 -0.0105
  530loPI   C1A 8471  11.478   6.291   8.172  0.3152 -0.1903 -0.1140
  530loPI   C2A 8472  11.641   5.955   8.016 -0.0952  0.0383  0.2715
  530loPI   C3A 8473  11.687   5.760   7.658 -0.1230 -0.1749  0.1911
  530loPI   C4A 8474  11.836   5.466   7.432 -0.0220  0.0826 -0.0054
  530loPI   C5A 8475  12.026   5.123   7.132 -0.2168 -0.3868  0.0957
  530loPI   C6A 8476  12.282   4.764   7.262 -0.0938 -0.1927 -0.1296
  530loPI   C1B 8477  11.244   6.923   8.193 -0.2279  0.0963 -0.0657
  530loPI   C2B 8478  11.416   6.664   7.812 -0.2539 -0.4552  0.0886
  530loPI   C3B 8479  11.277   6.286   7.685  0.0022  0.0209 -0.1335
  530loPI   C4B 8480  10.889   6.095   7.564 -0.1899  0.1108  0.0455
  531loPI    C1 8481  11.946   5.702   9.582 -0.0735 -0.1262  0.3413
  531loPI    C2 8482  11.868   6.042   9.778 -0.3927  0.1089 -0.1683
  531loPI    C3 8483  11.655   5.713   9.857 -0.1832  0.0600  0.2210
  531loPI   PO4 8484  12.031   5.679   9.341 -0.2667  0.0335  0.1189
  531loPI   GL1 8485  12.192   5.780   8.983  0.1606  0.2738  0.0467
  531loPI   GL2 8486  12.067   6.039   8.913 -0.1563 -0.2188  0.1815
  531loPI   C1A 8487  12.241   5.597   8.616 -0.4248  0.3090 -0.0281
  531loPI   C2A 8488  12.397   5.380   8.288 -0.5195  0.0948  0.0065
  531loPI   C3A 8489  12.373   5.031   8.053  0.7291 -0.1244  0.0476
  531loPI   C4A 8490  12.270   4.642   7.971  0.3063 -0.2388 -0.0222
  531loPI   C5A 8491  12.416   4.268   7.720  0.0345  0.1230 -0.1801
  531loPI   C6A 8492  12.676   4.309   7.320 -0.0542  0.0905 -0.0519
  531loPI   C1B 8493  11.801   5.837   8.522  0.1438  0.0744 -0.1891
  531loPI   C2B 8494  11.958   5.647   8.179  0.1261 -0.1269  0.0315
  531loPI   C3B 8495  12.077   5.358   7.883 -0.0375  0.2203  0.0816
  531loPI   C4B 8496  12.009   4.966   7.637  0.0019 -0.0138  0.1831
  532loPI    C1 8497   0.435  19.151   9.827  0.0188  0.0767  0.0227
  532loPI    C2 8498   0.615  19.451  10.021  0.1347 -0.1034  0.1987
  532loPI    C3 8499   0.586  19.091  10.193 -0.1339 -0.1557  0.0503
  532loPI   PO4 8500   0.603  19.172   9.552  0.0576 -0.3263  0.1338
  532loPI   GL1 8501   0.439  19.164   9.095 -0.1822  0.1274 -0.1441
  532loPI   GL2 8502   0.846  19.152   8.908  0.0370 -0.3303 -0.1564
  532loPI   C1A 8503   0.025  19.203   8.852 -0.1401  0.0073  0.2528
  532loPI   C2A 8504  -0.017  19.203   8.406  0.2012  0.0543  0.0672
  532loPI   C3A 8505  -0.100  19.028   8.019  0.1307  0.0273  0.1132
  532loPI   C4A 8506  -0.084  19.018   7.575  0.0112  0.0745 -0.0337
  532loPI   C5A 8507  -0.304  19.302   7.302  0.2486  0.0413  0.2572
  532loPI   C6A 8508  -0.605  19.403   7.152  0.0363  0.0625 -0.1281
  532loPI   C1B 8509   0.519  19.284   8.544 -0.3301 -0.0352  0.1149
  532loPI   C2B 8510   0.373  19.225   8.015  0.0041 -0.1787  0.2651
  532loPI   C3B 8511   0.194  19.400   7.742  0.0702  0.5034  0.2435
  532loPI   C4B 8512   0.104  19.506   7.264 -0.1955  0.1248 -0.1367
  533loPI    C1 8513   4.386   3.730   8.836 -0.0412  0.0362 -0.3276
  533loPI    C2 8514   4.441   3.642   8.449  0.3183 -0.1087 -0.2484
  533loPI    C3 8515   4.757   3.688   8.690  0.0964 -0.0664  0.0402
  533loPI   PO4 8516   4.309   3.563   8.961 -0.2192  0.3691  0.0236
  533loPI   GL1 8517   4.326   3.148   8.935 -0.0703 -0.3089 -0.0313
  533loPI   GL2 8518   4.527   3.156   8.681  0.3389 -0.1212 -0.1987
  533loPI   C1A 8519   4.149   2.813   8.686  0.3377  0.1596  0.2349
  533loPI   C2A 8520   4.389   2.483   8.325 -0.0762  0.1678 -0.0861
  533loPI   C3A 8521   4.568   2.572   8.051 -0.0510 -0.2374  0.0434
  533loPI   C4A 8522   4.882   2.500   7.866  0.2534 -0.1441 -0.2284
  533loPI   C5A 8523   5.097   2.026   7.654  0.2284  0.3682  0.4772
  533loPI   C6A 8524   5.264   1.769   7.295  0.0341 -0.0863 -0.0658
  533loPI   C1B 8525   4.335   3.116   8.326 -0.2446  0.1738 -0.1470
  533loPI   C2B 8526   4.433   3.031   7.879  0.1092  0.3444 -0.0827
  533loPI   C3B 8527   4.695   2.802   7.446  0.1091  0.0867 -0.2514
  533loPI   C4B 8528   5.145   3.037   7.341  0.2042 -0.2635 -0.0532
  534loPI    C1 8529   6.223  18.542   9.901  0.1750  0.0641 -0.2081
  534loPI    C2 8530   6.117  18.442  10.274  0.1415 -0.0024 -0.2353
  534loPI    C3 8531   6.504  18.483  10.180  0.1552 -0.0987 -0.2219
  534loPI   PO4 8532   6.206  18.478   9.661  0.0055  0.0080  0.3757
  534loPI   GL1 8533   6.403  18.432   9.282  0.0794  0.2092 -0.3059
  534loPI   GL2 8534   6.095  18.558   9.188  0.0682 -0.1834 -0.5182
  534loPI   C1A 8535   6.521  18.664   8.901  0.1024  0.0794  0.0298
  534loPI   C2A 8536   6.455  18.763   8.447  0.3010  0.1718 -0.0689
  534loPI   C3A 8537   6.433  18.868   8.000 -0.1197  0.1491 -0.1018
  534loPI   C4A 8538   6.363  19.021   7.643 -0.1432  0.0320  0.0890
  534loPI   C5A 8539   6.219  19.018   7.240 -0.1405  0.0872 -0.1640
  534loPI   C6A 8540   6.366  18.842   6.818  0.0272 -0.0364  0.0489
  534loPI   C1B 8541   5.988  18.739   8.702  0.0939  0.1125 -0.2791
  534loPI   C2B 8542   6.082  19.036   8.356 -0.1389 -0.0012 -0.1867
  534loPI   C3B 8543   6.307  19.356   8.046  0.0697 -0.3594 -0.0093
  534loPI   C4B 8544   6.468  19.509   7.652  0.2487 -0.2843 -0.1765
  535loPI    C1 8545  16.541  14.000   9.099  0.3981  0.0850  0.0052
  535loPI    C2 8546  16.441  13.696   9.340  0.0009  0.1136 -0.1166
  535loPI    C3 8547  16.491  14.063   9.491 -0.1480  0.1116 -0.0611
  535loPI   PO4 8548  16.339  13.957   8.891 -0.4649  0.2026 -0.0955
  535loPI   GL1 8549  16.273  13.758   8.590  0.0137 -0.0991 -0.0815
  535loPI   GL2 8550  16.547  13.657   8.491  0.2713 -0.1622  0.2771
  535loPI   C1A 8551  16.223  13.326   8.302  0.0883 -0.1227  0.1010
  535loPI   C2A 8552  15.934  13.142   8.036  0.0870 -0.2380 -0.1103
  535loPI   C3A 8553  15.675  12.979   7.779 -0.1116  0.0294  0.2129
  535loPI   C4A 8554  15.415  12.612   7.828 -0.1035 -0.1447  0.2358
  535loPI   C5A 8555  15.117  12.477   7.981  0.0769 -0.0429  0.0396
  535loPI   C6A 8556  14.843  12.474   8.455  0.1069 -0.1420  0.1139
  535loPI   C1B 8557  16.802  13.853   8.157 -0.3119 -0.2929 -0.0037
  535loPI   C2B 8558  17.327  13.796   7.948  0.0484 -0.1086 -0.0842
  535loPI   C3B 8559  17.398  14.101   7.764 -0.0965 -0.1332  0.2060
  535loPI   C4B 8560  17.693  14.358   7.614 -0.1560 -0.0910  0.0951
  536loPI    C1 8561  11.248  12.505   9.539  0.1269 -0.1892  0.0944
  536loPI    C2 8562  11.560  12.742   9.618  0.1800 -0.1294 -0.2773
  536loPI    C3 8563  11.546  12.373   9.771  0.2789 -0.0226 -0.0036
  536loPI   PO4 8564  11.074  12.741   9.417  0.1749 -0.1058  0.1791
  536loPI   GL1 8565  11.244  12.822   9.065  0.1450  0.0360  0.2056
  536loPI   GL2 8566  11.527  12.870   9.093 -0.0700 -0.2192  0.1066
  536loPI   C1A 8567  11.467  12.474   8.794  0.2798  0.1052 -0.0309
  536loPI   C2A 8568  11.796  12.616   8.624 -0.2109 -0.0200  0.2560
  536loPI   C3A 8569  12.240  12.756   8.487 -0.0551  0.1109 -0.1256
  536loPI   C4A 8570  12.114  12.869   8.074 -0.0965 -0.0622  0.1556
  536loPI   C5A 8571  11.977  12.850   7.647  0.2563 -0.2787 -0.0619
  536loPI   C6A 8572  11.661  12.567   7.509 -0.0318  0.0309 -0.3333
  536loPI   C1B 8573  11.596  13.053   8.778 -0.0201 -0.3800  0.1568
  536loPI   C2B 8574  11.594  13.203   8.360  0.1233  0.0266  0.2902
  536loPI   C3B 8575  11.782  13.346   7.958  0.2461  0.1698  0.0554
  536loPI   C4B 8576  11.807  13.403   7.552 -0.1429 -0.3818  0.1541
  537loPI    C1 8577  14.431   4.924   9.555 -0.1175 -0.1116 -0.0939
  537loPI    C2 8578  14.512   4.575   9.735 -0.2088 -0.0329  0.1024
  537loPI    C3 8579  14.797   4.855   9.704 -0.1116 -0.1554 -0.1288
  537loPI   PO4 8580  14.374   4.859   9.318  0.0948 -0.2319 -0.1275
  537loPI   GL1 8581  14.351   4.825   8.911 -0.1113  0.1025 -0.2559
  537loPI   GL2 8582  14.591   5.053   8.767 -0.2255  0.0944  0.0794
  537loPI   C1A 8583  14.188   4.541   8.537 -0.0587 -0.0806 -0.4203
  537loPI   C2A 8584  14.380   4.471   8.084  0.1293  0.4009  0.4639
  537loPI   C3A 8585  14.196   4.200   7.771 -0.0049 -0.1191 -0.1311
  537loPI   C4A 8586  13.876   3.980   7.404  0.1680 -0.2407 -0.0543
  537loPI   C5A 8587  13.726   4.166   7.042 -0.5325 -0.1721 -0.1823
  537loPI   C6A 8588  13.550   4.501   6.819 -0.0686  0.0843  0.1653
  537loPI   C1B 8589  14.714   4.808   8.442 -0.1460 -0.3865 -0.2611
  537loPI   C2B 8590  14.974   4.770   8.001 -0.2960  0.0771 -0.1037
  537loPI   C3B 8591  15.430   4.914   7.943  0.2307 -0.1110 -0.0888
  537loPI   C4B 8592  15.539   5.286   7.698  0.2724 -0.1472 -0.0542
  538loPI    C1 8593   6.116   5.067   8.982 -0.1841 -0.0692  0.1542
  538loPI    C2 8594   6.370   5.012   9.285 -0.0266  0.1605  0.0667
  538loPI    C3 8595   5.986   5.094   9.359  0.0373  0.3397  0.2069
  538loPI   PO4 8596   6.115   4.792   8.842  0.2594  0.1742  0.0529
  538loPI   GL1 8597   6.102   4.470   8.508  0.1546  0.1663 -0.3303
  538loPI   GL2 8598   6.382   4.626   8.380  0.1004  0.3670 -0.1549
  538loPI   C1A 8599   5.938   4.560   8.116 -0.1527 -0.0878  0.0655
  538loPI   C2A 8600   5.955   4.471   7.725 -0.1278  0.2435 -0.0139
  538loPI   C3A 8601   6.224   4.500   7.288  0.2110  0.2476 -0.0945
  538loPI   C4A 8602   6.398   4.311   6.999 -0.1988  0.0714  0.2148
  538loPI   C5A 8603   6.652   4.054   6.801  0.3318 -0.0609 -0.1443
  538loPI   C6A 8604   7.113   4.164   6.677 -0.0725  0.1282  0.1920
  538loPI   C1B 8605   6.407   4.354   8.052  0.0954 -0.0370  0.2820
  538loPI   C2B 8606   6.710   4.456   7.802  0.0775 -0.3326 -0.0030
  538loPI   C3B 8607   6.899   4.496   7.324  0.1473  0.1490 -0.0041
  538loPI   C4B 8608   6.932   4.612   6.948 -0.2868 -0.0185  0.1810
  539loPI    C1 8609   1.745  19.364   9.604  0.1846 -0.1920  0.0958
  539loPI    C2 8610   1.452  19.368   9.875  0.1430 -0.0817  0.0499
  539loPI    C3 8611   1.742  19.094   9.898 -0.0880 -0.3383 -0.0374
  539loPI   PO4 8612   1.650  19.412   9.398 -0.1116  0.3007  0.1876
  539loPI   GL1 8613   1.448  19.295   9.083 -0.0424 -0.1364 -0.0464
  539loPI   GL2 8614   1.289  19.416   8.831 -0.1849  0.0996 -0.3373
  539loPI   C1A 8615   1.697  19.060   8.750 -0.1275 -0.0272 -0.2341
  539loPI   C2A 8616   1.906  18.790   8.428  0.0621  0.1563 -0.1677
  539loPI   C3A 8617   2.133  18.570   8.092 -0.0612  0.1295  0.3550
  539loPI   C4A 8618   2.154  18.561   7.640  0.1508 -0.0321  0.0643
  539loPI   C5A 8619   2.267  18.399   7.297 -0.2599 -0.2768 -0.2627
  539loPI   C6A 8620   2.459  18.468   6.847 -0.2453 -0.2516 -0.2334
  539loPI   C1B 8621   1.165  19.200   8.517 -0.1733  0.1878  0.1029
  539loPI   C2B 8622   1.379  18.878   8.166 -0.1355  0.0436 -0.1553
  539loPI   C3B 8623   1.440  18.963   7.712  0.0869 -0.3495  0.0202
  539loPI   C4B 8624   1.358  19.293   7.358  0.0938  0.0235 -0.2547
  540loPI    C1 8625  14.125  17.998   9.621  0.3164 -0.0100 -0.3362
  540loPI    C2 8626  14.368  18.203   9.864  0.0290  0.0845 -0.1231
  540loPI    C3 8627  14.521  17.942   9.602  0.3434 -0.0321  0.1683
  540loPI   PO4 8628  13.959  18.206   9.478  0.0667  0.1640 -0.1122
  540loPI   GL1 8629  13.768  18.275   9.157  0.3154  0.0607 -0.1068
  540loPI   GL2 8630  13.963  18.584   9.194  0.0011 -0.2290 -0.5520
  540loPI   C1A 8631  13.892  18.310   8.768 -0.2484 -0.1401  0.0893
  540loPI   C2A 8632  13.674  18.082   8.513  0.2002  0.1464 -0.1604
  540loPI   C3A 8633  13.714  17.769   8.250 -0.4089 -0.1253  0.1794
  540loPI   C4A 8634  13.643  17.555   7.933 -0.0840  0.0349  0.0171
  540loPI   C5A 8635  13.839  17.712   7.508 -0.1228  0.2215  0.1751
  540loPI   C6A 8636  13.962  17.611   7.049  0.1003 -0.0766  0.2521
  540loPI   C1B 8637  14.159  18.744   8.728 -0.1873 -0.2741  0.0442
  540loPI   C2B 8638  13.923  19.083   8.514  0.0936 -0.0362 -0.0586
  540loPI   C3B 8639  13.590  19.344   8.733 -0.2061  0.1243  0.0706
  540loPI   C4B 8640  13.692  19.716   8.999  0.4788  0.0166  0.2212
  541loPI    C1 8641  12.096  15.003   9.594  0.0806  0.0507 -0.0368
  541loPI    C2 8642  12.307  14.670   9.664 -0.0011  0.0025 -0.0173
  541loPI    C3 8643  12.391  15.006   9.864 -0.0058 -0.0420  0.0598
  541loPI   PO4 8644  12.097  15.017   9.403 -0.4438 -0.0712 -0.0349
  541loPI   GL1 8645  12.273  15.176   9.086 -0.0584 -0.1429 -0.1434
  541loPI   GL2 8646  11.975  14.989   8.928  0.0182 -0.1246  0.0875
  541loPI   C1A 8647  12.290  15.100   8.631 -0.2033  0.1384  0.2163
  541loPI   C2A 8648  12.245  14.920   8.296 -0.0483  0.3238  0.4705
  541loPI   C3A 8649  12.387  14.769   7.859  0.0916 -0.1848 -0.0222
  541loPI   C4A 8650  12.406  14.594   7.460  0.0184  0.3237  0.3535
  541loPI   C5A 8651  12.545  14.498   7.054 -0.1529  0.2432  0.2371
  541loPI   C6A 8652  12.612  14.571   6.673  0.0763  0.0549  0.2788
  541loPI   C1B 8653  11.787  15.031   8.590 -0.0916 -0.1619 -0.1609
  541loPI   C2B 8654  11.518  15.072   8.222 -0.1799 -0.0400 -0.0963
  541loPI   C3B 8655  11.602  15.215   7.774  0.0023 -0.0424  0.4890
  541loPI   C4B 8656  11.488  15.496   7.471  0.1862  0.0584  0.1634
  542loPI    C1 8657   9.163  10.909   9.270  0.1980 -0.1019  0.0774
  542loPI    C2 8658   9.326  11.263   9.180  0.3151 -0.2007 -0.1065
  542loPI    C3 8659   9.289  11.151   9.562 -0.0247  0.1494 -0.0304
  542loPI   PO4 8660   8.939  10.958   9.131 -0.1489  0.0063  0.3658
  542loPI   GL1 8661   9.020  11.223   8.692 -0.1751 -0.0238 -0.2095
  542loPI   GL2 8662   9.243  11.392   8.657  0.1691 -0.0137  0.1834
  542loPI   C1A 8663   8.847  11.433   8.296  0.0881 -0.1341 -0.0783
  542loPI   C2A 8664   8.941  11.394   7.902 -0.0878 -0.2844  0.1872
  542loPI   C3A 8665   8.809  11.657   7.444  0.2140  0.1239  0.3655
  542loPI   C4A 8666   8.719  11.884   7.146 -0.0585  0.1490  0.0131
  542loPI   C5A 8667   8.324  12.067   6.877 -0.0940 -0.0072 -0.6055
  542loPI   C6A 8668   8.023  12.142   6.483  0.1528 -0.2049 -0.1698
  542loPI   C1B 8669   9.424  11.440   8.267 -0.3976  0.0337  0.1053
  542loPI   C2B 8670   9.448  11.511   7.792 -0.0324  0.2355 -0.0491
  542loPI   C3B 8671   9.574  11.396   7.322  0.0916  0.1661 -0.0084
  542loPI   C4B 8672   9.709  11.327   6.931 -0.1161  0.2417  0.1296
  543loPI    C1 8673   7.632  16.498   9.636  0.2725  0.0434  0.1082
  543loPI    C2 8674   7.777  16.858   9.734 -0.0084  0.1592  0.1070
  543loPI    C3 8675   7.882  16.535   9.946  0.0417  0.2815  0.2694
  543loPI   PO4 8676   7.641  16.487   9.377 -0.0387 -0.1269 -0.1148
  543loPI   GL1 8677   7.596  16.201   9.079 -0.1325  0.1533 -0.2094
  543loPI   GL2 8678   7.892  16.026   8.911  0.4065 -0.3410  0.2091
  543loPI   C1A 8679   7.480  15.881   8.737 -0.1757 -0.0217 -0.0350
  543loPI   C2A 8680   7.466  15.815   8.373  0.2221 -0.4258 -0.0869
  543loPI   C3A 8681   7.215  15.828   8.031  0.0007  0.1087 -0.0156
  543loPI   C4A 8682   7.167  15.810   7.574  0.0646 -0.1390  0.0413
  543loPI   C5A 8683   7.197  15.762   7.155 -0.0894 -0.0318  0.1272
  543loPI   C6A 8684   7.052  15.559   6.709 -0.1670  0.3772  0.2892
  543loPI   C1B 8685   8.085  16.004   8.498 -0.2004 -0.1148 -0.2886
  543loPI   C2B 8686   7.907  16.058   8.056 -0.0093 -0.0253 -0.2953
  543loPI   C3B 8687   7.871  16.057   7.673  0.2895 -0.4260 -0.0684
  543loPI   C4B 8688   7.627  16.036   7.288 -0.0378  0.0865 -0.2806
  544loPI    C1 8689   8.873   3.328   9.588 -0.0540 -0.4320 -0.1721
  544loPI    C2 8690   9.098   2.998   9.571  0.5999 -0.0077 -0.1389
  544loPI    C3 8691   9.151   3.260   9.867 -0.1143  0.0004  0.0013
  544loPI   PO4 8692   8.827   3.343   9.321 -0.0686  0.2455 -0.1680
  544loPI   GL1 8693   8.703   3.390   9.063  0.1543  0.1986  0.2846
  544loPI   GL2 8694   8.701   3.722   8.828 -0.3503 -0.1499 -0.0559
  544loPI   C1A 8695   8.778   3.182   8.728  0.0855 -0.1464  0.0040
  544loPI   C2A 8696   8.753   3.310   8.361 -0.0235  0.1007 -0.0909
  544loPI   C3A 8697   8.749   3.215   7.889  0.0491 -0.1581  0.1612
  544loPI   C4A 8698   9.018   3.442   7.514  0.0958 -0.0793  0.1320
  544loPI   C5A 8699   9.023   3.736   7.089 -0.0982  0.1158  0.2319
  544loPI   C6A 8700   8.994   4.110   7.010 -0.2170  0.4106 -0.1748
  544loPI   C1B 8701   8.702   3.744   8.557 -0.3767 -0.0283 -0.0229
  544loPI   C2B 8702   8.898   3.788   8.176 -0.2975  0.0047  0.2962
  544loPI   C3B 8703   8.871   4.050   7.774  0.2454  0.1405 -0.1479
  544loPI   C4B 8704   8.619   4.110   7.467 -0.0135 -0.1997  0.5764
  545loPI    C1 8705  14.446   2.552   9.028 -0.0890 -0.1314 -0.0011
  545loPI    C2 8706  14.120   2.624   9.249 -0.0404 -0.3346  0.1397
  545loPI    C3 8707  14.479   2.747   9.375 -0.0760  0.0126 -0.0824
  545loPI   PO4 8708  14.302   2.503   8.767 -0.1065  0.1493 -0.1043
  545loPI   GL1 8709  14.078   2.381   8.436 -0.1142 -0.2738  0.1032
  545loPI   GL2 8710  14.256   2.493   8.138  0.4932  0.2880  0.0811
  545loPI   C1A 8711  14.332   1.961   8.208  0.0072 -0.1700  0.2018
  545loPI   C2A 8712  14.432   1.544   8.024 -0.1188  0.1338 -0.4187
  545loPI   C3A 8713  14.176   1.282   7.754 -0.1025  0.2479 -0.1170
  545loPI   C4A 8714  13.958   1.165   7.354  0.0682 -0.1327 -0.0391
  545loPI   C5A 8715  13.816   0.907   6.966  0.0607  0.1567 -0.0513
  545loPI   C6A 8716  13.470   0.656   6.892 -0.0802 -0.0470  0.0817
  545loPI   C1B 8717  14.283   2.117   7.756  0.3443  0.1607 -0.0268
  545loPI   C2B 8718  14.295   1.771   7.621 -0.2072  0.0150  0.1781
  545loPI   C3B 8719  14.282   1.649   7.262 -0.0808  0.0135  0.0495
  545loPI   C4B 8720  13.983   1.605   6.963 -0.1876  0.0428 -0.1076
  546loPI    C1 8721   7.451   8.007   9.647 -0.1356  0.1377  0.1160
  546loPI    C2 8722   7.285   7.750   9.905  0.1072 -0.1450 -0.0046
  546loPI    C3 8723   7.604   7.966  10.015 -0.0179  0.0113  0.0539
  546loPI   PO4 8724   7.379   7.875   9.405 -0.1003 -0.0002  0.2096
  546loPI   GL1 8725   7.417   7.776   8.954  0.0783 -0.0879 -0.0050
  546loPI   GL2 8726   7.317   7.437   9.033 -0.1352  0.3543  0.1116
  546loPI   C1A 8727   7.503   8.000   8.647  0.3083 -0.0525 -0.2019
  546loPI   C2A 8728   7.256   7.945   8.248 -0.1945  0.0514  0.1240
  546loPI   C3A 8729   6.850   7.840   7.908 -0.1013 -0.1771  0.4925
  546loPI   C4A 8730   6.730   8.010   7.443  0.0145 -0.1427 -0.3353
  546loPI   C5A 8731   7.016   8.137   7.082 -0.1056 -0.0798  0.3427
  546loPI   C6A 8732   7.404   8.338   7.100 -0.2970  0.2795  0.0073
  546loPI   C1B 8733   7.081   7.572   8.669  0.2825 -0.0220 -0.1621
  546loPI   C2B 8734   6.817   7.852   8.409 -0.0149  0.0255  0.2823
  546loPI   C3B 8735   6.462   8.043   8.180  0.1037 -0.0679  0.0741
  546loPI   C4B 8736   6.366   8.188   7.761 -0.0301  0.1571 -0.1269
  547loPI    C1 8737  18.461   4.422   9.723  0.0845 -0.0250 -0.0517
  547loPI    C2 8738  18.332   4.064   9.600  0.0693 -0.0929  0.1581
  547loPI    C3 8739  18.211   4.210   9.953 -0.0110  0.1683  0.0256
  547loPI   PO4 8740  18.432   4.578   9.478 -0.0579  0.0571  0.0762
  547loPI   GL1 8741  18.534   4.718   9.106  0.2152  0.2309  0.0620
  547loPI   GL2 8742  18.316   5.054   9.062  0.0461 -0.1093  0.2210
  547loPI   C1A 8743  18.435   4.744   8.666 -0.0578  0.0605 -0.0085
  547loPI   C2A 8744  18.179   4.678   8.312 -0.2149 -0.1551  0.1915
  547loPI   C3A 8745  17.989   4.614   7.919 -0.1617  0.0544 -0.2151
  547loPI   C4A 8746  17.793   4.390   7.667  0.0979 -0.1933  0.0975
  547loPI   C5A 8747  17.679   4.052   7.338  0.0192 -0.0243 -0.1614
  547loPI   C6A 8748  17.809   3.745   7.030 -0.1114  0.3122  0.0330
  547loPI   C1B 8749  18.408   5.199   8.546  0.1576 -0.0341  0.0844
  547loPI   C2B 8750  18.247   5.168   8.182  0.0618 -0.4267 -0.2541
  547loPI   C3B 8751  18.412   5.344   7.822 -0.1585  0.2790  0.2285
  547loPI   C4B 8752  18.248   5.240   7.353 -0.2575 -0.1698  0.1231
  548loPI    C1 8753   0.158  10.648   9.881 -0.2497 -0.0282  0.0460
  548loPI    C2 8754   0.231  10.369  10.158  0.1045  0.2638  0.2575
  548loPI    C3 8755  -0.014  10.674  10.241  0.0275  0.2277  0.1651
  548loPI   PO4 8756   0.330  10.638   9.723  0.2290 -0.1741  0.1363
  548loPI   GL1 8757   0.309  10.717   9.322 -0.0600 -0.1215  0.3059
  548loPI   GL2 8758   0.338  11.082   9.374 -0.4117  0.1060 -0.0252
  548loPI   C1A 8759  -0.075  10.745   8.976  0.0865 -0.1715  0.2922
  548loPI   C2A 8760  -0.124  10.816   8.548 -0.2150 -0.1854 -0.1078
  548loPI   C3A 8761  -0.015  10.852   8.045  0.0622 -0.0670  0.0568
  548loPI   C4A 8762   0.070  10.535   7.558  0.1513 -0.1025  0.2100
  548loPI   C5A 8763   0.397  10.501   7.205 -0.1232  0.0784 -0.1019
  548loPI   C6A 8764   0.749  10.467   6.884 -0.0165 -0.2956  0.0612
  548loPI   C1B 8765   0.699  11.005   9.142  0.1050  0.1533 -0.1644
  548loPI   C2B 8766   0.799  10.664   8.906  0.0184 -0.1966  0.1358
  548loPI   C3B 8767   0.993  10.587   8.452  0.0405  0.2018 -0.0959
  548loPI   C4B 8768   1.159  10.680   8.023  0.1115 -0.2705  0.1440
  549loPI    C1 8769   8.870   5.882   9.499  0.1601 -0.0921 -0.0625
  549loPI    C2 8770   8.622   5.588   9.608 -0.0341  0.1292  0.1025
  549loPI    C3 8771   8.890   5.732   9.869 -0.0611  0.2196  0.0809
  549loPI   PO4 8772   8.848   5.791   9.210 -0.3575  0.2337  0.1443
  549loPI   GL1 8773   8.973   5.708   8.726  0.0547  0.0974  0.1245
  549loPI   GL2 8774   8.622   5.725   8.768  0.3955  0.0595 -0.2675
  549loPI   C1A 8775   8.881   5.879   8.330  0.0107 -0.3067 -0.1964
  549loPI   C2A 8776   8.588   5.720   7.962  0.0090 -0.0634  0.1536
  549loPI   C3A 8777   8.204   5.906   7.715 -0.0140 -0.2407  0.2493
  549loPI   C4A 8778   7.979   6.165   7.312  0.0936  0.0694 -0.0011
  549loPI   C5A 8779   7.712   6.097   6.985 -0.0045 -0.0690  0.3276
  549loPI   C6A 8780   7.273   5.996   6.794 -0.0333  0.1344 -0.1011
  549loPI   C1B 8781   8.536   5.495   8.432 -0.4501  0.0543 -0.1636
  549loPI   C2B 8782   8.326   5.376   8.179 -0.1156 -0.1321 -0.3726
  549loPI   C3B 8783   8.272   5.390   7.744  0.0452 -0.1082  0.0212
  549loPI   C4B 8784   8.267   5.415   7.291  0.0139 -0.0383 -0.0702
  550loPI    C1 8785  15.916   4.556   9.143 -0.0564 -0.0249  0.0127
  550loPI    C2 8786  15.841   4.921   8.996 -0.0020  0.0226  0.1024
  550loPI    C3 8787  15.802   4.851   9.388 -0.0283 -0.0724  0.0831
  550loPI   PO4 8788  15.999   4.374   8.943  0.1283 -0.4728 -0.0638
  550loPI   GL1 8789  15.949   4.334   8.515  0.1559  0.6426  0.2268
  550loPI   GL2 8790  16.098   4.631   8.555  0.1970  0.2339  0.0962
  550loPI   C1A 8791  15.908   4.076   8.172 -0.1746  0.2050 -0.3641
  550loPI   C2A 8792  15.752   4.013   7.807  0.1334  0.4557  0.0376
  550loPI   C3A 8793  15.867   4.163   7.439  0.2693  0.0130  0.1206
  550loPI   C4A 8794  15.885   3.985   7.057 -0.1570 -0.3346 -0.1299
  550loPI   C5A 8795  15.722   3.828   6.691 -0.1596  0.1846  0.0010
  550loPI   C6A 8796  15.621   4.079   6.340 -0.1810 -0.1184 -0.0058
  550loPI   C1B 8797  15.932   4.851   8.146 -0.0944  0.2199 -0.2525
  550loPI   C2B 8798  16.040   5.157   7.817 -0.2141 -0.1356  0.1858
  550loPI   C3B 8799  16.189   5.164   7.290  0.1696  0.0106 -0.0605
  550loPI   C4B 8800  16.341   5.514   6.965 -0.0294  0.0220 -0.1573
  551loPI    C1 8801   1.736   5.546   9.465  0.0563 -0.0037  0.0602
  551loPI    C2 8802   1.998   5.325   9.671  0.0591  0.0109  0.0725
  551loPI    C3 8803   1.731   5.550   9.865  0.3338  0.3516  0.0655
  551loPI   PO4 8804   1.958   5.557   9.227  0.3377 -0.1696 -0.0654
  551loPI   GL1 8805   2.163   5.249   8.942  0.1293 -0.1612  0.2070
  551loPI   GL2 8806   2.126   4.973   8.829 -0.2240 -0.0686 -0.0461
  551loPI   C1A 8807   1.959   5.392   8.632 -0.0365 -0.2341 -0.0871
  551loPI   C2A 8808   1.950   5.504   8.235  0.2308 -0.1530 -0.2243
  551loPI   C3A 8809   1.893   5.411   7.774  0.1076  0.0565 -0.0927
  551loPI   C4A 8810   2.121   5.437   7.457  0.1829  0.0170  0.0690
  551loPI   C5A 8811   2.283   5.389   7.007 -0.2405 -0.2806 -0.0915
  551loPI   C6A 8812   2.549   5.339   6.684 -0.1672  0.0103 -0.0143
  551loPI   C1B 8813   2.189   5.042   8.420  0.1683  0.0449  0.1265
  551loPI   C2B 8814   2.351   5.226   8.011  0.4474 -0.2213 -0.0930
  551loPI   C3B 8815   2.554   5.299   7.707  0.1929 -0.2493 -0.1512
  551loPI   C4B 8816   2.776   5.054   7.496 -0.0893  0.0913 -0.0666
  552loPI    C1 8817  14.573   0.747   9.722  0.2469  0.0201 -0.3028
  552loPI    C2 8818  14.441   1.071   9.914  0.1840 -0.1498 -0.0540
  552loPI    C3 8819  14.332   0.707  10.038  0.3693 -0.2720 -0.2425
  552loPI   PO4 8820  14.560   0.860   9.462  0.1899 -0.1317  0.1855
  552loPI   GL1 8821  14.755   0.831   9.087 -0.1566  0.4269 -0.0105
  552loPI   GL2 8822  14.752   1.166   9.071  0.3264  0.1736 -0.2049
  552loPI   C1A 8823  14.651   0.691   8.706 -0.2941 -0.2747 -0.1842
  552loPI   C2A 8824  14.518   0.597   8.308  0.1818 -0.1442 -0.3295
  552loPI   C3A 8825  14.750   0.506   7.923 -0.1660  0.2755  0.0305
  552loPI   C4A 8826  14.734   0.484   7.445 -0.0619 -0.1080 -0.0770
  552loPI   C5A 8827  14.653   0.450   6.975 -0.3143  0.2707 -0.0997
  552loPI   C6A 8828  14.529   0.245   6.572  0.3114  0.3102  0.0047
  552loPI   C1B 8829  14.684   1.198   8.616 -0.0947  0.1334 -0.2055
  552loPI   C2B 8830  14.581   1.096   8.192  0.0183  0.1444  0.0875
  552loPI   C3B 8831  14.553   0.943   7.769  0.1766  0.1700  0.2292
  552loPI   C4B 8832  14.365   0.764   7.335  0.1199 -0.0905  0.2938
  553loPI    C1 8833  16.796  11.404   9.521 -0.0443  0.0060 -0.1137
  553loPI    C2 8834  16.952  11.036   9.491  0.1408  0.0831 -0.1069
  553loPI    C3 8835  16.690  11.120   9.782  0.0376 -0.0643 -0.1564
  553loPI   PO4 8836  16.902  11.512   9.263  0.3375 -0.0349  0.1618
  553loPI   GL1 8837  17.032  11.673   8.902 -0.1270  0.0650 -0.0237
  553loPI   GL2 8838  16.826  11.750   8.633 -0.1779 -0.0188 -0.1417
  553loPI   C1A 8839  17.347  11.811   8.490  0.1234 -0.0691  0.1842
  553loPI   C2A 8840  17.666  11.899   8.221  0.3139  0.0362 -0.1555
  553loPI   C3A 8841  17.915  11.960   7.786  0.0225 -0.0323  0.2324
  553loPI   C4A 8842  17.988  12.217   7.345  0.2354  0.0362 -0.1927
  553loPI   C5A 8843  17.699  12.201   7.049  0.4054 -0.2057  0.0154
  553loPI   C6A 8844  17.670  12.530   6.744 -0.2757 -0.0579 -0.2069
  553loPI   C1B 8845  16.589  11.705   8.191 -0.4199  0.2376  0.5204
  553loPI   C2B 8846  16.548  11.473   7.753  0.0553  0.3816 -0.1962
  553loPI   C3B 8847  16.318  11.514   7.422  0.5144  0.1878 -0.1630
  553loPI   C4B 8848  16.277  11.316   7.013  0.1145  0.3178  0.1783
  554loPI    C1 8849  13.080  12.022   9.314 -0.0140 -0.6149  0.1986
  554loPI    C2 8850  13.052  12.278   9.620  0.1577 -0.2663 -0.0698
  554loPI    C3 8851  12.777  11.991   9.573  0.0098 -0.1878  0.2845
  554loPI   PO4 8852  13.074  12.169   9.104  0.2197 -0.1175  0.3283
  554loPI   GL1 8853  13.327  12.503   8.876 -0.0977  0.0457  0.0607
  554loPI   GL2 8854  13.082  12.295   8.598  0.0711  0.0244 -0.1378
  554loPI   C1A 8855  13.265  12.932   8.604  0.1634  0.5350  0.2537
  554loPI   C2A 8856  13.121  13.038   8.260 -0.3019  0.0515  0.2751
  554loPI   C3A 8857  13.058  12.964   7.876 -0.0369  0.0210  0.0179
  554loPI   C4A 8858  12.800  12.938   7.446 -0.0571  0.1571 -0.0668
  554loPI   C5A 8859  12.834  13.135   7.084 -0.0146 -0.1137 -0.0304
  554loPI   C6A 8860  12.784  13.266   6.711 -0.0376  0.0080 -0.0420
  554loPI   C1B 8861  13.254  12.476   8.332  0.0007 -0.1396 -0.0013
  554loPI   C2B 8862  13.371  12.475   7.956 -0.1423  0.3299 -0.1287
  554loPI   C3B 8863  13.530  12.491   7.637 -0.0970  0.0828  0.3696
  554loPI   C4B 8864  13.673  12.421   7.179 -0.0014 -0.2217  0.2494
  555loPI    C1 8865  19.171   7.485   9.473  0.0599  0.0165 -0.0032
  555loPI    C2 8866  19.041   7.498   9.851  0.3364 -0.1487  0.1013
  555loPI    C3 8867  19.380   7.685   9.750  0.1871  0.0182 -0.0998
  555loPI   PO4 8868  18.947   7.560   9.381  0.1485 -0.3146 -0.1375
  555loPI   GL1 8869  18.885   7.752   9.012  0.0718  0.1283  0.1222
  555loPI   GL2 8870  18.737   8.012   8.943  0.6579 -0.1454  0.1014
  555loPI   C1A 8871  18.874   7.680   8.581 -0.2478 -0.0138 -0.0187
  555loPI   C2A 8872  18.857   7.665   8.076 -0.0127 -0.0514  0.1041
  555loPI   C3A 8873  19.116   7.382   7.750  0.3723 -0.1479 -0.2692
  555loPI   C4A 8874  19.385   7.490   7.570 -0.2487  0.0690  0.0324
  555loPI   C5A 8875  19.470   7.650   7.150  0.0176 -0.0316  0.0230
  555loPI   C6A 8876  19.152   7.810   6.833  0.1343 -0.2282  0.0820
  555loPI   C1B 8877  18.608   8.112   8.596 -0.2002 -0.0658  0.0225
  555loPI   C2B 8878  18.883   8.121   8.281 -0.0704 -0.2360  0.0429
  555loPI   C3B 8879  19.149   8.069   7.843  0.3537  0.5371 -0.0322
  555loPI   C4B 8880  19.221   8.387   7.526 -0.1001 -0.3764 -0.0294
  556loPI    C1 8881   0.386   1.066   9.866 -0.0147 -0.2611 -0.0117
  556loPI    C2 8882   0.026   1.203   9.973 -0.0090 -0.1729 -0.1050
  556loPI    C3 8883   0.320   1.183  10.243 -0.0310 -0.0696 -0.0728
  556loPI   PO4 8884   0.398   1.161   9.613  0.1210  0.0994  0.1127
  556loPI   GL1 8885   0.506   1.150   9.246  0.1897  0.2410 -0.1415
  556loPI   GL2 8886   0.680   0.970   9.011  0.4422  0.0172 -0.0757
  556loPI   C1A 8887   0.181   1.212   8.892  0.0739 -0.4049 -0.0579
  556loPI   C2A 8888  -0.149   1.107   8.503  0.2039 -0.1099  0.2276
  556loPI   C3A 8889  -0.018   1.184   7.970  0.0360 -0.3386 -0.4891
  556loPI   C4A 8890  -0.102   1.121   7.550  0.1144 -0.2101  0.1160
  556loPI   C5A 8891  -0.478   0.926   7.439  0.2135 -0.0847 -0.0729
  556loPI   C6A 8892  -0.729   0.816   7.144 -0.0323  0.2699  0.0167
  556loPI   C1B 8893   0.506   0.841   8.655 -0.0044  0.0681  0.0854
  556loPI   C2B 8894   0.344   0.965   8.286  0.0063 -0.0737 -0.3308
  556loPI   C3B 8895   0.427   1.319   7.914  0.1212  0.1729  0.1314
  556loPI   C4B 8896   0.520   1.376   7.478  0.0875 -0.1511 -0.1585
  557loPI    C1 8897   4.410  10.757  10.222 -0.0214 -0.0074 -0.1359
  557loPI    C2 8898   4.552  10.932  10.553  0.2544 -0.1586 -0.1717
  557loPI    C3 8899   4.295  10.626  10.582 -0.0078  0.0639 -0.1054
  557loPI   PO4 8900   4.319  11.001   9.985 -0.2618 -0.1185 -0.0314
  557loPI   GL1 8901   4.404  11.113   9.550 -0.0677 -0.1977 -0.0499
  557loPI   GL2 8902   4.421  10.833   9.431 -0.0828 -0.1112 -0.0715
  557loPI   C1A 8903   4.495  11.267   9.159  0.1111  0.0098  0.0291
  557loPI   C2A 8904   4.569  11.265   8.736  0.1253  0.2470 -0.1507
  557loPI   C3A 8905   4.610  11.273   8.321  0.2223  0.1152 -0.2426
  557loPI   C4A 8906   4.463  11.295   7.878 -0.1130  0.2748  0.1044
  557loPI   C5A 8907   4.129  11.271   7.667  0.3360 -0.4810  0.2010
  557loPI   C6A 8908   3.725  11.512   7.718 -0.1247  0.3498 -0.1366
  557loPI   C1B 8909   4.743  10.776   9.015 -0.0964 -0.1216 -0.1639
  557loPI   C2B 8910   4.772  10.840   8.582  0.5258  0.0589  0.0095
  557loPI   C3B 8911   4.562  10.852   8.136  0.1308  0.1384  0.4994
  557loPI   C4B 8912   4.142  10.885   7.965 -0.2791 -0.1277  0.2614
  558loPI    C1 8913   5.124  10.366  10.299  0.0890 -0.0988 -0.1144
  558loPI    C2 8914   4.969  10.726  10.220 -0.1696 -0.1843 -0.0061
  558loPI    C3 8915   4.797  10.489  10.493  0.1937 -0.2552  0.1674
  558loPI   PO4 8916   5.197  10.184  10.007 -0.0235 -0.0039  0.4703
  558loPI   GL1 8917   5.203  10.334   9.469 -0.1046 -0.1473 -0.0522
  558loPI   GL2 8918   5.286  10.552   9.693 -0.0294 -0.0641  0.2059
  558loPI   C1A 8919   4.863  10.363   9.455  0.0475 -0.0949 -0.3733
  558loPI   C2A 8920   4.545  10.401   9.218  0.1721 -0.5520 -0.4803
  558loPI   C3A 8921   4.771  10.309   8.916  0.0346  0.0298 -0.2082
  558loPI   C4A 8922   4.971   9.969   8.708  0.3057  0.1400 -0.1003
  558loPI   C5A 8923   5.138   9.981   8.300  0.0960  0.0531  0.0427
  558loPI   C6A 8924   5.194  10.159   7.965 -0.3367  0.2266 -0.4448
  558loPI   C1B 8925   5.156  10.723   9.231 -0.1027  0.0955 -0.0691
  558loPI   C2B 8926   5.182  10.847   8.850  0.0015  0.0242 -0.2909
  558loPI   C3B 8927   5.191  10.569   8.524  0.1315  0.1445 -0.0351
  558loPI   C4B 8928   4.932  10.456   8.217  0.0016  0.1004  0.1067
  559loPI    C1 8929   9.175  12.518   9.969  0.0168  0.0762  0.1764
  559loPI    C2 8930   9.393  12.826  10.103  0.0242  0.1939 -0.0994
  559loPI    C3 8931   9.341  12.502  10.333  0.1802  0.3184  0.1147
  559loPI   PO4 8932   9.231  12.557   9.732 -0.4486  0.3466 -0.2244
  559loPI   GL1 8933   9.407  12.794   9.429  0.1472 -0.0236 -0.1089
  559loPI   GL2 8934   9.162  12.612   9.240 -0.0714  0.2706  0.0745
  559loPI   C1A 8935   9.528  13.096   9.069  0.0927 -0.0412 -0.4721
  559loPI   C2A 8936   9.548  13.086   8.582 -0.0758 -0.1727 -0.3238
  559loPI   C3A 8937   9.602  12.937   8.128  0.1711  0.3490 -0.1353
  559loPI   C4A 8938   9.491  12.944   7.756  0.0556  0.3638  0.1381
  559loPI   C5A 8939   9.456  12.844   7.312  0.1697  0.1168 -0.1692
  559loPI   C6A 8940   9.168  12.883   6.879 -0.1561 -0.0045  0.1586
  559loPI   C1B 8941   8.965  12.577   8.851 -0.0004 -0.0124 -0.3279
  559loPI   C2B 8942   8.952  12.483   8.452 -0.2100  0.0998 -0.0759
  559loPI   C3B 8943   8.817  12.274   8.078 -0.0496 -0.0278  0.2400
  559loPI   C4B 8944   8.637  12.045   7.649  0.3022 -0.3429  0.3189
  560loPI    C1 8945  16.942  13.773   8.877  0.3174  0.0436  0.1949
  560loPI    C2 8946  16.978  13.409   8.714  0.1640  0.1184 -0.0104
  560loPI    C3 8947  16.742  13.463   9.032 -0.1951  0.1241 -0.2714
  560loPI   PO4 8948  17.026  13.941   8.788  0.3111 -0.0764 -0.0150
  560loPI   GL1 8949  17.249  14.178   8.529 -0.0245 -0.1177 -0.0311
  560loPI   GL2 8950  17.427  14.515   8.703  0.2718 -0.0055  0.0139
  560loPI   C1A 8951  17.511  14.320   8.216 -0.0090  0.0954  0.2463
  560loPI   C2A 8952  17.591  14.715   7.925 -0.1815 -0.0694  0.1488
  560loPI   C3A 8953  17.510  15.180   7.740  0.0252  0.3157 -0.0334
  560loPI   C4A 8954  17.576  15.236   7.347 -0.0361 -0.3959  0.0235
  560loPI   C5A 8955  17.504  15.260   6.994 -0.3422  0.4474  0.4824
  560loPI   C6A 8956  17.582  15.242   6.616  0.0455  0.2054  0.1128
  560loPI   C1B 8957  17.291  14.833   8.355  0.0716  0.1927  0.1575
  560loPI   C2B 8958  16.972  15.141   8.043  0.0138 -0.1245 -0.0098
  560loPI   C3B 8959  17.010  15.557   7.745 -0.0977  0.2080 -0.2129
  560loPI   C4B 8960  16.830  15.911   7.370  0.0613  0.1007 -0.2484
  561loPI    C1 8961   7.948  17.381   9.884 -0.1421  0.0376  0.0323
  561loPI    C2 8962   8.172  17.072  10.004 -0.1459  0.0208 -0.0040
  561loPI    C3 8963   8.115  17.384  10.248 -0.3722 -0.1317  0.1418
  561loPI   PO4 8964   7.940  17.333   9.613 -0.2425 -0.0344  0.0699
  561loPI   GL1 8965   7.949  17.044   9.327  0.0935 -0.1199  0.1590
  561loPI   GL2 8966   7.717  16.947   9.179 -0.1638  0.0151 -0.2801
  561loPI   C1A 8967   7.792  17.360   8.898  0.0005 -0.3221  0.0393
  561loPI   C2A 8968   7.616  17.389   8.487  0.0163 -0.2472  0.0700
  561loPI   C3A 8969   7.562  17.558   8.113  0.4517  0.0500 -0.2074
  561loPI   C4A 8970   7.541  17.481   7.667  0.0250  0.3507 -0.0543
  561loPI   C5A 8971   7.355  17.255   7.389 -0.1358 -0.5812 -0.0811
  561loPI   C6A 8972   7.305  16.821   7.190 -0.1562 -0.1724 -0.1255
  561loPI   C1B 8973   7.900  16.966   8.717  0.1570  0.0581  0.2985
  561loPI   C2B 8974   7.798  16.955   8.229 -0.1595 -0.0314 -0.1836
  561loPI   C3B 8975   7.883  17.190   7.847  0.2274 -0.0618 -0.0199
  561loPI   C4B 8976   7.812  17.042   7.399 -0.3169 -0.0577  0.2556
  562loPI    C1 8977  13.481  13.082   9.648 -0.2043  0.2467  0.2535
  562loPI    C2 8978  13.327  12.734   9.770  0.1128  0.0056 -0.0158
  562loPI    C3 8979  13.639  12.894   9.963 -0.0348  0.1451  0.1099
  562loPI   PO4 8980  13.255  13.233   9.596  0.1795 -0.1084  0.1860
  562loPI   GL1 8981  13.195  13.403   9.182 -0.1549 -0.4087  0.2949
  562loPI   GL2 8982  13.456  13.283   8.872 -0.0298  0.2255 -0.0106
  562loPI   C1A 8983  13.047  13.530   8.735  0.0218  0.1699  0.1584
  562loPI   C2A 8984  13.010  13.550   8.304 -0.0148  0.2102 -0.1629
  562loPI   C3A 8985  12.747  13.632   7.971  0.0388 -0.1454 -0.2381
  562loPI   C4A 8986  12.689  13.582   7.550  0.0773  0.0979 -0.1676
  562loPI   C5A 8987  12.506  13.606   7.024  0.0311  0.2553 -0.4707
  562loPI   C6A 8988  12.297  13.524   6.749 -0.0885  0.1750  0.0443
  562loPI   C1B 8989  13.547  13.713   8.561 -0.0961 -0.2952  0.1627
  562loPI   C2B 8990  13.770  14.093   8.463  0.2269 -0.0895 -0.0468
  562loPI   C3B 8991  14.169  14.144   8.182  0.1365 -0.2233  0.1607
  562loPI   C4B 8992  14.409  13.770   8.024 -0.1442  0.0514 -0.1078
  563loPI    C1 8993  19.701  11.017   9.905 -0.0180  0.3083  0.0720
  563loPI    C2 8994  20.006  11.260   9.995 -0.0045  0.2922  0.0696
  563loPI    C3 8995  19.632  11.403   9.986 -0.0051  0.2958  0.1431
  563loPI   PO4 8996  19.732  10.907   9.668  0.1394 -0.0410 -0.3013
  563loPI   GL1 8997  19.602  11.082   9.259  0.4242  0.5099  0.1288
  563loPI   GL2 8998  19.406  11.284   9.149  0.0240 -0.0633  0.0582
  563loPI   C1A 8999  19.861  11.230   8.985  0.0889 -0.1882 -0.0659
  563loPI   C2A 9000  20.043  11.224   8.543  0.1874  0.0083 -0.0042
  563loPI   C3A 9001  20.198  11.272   8.153 -0.0324 -0.1035 -0.1753
  563loPI   C4A 9002  20.374  11.289   7.694  0.3410  0.2368 -0.3225
  563loPI   C5A 9003  20.618  11.252   7.350  0.0454 -0.1535  0.2354
  563loPI   C6A 9004  21.032  11.102   7.362 -0.2073  0.2062  0.0885
  563loPI   C1B 9005  19.320  11.176   8.818 -0.1085  0.2604  0.2959
  563loPI   C2B 9006  19.483  11.297   8.401  0.2167 -0.0205 -0.1504
  563loPI   C3B 9007  19.696  11.487   8.008 -0.1083 -0.3852 -0.0262
  563loPI   C4B 9008  19.804  11.631   7.589 -0.1711 -0.0282  0.3046
  564loPI    C1 9009   8.203   0.462   9.475 -0.1227 -0.1521  0.0835
  564loPI    C2 9010   8.296   0.712   9.774  0.2559  0.0271 -0.1764
  564loPI    C3 9011   7.920   0.694   9.638  0.1605  0.2255  0.0534
  564loPI   PO4 9012   8.394   0.495   9.331  0.0160  0.2344 -0.1782
  564loPI   GL1 9013   8.529   0.192   8.972 -0.1886 -0.1636 -0.0208
  564loPI   GL2 9014   8.405  -0.122   8.882  0.1378 -0.3671 -0.1493
  564loPI   C1A 9015   8.446   0.284   8.548  0.0029  0.1681 -0.1118
  564loPI   C2A 9016   8.261   0.233   8.172  0.3282  0.1832 -0.2655
  564loPI   C3A 9017   8.044   0.160   7.854 -0.1610 -0.0597 -0.1155
  564loPI   C4A 9018   7.805   0.428   7.537 -0.3485  0.3278 -0.1929
  564loPI   C5A 9019   7.706   0.487   7.068  0.1196 -0.2938  0.1137
  564loPI   C6A 9020   7.536   0.697   6.668 -0.1012 -0.1014 -0.0698
  564loPI   C1B 9021   8.383  -0.195   8.509 -0.2479 -0.2117 -0.3798
  564loPI   C2B 9022   8.448  -0.193   8.026  0.1959  0.1559  0.0537
  564loPI   C3B 9023   8.165  -0.266   7.664 -0.4083 -0.1081  0.3008
  564loPI   C4B 9024   7.867  -0.061   7.349 -0.0582 -0.0229  0.0700
  565loPI    C1 9025  16.404  17.253   9.752 -0.0042  0.1711 -0.0689
  565loPI    C2 9026  16.431  17.640   9.848  0.2100  0.1672 -0.1097
  565loPI    C3 9027  16.741  17.396   9.912 -0.0560 -0.0804  0.2770
  565loPI   PO4 9028  16.301  17.254   9.480 -0.2199  0.2958 -0.1847
  565loPI   GL1 9029  16.311  17.169   8.997  0.0910 -0.1200  0.3896
  565loPI   GL2 9030  16.662  17.208   8.990  0.0962 -0.1499  0.3209
  565loPI   C1A 9031  16.273  17.247   8.470  0.0128 -0.1131  0.2771
  565loPI   C2A 9032  16.348  17.129   8.146  0.0550  0.2152 -0.1764
  565loPI   C3A 9033  16.487  17.049   7.763 -0.0616 -0.0078  0.1007
  565loPI   C4A 9034  16.458  17.343   7.435  0.1817  0.1615 -0.3146
  565loPI   C5A 9035  16.297  17.361   7.065 -0.0996 -0.0161 -0.1154
  565loPI   C6A 9036  16.262  17.324   6.598  0.1267 -0.1018 -0.0126
  565loPI   C1B 9037  16.560  16.795   8.753 -0.3242  0.0440  0.0784
  565loPI   C2B 9038  16.763  16.444   8.637  0.2508  0.0867  0.3675
  565loPI   C3B 9039  16.827  16.351   8.184  0.2105  0.0087 -0.1341
  565loPI   C4B 9040  16.546  16.089   7.976 -0.2621 -0.0814 -0.0227
  566loPI    C1 9041  17.240   1.227   9.626 -0.0509  0.4828  0.2893
  566loPI    C2 9042  17.317   1.023   9.962  0.2662  0.1588  0.0281
  566loPI    C3 9043  17.596   1.263   9.804  0.3977 -0.2561 -0.3920
  566loPI   PO4 9044  17.089   1.160   9.465 -0.0404 -0.3381 -0.0236
  566loPI   GL1 9045  17.159   1.202   9.022 -0.4884  0.1212 -0.2291
  566loPI   GL2 9046  16.804   1.109   9.038 -0.1514  0.2847 -0.3237
  566loPI   C1A 9047  17.200   1.241   8.577  0.0529 -0.2645 -0.0830
  566loPI   C2A 9048  17.527   1.350   8.225  0.0717 -0.1458 -0.1396
  566loPI   C3A 9049  17.603   1.530   7.827 -0.2102 -0.4517 -0.2142
  566loPI   C4A 9050  17.667   1.229   7.455  0.0026  0.1476 -0.0303
  566loPI   C5A 9051  17.593   0.783   7.293  0.1952  0.0837 -0.0086
  566loPI   C6A 9052  17.440   0.448   7.135  0.1855  0.1424 -0.0887
  566loPI   C1B 9053  16.941   0.737   8.776  0.1040 -0.2260 -0.2794
  566loPI   C2B 9054  17.126   0.300   8.817  0.0352 -0.0223  0.1427
  566loPI   C3B 9055  17.382  -0.163   8.910  0.1196  0.0665 -0.0975
  566loPI   C4B 9056  17.635  -0.353   8.610 -0.1429  0.1938 -0.1754
  567loPI    C1 9057  12.125  15.507   9.623 -0.1811  0.1622 -0.0133
  567loPI    C2 9058  11.781  15.422   9.810 -0.1103  0.0229  0.0551
  567loPI    C3 9059  12.126  15.412  10.012 -0.0604  0.1142 -0.0250
  567loPI   PO4 9060  12.105  15.558   9.359  0.0750  0.4452  0.1059
  567loPI   GL1 9061  11.991  15.746   9.000 -0.2290  0.0622  0.0865
  567loPI   GL2 9062  11.815  15.497   8.882  0.2571 -0.0729  0.0136
  567loPI   C1A 9063  12.253  15.810   8.606  0.3443 -0.0601 -0.0939
  567loPI   C2A 9064  12.134  15.864   8.202  0.3143 -0.0256  0.1493
  567loPI   C3A 9065  11.987  15.753   7.766  0.0066  0.0160  0.1873
  567loPI   C4A 9066  12.318  15.622   7.353 -0.1013  0.0013  0.0780
  567loPI   C5A 9067  12.392  15.459   6.950  0.1269  0.0497 -0.0199
  567loPI   C6A 9068  12.405  15.529   6.478  0.0289 -0.0917  0.0075
  567loPI   C1B 9069  11.968  15.461   8.471 -0.0386  0.0632 -0.2152
  567loPI   C2B 9070  11.945  15.391   8.093 -0.0782  0.3739 -0.2382
  567loPI   C3B 9071  12.120  15.297   7.694 -0.1982  0.0985 -0.3000
  567loPI   C4B 9072  12.427  15.157   7.335 -0.0003 -0.0354 -0.1765
  568loPI    C1 9073  15.202   3.092   9.052 -0.1566  0.0863 -0.1877
  568loPI    C2 9074  15.197   3.401   9.305 -0.0057  0.0265 -0.1108
  568loPI    C3 9075  14.860   3.287   9.123 -0.1670 -0.0780  0.2434
  568loPI   PO4 9076  15.324   2.868   9.023  0.2232  0.3387  0.3215
  568loPI   GL1 9077  15.685   2.890   8.847 -0.0616 -0.0173 -0.0166
  568loPI   GL2 9078  16.007   2.643   8.754 -0.0485  0.1926  0.1850
  568loPI   C1A 9079  15.623   3.001   8.427  0.0015  0.0240  0.2820
  568loPI   C2A 9080  15.518   3.033   8.123 -0.0647  0.0450 -0.0526
  568loPI   C3A 9081  15.272   3.115   7.760  0.0374  0.1583 -0.0957
  568loPI   C4A 9082  15.222   3.236   7.297 -0.4044  0.3480  0.0288
  568loPI   C5A 9083  15.433   3.538   7.072  0.3098  0.0924 -0.2282
  568loPI   C6A 9084  15.543   3.721   7.408  0.0887 -0.3296  0.1462
  568loPI   C1B 9085  16.135   2.921   8.427 -0.0324  0.0281  0.0200
  568loPI   C2B 9086  16.073   2.649   8.043  0.0626 -0.0321 -0.2072
  568loPI   C3B 9087  16.324   2.643   7.702  0.3725  0.3078  0.2900
  568loPI   C4B 9088  16.334   2.478   7.369  0.1921  0.1487 -0.0253
  569loPI    C1 9089   6.860  10.015   9.725 -0.0548  0.1286  0.0462
  569loPI    C2 9090   6.627  10.208   9.987 -0.2137  0.0497 -0.0351
  569loPI    C3 9091   6.478   9.906   9.772  0.0022 -0.0923  0.0107
  569loPI   PO4 9092   7.014  10.208   9.650  0.1608  0.0473 -0.1054
  569loPI   GL1 9093   6.997  10.425   9.188 -0.3308 -0.0297 -0.3790
  569loPI   GL2 9094   6.611  10.360   9.377  0.1602 -0.1099 -0.2524
  569loPI   C1A 9095   6.896  10.097   9.013 -0.0129  0.1243 -0.0819
  569loPI   C2A 9096   6.793   9.866   8.692  0.1072 -0.1364  0.3678
  569loPI   C3A 9097   6.743   9.480   8.245  0.2208  0.1180 -0.2496
  569loPI   C4A 9098   6.733   9.381   7.833 -0.1683  0.0759  0.1073
  569loPI   C5A 9099   6.687   9.096   7.568 -0.2196  0.2943  0.0188
  569loPI   C6A 9100   6.983   8.907   7.201  0.2133  0.1773 -0.1207
  569loPI   C1B 9101   6.564  10.430   8.976  0.0489 -0.1899 -0.0848
  569loPI   C2B 9102   6.596  10.303   8.509 -0.1180  0.0178 -0.5191
  569loPI   C3B 9103   6.829  10.064   8.227 -0.0384  0.1074 -0.1228
  569loPI   C4B 9104   7.001   9.860   7.867 -0.1660  0.2509  0.4535
  570loPI    C1 9105  11.083  10.204   9.316  0.2707 -0.0816  0.2163
  570loPI    C2 9106  10.883   9.862   9.371 -0.0023  0.0538  0.0854
  570loPI    C3 9107  11.200   9.871   9.127  0.1346 -0.1501  0.2516
  570loPI   PO4 9108  10.904  10.376   9.259 -0.1750 -0.0268  0.1033
  570loPI   GL1 9109  10.819  10.515   8.881  0.0464 -0.1716  0.2676
  570loPI   GL2 9110  10.866  10.092   8.826  0.1589 -0.1980 -0.1219
  570loPI   C1A 9111  10.667  10.843   8.614  0.1943  0.0265  0.1710
  570loPI   C2A 9112  10.828  10.989   8.247 -0.0133 -0.0177 -0.0985
  570loPI   C3A 9113  10.852  11.175   7.973  0.1984 -0.1412  0.2541
  570loPI   C4A 9114  11.012  11.438   7.689  0.1433 -0.2698  0.2542
  570loPI   C5A 9115  11.087  11.268   7.320  0.0538 -0.1331  0.2713
  570loPI   C6A 9116  11.512  11.219   7.154  0.1134  0.2262  0.0101
  570loPI   C1B 9117  11.184   9.885   8.647  0.2829  0.2964  0.0516
  570loPI   C2B 9118  11.240   9.710   8.200 -0.0868 -0.2633  0.2246
  570loPI   C3B 9119  11.297   9.579   7.875 -0.1942 -0.1319  0.1384
  570loPI   C4B 9120  11.267   9.110   7.761  0.0110 -0.1122 -0.0447
  571loPI    C1 9121   2.072  18.711   9.599 -0.1769  0.0063 -0.1410
  571loPI    C2 9122   2.324  18.559   9.870 -0.1316  0.0339 -0.1677
  571loPI    C3 9123   1.997  18.354   9.764 -0.1497  0.0233 -0.0921
  571loPI   PO4 9124   2.260  18.735   9.364  0.1004  0.2463 -0.0741
  571loPI   GL1 9125   2.396  18.466   8.977 -0.3771  0.2830  0.0675
  571loPI   GL2 9126   2.333  18.737   8.890 -0.0921 -0.1684 -0.0920
  571loPI   C1A 9127   2.384  18.132   8.875 -0.1763  0.0078  0.4727
  571loPI   C2A 9128   2.689  17.999   8.669 -0.1766  0.0555 -0.3017
  571loPI   C3A 9129   2.676  17.818   8.289  0.0730 -0.1133 -0.1115
  571loPI   C4A 9130   2.497  17.796   7.896  0.0017  0.0452 -0.0279
  571loPI   C5A 9131   2.788  17.794   7.531  0.1989 -0.1260 -0.1337
  571loPI   C6A 9132   2.827  17.682   7.052 -0.3946 -0.3555  0.1492
  571loPI   C1B 9133   2.431  18.440   8.474  0.5206 -0.0449 -0.2606
  571loPI   C2B 9134   2.502  18.309   8.102  0.2394 -0.0418 -0.1958
  571loPI   C3B 9135   2.609  18.226   7.685 -0.1034  0.1339 -0.0103
  571loPI   C4B 9136   2.821  18.204   7.262 -0.3514 -0.1165  0.0733
  572loPI    C1 9137   2.103   1.289   9.385 -0.4531  0.0086 -0.1181
  572loPI    C2 9138   1.876   1.543   9.594 -0.0412  0.1539  0.1657
  572loPI    C3 9139   1.960   1.181   9.742 -0.2087  0.0419 -0.0081
  572loPI   PO4 9140   2.041   1.346   9.115 -0.2879  0.2189 -0.2540
  572loPI   GL1 9141   2.193   1.599   8.767  0.0514  0.1879 -0.0082
  572loPI   GL2 9142   2.332   1.933   8.772 -0.0560  0.2579  0.1796
  572loPI   C1A 9143   2.036   1.414   8.464 -0.0891 -0.2830 -0.2124
  572loPI   C2A 9144   2.145   1.455   8.068 -0.1003  0.2503 -0.1794
  572loPI   C3A 9145   2.404   1.563   7.621 -0.1147  0.3328 -0.1169
  572loPI   C4A 9146   2.625   1.383   7.295  0.0078 -0.1527  0.0765
  572loPI   C5A 9147   2.915   1.567   7.001 -0.2294  0.0195  0.2843
  572loPI   C6A 9148   3.295   1.661   6.709  0.1195 -0.1691 -0.1418
  572loPI   C1B 9149   2.327   1.831   8.391  0.0566 -0.3043 -0.1389
  572loPI   C2B 9150   2.536   1.860   8.098 -0.1269  0.0562 -0.0556
  572loPI   C3B 9151   2.821   1.831   7.716 -0.0080 -0.1609  0.1217
  572loPI   C4B 9152   2.985   1.927   7.322  0.1578 -0.1252  0.0006
  573loPI    C1 9153   3.684   6.934   9.835 -0.0933  0.0656 -0.2982
  573loPI    C2 9154   3.775   7.180  10.137 -0.1139  0.0841 -0.3070
  573loPI    C3 9155   3.979   6.840  10.088  0.0300  0.1822 -0.3968
  573loPI   PO4 9156   3.716   7.078   9.646 -0.1124  0.1855  0.1025
  573loPI   GL1 9157   3.954   7.129   9.270  0.0461  0.2027 -0.0086
  573loPI   GL2 9158   3.536   7.153   9.084 -0.4401  0.2493  0.2100
  573loPI   C1A 9159   4.143   7.115   8.838  0.0853  0.2330 -0.1007
  573loPI   C2A 9160   4.170   6.867   8.538 -0.0441  0.3369 -0.1891
  573loPI   C3A 9161   4.056   6.776   8.093 -0.2231 -0.2868  0.1887
  573loPI   C4A 9162   3.640   6.882   7.880 -0.5293  0.1210 -0.1793
  573loPI   C5A 9163   3.419   6.575   7.651  0.4182  0.0837  0.1905
  573loPI   C6A 9164   3.134   6.193   7.337 -0.0407  0.0914 -0.1694
  573loPI   C1B 9165   3.706   7.162   8.692 -0.0404  0.1234 -0.1562
  573loPI   C2B 9166   3.615   6.865   8.388 -0.1529 -0.3964  0.0635
  573loPI   C3B 9167   3.327   6.689   8.196 -0.1718  0.0252 -0.0100
  573loPI   C4B 9168   2.921   6.524   7.796  0.0175 -0.0079 -0.1850
  574loPI    C1 9169  15.813   5.576   9.470 -0.1476  0.1983 -0.1309
  574loPI    C2 9170  15.593   5.296   9.651  0.1306  0.1377  0.1218
  574loPI    C3 9171  15.552   5.680   9.754 -0.0276  0.1560 -0.0044
  574loPI   PO4 9172  15.826   5.441   9.208 -0.1507  0.1729  0.2728
  574loPI   GL1 9173  16.012   5.469   8.910 -0.1602 -0.0792 -0.1340
  574loPI   GL2 9174  15.940   5.868   8.886 -0.0014 -0.4481 -0.4418
  574loPI   C1A 9175  16.236   5.363   8.463 -0.3932 -0.0103 -0.1343
  574loPI   C2A 9176  16.369   5.536   8.034 -0.0900 -0.2243  0.1691
  574loPI   C3A 9177  16.304   5.616   7.642  0.0438  0.0138 -0.0429
  574loPI   C4A 9178  15.909   5.629   7.453 -0.3234  0.0712  0.0993
  574loPI   C5A 9179  15.505   5.501   7.212 -0.1209  0.2450 -0.0990
  574loPI   C6A 9180  15.104   5.599   7.066  0.0036 -0.1067  0.1185
  574loPI   C1B 9181  15.903   6.210   8.615 -0.2551 -0.4111  0.0443
  574loPI   C2B 9182  16.010   6.366   8.217  0.6539  0.1045 -0.1683
  574loPI   C3B 9183  16.363   6.556   8.004  0.0082  0.0660 -0.0872
  574loPI   C4B 9184  16.472   6.893   7.883 -0.3186 -0.1359 -0.1196
  575loPI    C1 9185   0.940  11.695  10.188 -0.0031  0.0695  0.0478
  575loPI    C2 9186   1.095  12.023  10.018  0.1337  0.0756  0.1826
  575loPI    C3 9187   1.013  12.020  10.410 -0.1870  0.0643  0.1185
  575loPI   PO4 9188   0.822  11.554   9.935  0.1229 -0.0965  0.0561
  575loPI   GL1 9189   0.816  11.434   9.442 -0.2217 -0.1734 -0.1193
  575loPI   GL2 9190   1.139  11.337   9.454 -0.1389  0.1412 -0.1747
  575loPI   C1A 9191   0.776  11.508   9.076  0.0867 -0.0210 -0.0953
  575loPI   C2A 9192   0.694  11.350   8.720  0.1256  0.0352  0.1399
  575loPI   C3A 9193   0.658  11.060   8.371  0.0268 -0.1088 -0.1749
  575loPI   C4A 9194   0.635  10.836   7.955 -0.0936  0.2423  0.2923
  575loPI   C5A 9195   0.696  10.728   7.517  0.0244 -0.0406  0.0868
  575loPI   C6A 9196   0.824  10.299   7.392 -0.1014 -0.1517  0.0551
  575loPI   C1B 9197   1.144  11.231   9.017  0.2831  0.0399 -0.1092
  575loPI   C2B 9198   1.162  11.040   8.572  0.2506 -0.2118 -0.5066
  575loPI   C3B 9199   1.464  11.113   8.119 -0.1291 -0.0909  0.2520
  575loPI   C4B 9200   1.496  11.214   7.628 -0.1374 -0.1749  0.1457
  576loPI    C1 9201   0.458   9.036   9.858 -0.0300  0.3655 -0.3460
  576loPI    C2 9202   0.139   8.882   9.673 -0.0853  0.0499 -0.0018
  576loPI    C3 9203   0.505   8.741   9.591 -0.0547  0.2543 -0.2287
  576loPI   PO4 9204   0.465   9.300   9.821 -0.2032  0.3008  0.0483
  576loPI   GL1 9205   0.673   9.374   9.478  0.1420  0.0307  0.1160
  576loPI   GL2 9206   0.531   9.485   9.291  0.0161  0.2317  0.0894
  576loPI   C1A 9207   0.916   9.182   9.218 -0.1156  0.0684 -0.1994
  576loPI   C2A 9208   1.348   9.053   9.210 -0.0898 -0.2813 -0.5807
  576loPI   C3A 9209   1.588   9.196   8.829 -0.2684  0.1814  0.1428
  576loPI   C4A 9210   1.622   9.601   8.664 -0.0375 -0.0534 -0.2977
  576loPI   C5A 9211   1.534   9.798   8.191 -0.3651 -0.1010 -0.2159
  576loPI   C6A 9212   1.610   9.889   7.816 -0.0570  0.0151 -0.1277
  576loPI   C1B 9213   0.725   9.705   8.934 -0.1493 -0.2286  0.1623
  576loPI   C2B 9214   0.810   9.845   8.604  0.0919 -0.2422 -0.1374
  576loPI   C3B 9215   0.906   9.897   8.209 -0.1098 -0.1721  0.1523
  576loPI   C4B 9216   0.835  10.200   8.135 -0.1103 -0.0078 -0.1534
  577loPI    C1 9217   1.275   9.871  10.064  0.1026  0.0539  0.0714
  577loPI    C2 9218   1.075   9.754  10.390 -0.1996 -0.0976 -0.1626
  577loPI    C3 9219   1.435   9.600  10.310 -0.1419 -0.0905  0.0751
  577loPI   PO4 9220   1.090   9.982   9.868 -0.0047 -0.0494  0.2477
  577loPI   GL1 9221   1.066   9.755   9.403  0.0536  0.0442 -0.0984
  577loPI   GL2 9222   1.059  10.079   9.331  0.1466  0.1420 -0.4663
  577loPI   C1A 9223   1.308   9.494   9.158 -0.2237 -0.1090  0.0209
  577loPI   C2A 9224   1.103   9.398   8.823  0.2582  0.2979  0.0293
  577loPI   C3A 9225   1.163   9.385   8.442  0.0799 -0.3570  0.0847
  577loPI   C4A 9226   1.206   9.523   7.963 -0.0850  0.1765 -0.3823
  577loPI   C5A 9227   1.285   9.625   7.497 -0.1830  0.0003 -0.0833
  577loPI   C6A 9228   0.986   9.776   7.275  0.1131 -0.0908  0.0559
  577loPI   C1B 9229   1.209   9.926   8.855 -0.0239 -0.0815  0.2087
  577loPI   C2B 9230   1.300  10.109   8.533  0.1277  0.0752  0.3515
  577loPI   C3B 9231   1.427  10.279   8.091 -0.1059  0.1366 -0.3431
  577loPI   C4B 9232   1.196  10.112   7.762 -0.0124 -0.1213 -0.0711
  578loPI    C1 9233  14.947   5.152   9.368 -0.0192  0.0705 -0.0592
  578loPI    C2 9234  15.149   5.492   9.431 -0.0349  0.0784 -0.0515
  578loPI    C3 9235  15.106   5.227   9.728 -0.1928  0.1599 -0.0004
  578loPI   PO4 9236  14.691   5.359   9.167  0.0577 -0.0506  0.2805
  578loPI   GL1 9237  14.819   5.640   8.724  0.5937 -0.4599  0.0318
  578loPI   GL2 9238  14.523   5.536   8.720  0.0247 -0.1530 -0.0960
  578loPI   C1A 9239  14.865   5.760   8.278  0.1203 -0.0085  0.0989
  578loPI   C2A 9240  14.861   5.596   7.905 -0.0817  0.0912  0.1297
  578loPI   C3A 9241  15.072   5.252   7.739 -0.0846  0.0219  0.3804
  578loPI   C4A 9242  15.082   5.225   7.367  0.1157  0.1544 -0.0770
  578loPI   C5A 9243  15.090   5.103   7.066 -0.0863 -0.2007 -0.0615
  578loPI   C6A 9244  15.208   5.147   6.708 -0.1533  0.0043 -0.0419
  578loPI   C1B 9245  14.628   5.337   8.347 -0.1404 -0.1314 -0.1654
  578loPI   C2B 9246  14.604   5.117   8.006 -0.1359 -0.0860 -0.0609
  578loPI   C3B 9247  14.703   4.958   7.630 -0.0507 -0.0115  0.1459
  578loPI   C4B 9248  14.635   4.569   7.651 -0.4273 -0.0171  0.0420
  579loPI    C1 9249  11.479   2.486   9.477  0.1010 -0.2253  0.0675
  579loPI    C2 9250  11.141   2.462   9.689  0.2169 -0.1126  0.2685
  579loPI    C3 9251  11.286   2.137   9.507  0.0402 -0.1778  0.2417
  579loPI   PO4 9252  11.536   2.711   9.325  0.3413  0.0648  0.1670
  579loPI   GL1 9253  11.536   2.861   8.889  0.0055 -0.1671 -0.6024
  579loPI   GL2 9254  11.556   3.191   8.706 -0.1176 -0.0529  0.1168
  579loPI   C1A 9255  11.493   2.640   8.454  0.2940  0.4028 -0.1081
  579loPI   C2A 9256  11.622   2.683   8.021 -0.0304  0.0268 -0.2160
  579loPI   C3A 9257  11.729   2.647   7.627 -0.0803 -0.1920  0.2657
  579loPI   C4A 9258  11.782   2.200   7.307  0.3077 -0.0888 -0.2037
  579loPI   C5A 9259  11.679   1.873   7.114  0.2898  0.3466 -0.1198
  579loPI   C6A 9260  11.771   1.505   6.867 -0.0297  0.0857 -0.0922
  579loPI   C1B 9261  11.230   3.523   8.580  0.0553 -0.1062 -0.2288
  579loPI   C2B 9262  11.087   3.846   8.310 -0.1095  0.1240 -0.0105
  579loPI   C3B 9263  10.842   4.210   8.295 -0.0790  0.0161 -0.0222
  579loPI   C4B 9264  10.484   4.538   8.390  0.1176 -0.0822  0.3057
  580loPI    C1 9265  14.852  10.689   9.170 -0.0004  0.0953  0.0969
  580loPI    C2 9266  15.114  10.450   9.356 -0.2026 -0.1482  0.0741
  580loPI    C3 9267  14.842  10.653   9.568 -0.0316  0.0644  0.0934
  580loPI   PO4 9268  15.010  10.873   8.928  0.1040  0.3373 -0.2581
  580loPI   GL1 9269  15.019  10.885   8.475 -0.0673  0.0296 -0.1454
  580loPI   GL2 9270  15.319  10.886   8.525 -0.0569 -0.0281 -0.1591
  580loPI   C1A 9271  14.687  10.954   8.179 -0.0418  0.1705 -0.2477
  580loPI   C2A 9272  14.712  10.878   7.627 -0.0661  0.1840  0.0434
  580loPI   C3A 9273  14.723  10.465   7.303 -0.0081 -0.2156 -0.1027
  580loPI   C4A 9274  14.678  10.473   6.925 -0.0572  0.0653  0.0764
  580loPI   C5A 9275  14.601  10.102   6.734  0.1722 -0.1906  0.3816
  580loPI   C6A 9276  14.296   9.859   6.702 -0.2399 -0.2856  0.0586
  580loPI   C1B 9277  15.248  10.663   8.097  0.0427 -0.2318  0.2356
  580loPI   C2B 9278  15.140  10.601   7.677  0.1475 -0.0361 -0.1076
  580loPI   C3B 9279  15.380  10.430   7.330 -0.1193  0.1599 -0.3249
  580loPI   C4B 9280  15.519  10.107   7.012 -0.0609  0.1372  0.3081
  581loPI    C1 9281   0.238   2.798   9.319  0.2278 -0.1128 -0.1432
  581loPI    C2 9282   0.634   2.840   9.350  0.1649  0.2161  0.3156
  581loPI    C3 9283   0.426   2.678   9.651 -0.0231 -0.2084 -0.0327
  581loPI   PO4 9284   0.206   2.571   9.153 -0.1812  0.3683 -0.5107
  581loPI   GL1 9285   0.563   2.634   8.678  0.0025 -0.1752  0.1636
  581loPI   GL2 9286   0.965   2.698   8.682 -0.0790  0.0269  0.0447
  581loPI   C1A 9287   0.458   2.619   8.288 -0.2931  0.1436  0.1300
  581loPI   C2A 9288   0.817   2.746   8.032  0.2233  0.0387 -0.0909
  581loPI   C3A 9289   0.976   3.110   7.853  0.0849  0.1019  0.0147
  581loPI   C4A 9290   1.142   3.071   7.460  0.1346  0.2050  0.0330
  581loPI   C5A 9291   0.957   2.942   7.009 -0.2405 -0.1931  0.0178
  581loPI   C6A 9292   1.204   2.910   6.514  0.2379  0.0531 -0.0885
  581loPI   C1B 9293   0.772   3.088   8.508 -0.0215 -0.2288 -0.1194
  581loPI   C2B 9294   0.743   3.444   8.193 -0.1337  0.3739  0.0791
  581loPI   C3B 9295   1.046   3.613   7.796  0.1112  0.1789  0.2362
  581loPI   C4B 9296   1.384   3.641   7.477 -0.3181  0.0346 -0.0132
  582loPI    C1 9297   1.649  16.916   9.328 -0.2815 -0.0011 -0.0581
  582loPI    C2 9298   1.686  17.015   9.713 -0.3714  0.1860 -0.0961
  582loPI    C3 9299   1.658  16.630   9.607 -0.0556  0.1167  0.0580
  582loPI   PO4 9300   1.781  17.111   9.116  0.0453 -0.2833  0.3929
  582loPI   GL1 9301   1.751  17.440   8.796 -0.2280 -0.2689  0.0682
  582loPI   GL2 9302   1.609  17.077   8.661  0.4451 -0.0545 -0.0247
  582loPI   C1A 9303   1.883  17.452   8.290  0.1043  0.0470  0.3028
  582loPI   C2A 9304   1.913  17.311   8.003  0.0359  0.1232 -0.0244
  582loPI   C3A 9305   1.939  17.582   7.662 -0.0312 -0.2435 -0.1149
  582loPI   C4A 9306   1.757  17.688   7.314 -0.0204 -0.3572 -0.0672
  582loPI   C5A 9307   1.423  17.488   7.019 -0.2965  0.0022  0.1354
  582loPI   C6A 9308   1.123  17.169   7.050 -0.3230  0.4784 -0.0505
  582loPI   C1B 9309   1.709  16.862   8.238  0.2275  0.1218 -0.2573
  582loPI   C2B 9310   1.732  16.843   7.847 -0.1740  0.4879 -0.3516
  582loPI   C3B 9311   1.992  16.947   7.521 -0.1665 -0.0760 -0.0338
  582loPI   C4B 9312   1.860  17.229   7.137 -0.0416 -0.0600  0.3754
  583loPI    C1 9313   3.831  16.586   9.208  0.1230  0.3917  0.2393
  583loPI    C2 9314   3.819  16.489   9.596 -0.2302 -0.1821  0.0971
  583loPI    C3 9315   3.518  16.695   9.432 -0.2171 -0.1861  0.0680
  583loPI   PO4 9316   4.124  16.632   9.190  0.0281  0.2356  0.3583
  583loPI   GL1 9317   4.287  16.702   8.790 -0.0165 -0.1598  0.1144
  583loPI   GL2 9318   4.090  16.403   8.785  0.1494  0.2397  0.1324
  583loPI   C1A 9319   4.317  16.609   8.320  0.0755  0.3096 -0.2229
  583loPI   C2A 9320   4.357  16.640   7.915 -0.0528  0.1780  0.2926
  583loPI   C3A 9321   4.509  16.514   7.569 -0.1176 -0.1787 -0.0409
  583loPI   C4A 9322   4.740  16.193   7.374 -0.1255 -0.2352 -0.2171
  583loPI   C5A 9323   5.150  15.960   7.435  0.0318  0.1233  0.0156
  583loPI   C6A 9324   5.638  15.919   7.404 -0.0331 -0.0587  0.3745
  583loPI   C1B 9325   4.187  16.106   8.423  0.1753  0.1390 -0.3110
  583loPI   C2B 9326   4.355  16.123   8.012 -0.0039  0.0069 -0.1971
  583loPI   C3B 9327   4.376  15.981   7.720  0.1005 -0.0625  0.1846
  583loPI   C4B 9328   4.232  15.934   7.249  0.5848 -0.1002  0.0815
  584loPI    C1 9329  17.039  17.697   9.239  0.1035 -0.0736  0.1604
  584loPI    C2 9330  16.697  17.581   9.411 -0.0068 -0.0575 -0.0451
  584loPI    C3 9331  16.990  17.738   9.634 -0.0995 -0.1499  0.1441
  584loPI   PO4 9332  16.987  17.623   9.032  0.1522 -0.2553  0.0337
  584loPI   GL1 9333  16.884  17.768   8.689  0.2703 -0.1590  0.1386
  584loPI   GL2 9334  16.769  17.527   8.592 -0.0323 -0.4596  0.0637
  584loPI   C1A 9335  16.914  18.068   8.334 -0.1257  0.0718  0.1208
  584loPI   C2A 9336  16.889  18.054   7.910  0.0431 -0.0722  0.1585
  584loPI   C3A 9337  16.996  18.277   7.547  0.1271 -0.1371  0.3371
  584loPI   C4A 9338  17.194  18.352   7.274 -0.2881  0.2962  0.4471
  584loPI   C5A 9339  17.467  18.233   6.933  0.3428 -0.0326  0.1065
  584loPI   C6A 9340  17.756  17.903   6.774  0.0688 -0.2453  0.0418
  584loPI   C1B 9341  16.904  17.563   8.080 -0.0333 -0.0434 -0.0138
  584loPI   C2B 9342  17.003  17.151   7.816  0.0034  0.0551  0.4092
  584loPI   C3B 9343  16.815  16.721   7.647  0.1629 -0.0013 -0.0881
  584loPI   C4B 9344  16.525  16.444   7.446  0.2461  0.2765  0.1373
  585loPI    C1 9345  13.460   9.719   9.413 -0.0284 -0.0513  0.0407
  585loPI    C2 9346  13.192   9.441   9.515 -0.2596  0.0693 -0.2243
  585loPI    C3 9347  13.195   9.795   9.702 -0.0466 -0.0619  0.0268
  585loPI   PO4 9348  13.457   9.901   9.117 -0.0130  0.2152 -0.0147
  585loPI   GL1 9349  13.408   9.816   8.709  0.1921  0.0896 -0.1662
  585loPI   GL2 9350  13.148  10.078   8.766 -0.0169 -0.3268  0.1081
  585loPI   C1A 9351  13.032   9.685   8.557  0.0444  0.2664 -0.1651
  585loPI   C2A 9352  13.060   9.594   8.108  0.0110 -0.1025 -0.0144
  585loPI   C3A 9353  13.010   9.652   7.693  0.2418 -0.0134 -0.0681
  585loPI   C4A 9354  13.116   9.520   7.250  0.1777 -0.0900  0.2369
  585loPI   C5A 9355  13.524   9.587   6.988 -0.0471 -0.1679 -0.1678
  585loPI   C6A 9356  13.866   9.530   6.840 -0.0432 -0.2785  0.0885
  585loPI   C1B 9357  13.394  10.157   8.416  0.0029 -0.3215  0.0958
  585loPI   C2B 9358  13.516   9.982   8.104 -0.1072  0.0384 -0.1480
  585loPI   C3B 9359  13.458   9.939   7.691  0.3116  0.1273  0.0500
  585loPI   C4B 9360  13.447   9.988   7.284  0.1847 -0.1721  0.2454
  586loPI    C1 9361  13.344   5.028   9.235 -0.1778  0.4210  0.0903
  586loPI    C2 9362  13.036   4.912   9.462 -0.2187  0.2732 -0.0392
  586loPI    C3 9363  13.346   5.101   9.629 -0.0576 -0.1988  0.2161
  586loPI   PO4 9364  13.219   5.125   9.048 -0.0315  0.1169 -0.0284
  586loPI   GL1 9365  13.266   4.974   8.657 -0.1131 -0.0128 -0.0570
  586loPI   GL2 9366  13.504   4.919   8.652 -0.1452 -0.2433 -0.2048
  586loPI   C1A 9367  13.216   5.337   8.420 -0.1544 -0.1542  0.3474
  586loPI   C2A 9368  13.281   5.530   7.921  0.0829  0.3369 -0.0500
  586loPI   C3A 9369  13.293   5.768   7.581  0.0849 -0.0320  0.1675
  586loPI   C4A 9370  13.456   5.830   7.315 -0.1877  0.1328 -0.1411
  586loPI   C5A 9371  13.308   6.098   6.983  0.0112  0.0161 -0.0441
  586loPI   C6A 9372  13.209   6.387   6.602 -0.4163  0.3564  0.0619
  586loPI   C1B 9373  13.665   5.090   8.337 -0.2341 -0.0216 -0.1651
  586loPI   C2B 9374  13.710   5.295   8.058  0.3199  0.3265 -0.2769
  586loPI   C3B 9375  14.049   5.360   7.833 -0.1752 -0.0336  0.2253
  586loPI   C4B 9376  14.213   5.303   7.587  0.2443  0.0147  0.2459
  587loPI    C1 9377  18.637  13.579   9.658  0.0987  0.0378 -0.1165
  587loPI    C2 9378  18.346  13.684   9.404 -0.0534 -0.2005 -0.0448
  587loPI    C3 9379  18.255  13.495   9.745  0.1557  0.0491  0.1542
  587loPI   PO4 9380  18.833  13.414   9.467  0.3130 -0.3300  0.1812
  587loPI   GL1 9381  18.970  13.694   9.084 -0.0449  0.1386  0.6124
  587loPI   GL2 9382  19.134  13.382   8.963  0.0625 -0.0058  0.3191
  587loPI   C1A 9383  18.607  13.873   8.993  0.0475  0.1174 -0.4029
  587loPI   C2A 9384  18.201  13.778   8.708  0.0343  0.1483 -0.0755
  587loPI   C3A 9385  18.329  13.747   8.188 -0.2608 -0.1898 -0.1715
  587loPI   C4A 9386  18.464  13.814   7.825 -0.2205 -0.3944  0.0312
  587loPI   C5A 9387  18.616  13.883   7.337  0.0094 -0.3651  0.2983
  587loPI   C6A 9388  18.957  14.067   7.211 -0.1420 -0.1242 -0.3019
  587loPI   C1B 9389  19.237  13.244   8.486  0.3357 -0.3395  0.3163
  587loPI   C2B 9390  19.325  13.177   8.021  0.0365  0.1390  0.0300
  587loPI   C3B 9391  19.286  13.143   7.683  0.2244 -0.1353  0.0418
  587loPI   C4B 9392  19.338  13.169   7.289 -0.4378 -0.1732 -0.0828
  588loPI    C1 9393   7.967  13.282   9.896  0.1469  0.1499  0.2928
  588loPI    C2 9394   7.799  13.598  10.074 -0.0868  0.0318  0.2863
  588loPI    C3 9395   7.585  13.374   9.821  0.1982  0.1102 -0.0311
  588loPI   PO4 9396   8.135  13.337   9.705  0.0283  0.1160  0.1577
  588loPI   GL1 9397   8.184  13.472   9.250  0.2883 -0.2332 -0.1385
  588loPI   GL2 9398   8.375  13.153   9.269  0.0655 -0.1957 -0.0613
  588loPI   C1A 9399   8.013  13.243   8.881 -0.2390  0.3607  0.3805
  588loPI   C2A 9400   7.821  13.077   8.555 -0.2809 -0.0773 -0.0484
  588loPI   C3A 9401   7.550  13.218   8.211  0.0215 -0.2312 -0.3025
  588loPI   C4A 9402   7.545  13.087   7.782 -0.2616 -0.0306  0.0385
  588loPI   C5A 9403   7.497  13.070   7.285 -0.0239  0.1802 -0.0610
  588loPI   C6A 9404   7.531  12.761   7.046  0.0445  0.0186 -0.2109
  588loPI   C1B 9405   8.523  12.977   8.807  0.2229  0.0871 -0.1429
  588loPI   C2B 9406   8.634  12.900   8.380 -0.1295 -0.1201 -0.3424
  588loPI   C3B 9407   8.507  12.997   7.909  0.0395  0.4156 -0.1128
  588loPI   C4B 9408   8.127  13.202   7.680 -0.0460  0.1415  0.2193
  589loPI    C1 9409  14.820   8.096   9.666 -0.2811 -0.0810  0.0136
  589loPI    C2 9410  14.848   7.707   9.754  0.4425 -0.0993 -0.2343
  589loPI    C3 9411  15.133   7.960   9.874 -0.0580  0.3784 -0.0101
  589loPI   PO4 9412  14.867   8.172   9.387 -0.0299 -0.1577 -0.1926
  589loPI   GL1 9413  14.855   8.361   8.965 -0.3147  0.0863 -0.0227
  589loPI   GL2 9414  14.723   8.098   8.882  0.0619 -0.1037  0.0323
  589loPI   C1A 9415  14.885   8.460   8.535  0.2596 -0.3552  0.3616
  589loPI   C2A 9416  15.098   8.667   8.223 -0.3226 -0.2131  0.0898
  589loPI   C3A 9417  15.118   8.646   7.727 -0.2137  0.3127 -0.0630
  589loPI   C4A 9418  15.364   8.372   7.523  0.3948 -0.1913  0.1822
  589loPI   C5A 9419  15.235   8.111   7.267  0.1066  0.0178 -0.2811
  589loPI   C6A 9420  15.186   7.930   6.802 -0.5085  0.0266 -0.2028
  589loPI   C1B 9421  14.745   7.733   8.745  0.0977  0.2818  0.0092
  589loPI   C2B 9422  14.666   7.365   8.571 -0.0512  0.0002  0.2857
  589loPI   C3B 9423  14.704   7.319   8.200 -0.5595  0.3708 -0.2626
  589loPI   C4B 9424  14.925   7.466   7.901 -0.1783 -0.1287 -0.2128
  590loPI    C1 9425  14.982   0.384   9.653 -0.2402 -0.1882  0.3869
  590loPI    C2 9426  15.292   0.132   9.631  0.0100  0.1213  0.2835
  590loPI    C3 9427  15.226   0.339   9.967 -0.0550  0.0928  0.2883
  590loPI   PO4 9428  14.993   0.525   9.425 -0.1240  0.0915 -0.3085
  590loPI   GL1 9429  15.370   0.348   9.063 -0.2612 -0.0470 -0.0159
  590loPI   GL2 9430  15.387  -0.078   9.128 -0.1139 -0.2372  0.1344
  590loPI   C1A 9431  15.131   0.470   8.759  0.0894 -0.1321  0.0314
  590loPI   C2A 9432  14.996   0.615   8.342 -0.0608 -0.1626 -0.1696
  590loPI   C3A 9433  15.107   0.892   7.962 -0.2434  0.1276 -0.1797
  590loPI   C4A 9434  14.976   0.910   7.535  0.1967  0.1227 -0.3449
  590loPI   C5A 9435  15.041   1.230   7.296  0.1655 -0.0665 -0.0751
  590loPI   C6A 9436  14.554   1.209   7.303 -0.0685 -0.2795  0.2502
  590loPI   C1B 9437  15.203  -0.000   8.732  0.1042 -0.2459  0.1137
  590loPI   C2B 9438  15.338   0.069   8.285  0.2329 -0.0105  0.0607
  590loPI   C3B 9439  15.330   0.327   7.952 -0.1327  0.3211  0.0898
  590loPI   C4B 9440  15.165   0.337   7.588 -0.2588 -0.1663  0.1839
  591loPI    C1 9441   2.471   6.383   9.325  0.1250  0.0778  0.0639
  591loPI    C2 9442   2.409   6.252   9.698  0.2117 -0.1030  0.0161
  591loPI    C3 9443   2.488   6.638   9.633  0.1825 -0.0678  0.1832
  591loPI   PO4 9444   2.280   6.270   9.191  0.0027 -0.0415  0.1372
  591loPI   GL1 9445   1.979   6.460   9.002  0.0959 -0.3232 -0.0660
  591loPI   GL2 9446   1.765   6.706   9.039  0.0914  0.1205  0.3103
  591loPI   C1A 9447   1.925   6.572   8.560 -0.1105 -0.1100  0.3474
  591loPI   C2A 9448   2.085   6.231   8.205  0.1029 -0.2190  0.1556
  591loPI   C3A 9449   1.997   6.254   7.794 -0.3978 -0.0549 -0.0609
  591loPI   C4A 9450   2.137   6.110   7.458 -0.0172 -0.0025  0.1580
  591loPI   C5A 9451   1.853   5.872   7.209  0.2009 -0.1842  0.0504
  591loPI   C6A 9452   1.714   5.909   6.844  0.3397  0.1473 -0.2462
  591loPI   C1B 9453   1.683   7.134   8.735  0.3498 -0.1361 -0.0314
  591loPI   C2B 9454   1.824   7.128   8.301  0.1977 -0.0486 -0.0530
  591loPI   C3B 9455   1.996   6.862   8.074 -0.1096  0.0755 -0.1017
  591loPI   C4B 9456   2.388   6.565   8.065 -0.1443 -0.1659 -0.3239
  592loPI    C1 9457   2.905  14.621   9.715  0.0620  0.2707 -0.0102
  592loPI    C2 9458   3.137  14.402   9.956 -0.0187  0.1783 -0.0159
  592loPI    C3 9459   3.004  14.759  10.077 -0.0255  0.1501  0.0601
  592loPI   PO4 9460   3.003  14.588   9.553  0.0330  0.4098 -0.2184
  592loPI   GL1 9461   2.848  14.457   9.123  0.1256  0.1062 -0.0734
  592loPI   GL2 9462   3.144  14.405   9.134  0.1540  0.1678  0.2662
  592loPI   C1A 9463   2.817  14.292   8.746 -0.5206 -0.1834 -0.0338
  592loPI   C2A 9464   2.720  14.026   8.346  0.2564  0.1411  0.1672
  592loPI   C3A 9465   2.702  13.931   7.896 -0.2251 -0.1928 -0.2150
  592loPI   C4A 9466   2.530  13.773   7.463 -0.1419  0.0379 -0.0320
  592loPI   C5A 9467   2.094  13.753   7.275 -0.2580  0.3802 -0.3532
  592loPI   C6A 9468   1.818  13.645   7.069 -0.2522 -0.2304  0.2730
  592loPI   C1B 9469   3.282  14.173   8.794 -0.0563 -0.1137 -0.2866
  592loPI   C2B 9470   3.252  13.970   8.414 -0.0222 -0.4024 -0.2753
  592loPI   C3B 9471   3.208  13.943   7.997 -0.0578 -0.3666 -0.0686
  592loPI   C4B 9472   3.071  13.883   7.568  0.1273  0.0799 -0.0033
  593loPI    C1 9473  19.077   0.036   9.475 -0.0403 -0.2009 -0.0291
  593loPI    C2 9474  19.021   0.409   9.608  0.3622 -0.2034  0.1607
  593loPI    C3 9475  18.714   0.203   9.457  0.1571  0.2411 -0.0464
  593loPI   PO4 9476  19.261   0.091   9.263 -0.1418 -0.1244  0.0597
  593loPI   GL1 9477  19.493   0.141   8.977 -0.0932  0.2953  0.0754
  593loPI   GL2 9478  19.697  -0.119   9.060 -0.0742  0.2083 -0.4111
  593loPI   C1A 9479  19.617   0.182   8.560  0.4377 -0.0053  0.2056
  593loPI   C2A 9480  19.669   0.287   8.158  0.3251  0.0339  0.0758
  593loPI   C3A 9481  19.768   0.149   7.851 -0.2373  0.3143  0.0688
  593loPI   C4A 9482  19.869  -0.033   7.539 -0.1100  0.1737  0.2172
  593loPI   C5A 9483  20.049   0.174   7.097  0.0081 -0.1481  0.4891
  593loPI   C6A 9484  19.743   0.258   6.738  0.1935 -0.0354  0.0007
  593loPI   C1B 9485  19.681  -0.283   8.670 -0.0958  0.1475 -0.0874
  593loPI   C2B 9486  19.350  -0.342   8.417  0.2600  0.0308 -0.0476
  593loPI   C3B 9487  19.059  -0.088   8.029 -0.1348 -0.1343 -0.0704
  593loPI   C4B 9488  18.897   0.159   7.783  0.0725 -0.1682  0.3749
  594loPI    C1 9489  15.473   2.990   9.476  0.0414  0.0208  0.0694
  594loPI    C2 9490  15.425   3.300   9.725 -0.0846  0.1050 -0.0582
  594loPI    C3 9491  15.532   2.942   9.868 -0.0264  0.1853  0.1005
  594loPI   PO4 9492  15.654   3.136   9.299 -0.0275 -0.1933 -0.2539
  594loPI   GL1 9493  15.629   3.339   9.011 -0.0063  0.0342  0.0319
  594loPI   GL2 9494  15.878   3.401   8.849 -0.1567  0.0320 -0.1491
  594loPI   C1A 9495  15.344   3.466   8.771 -0.4588 -0.2835  0.2269
  594loPI   C2A 9496  15.089   3.268   8.390  0.0387  0.3845  0.2372
  594loPI   C3A 9497  14.935   3.321   8.021 -0.2128  0.0089  0.0621
  594loPI   C4A 9498  14.493   3.337   7.702 -0.2719  0.2490  0.3346
  594loPI   C5A 9499  14.391   3.157   7.335  0.0549 -0.0182  0.1295
  594loPI   C6A 9500  14.213   2.733   7.199 -0.1404 -0.2653  0.1325
  594loPI   C1B 9501  15.893   3.413   8.381 -0.0027  0.4506  0.5228
  594loPI   C2B 9502  16.007   3.139   8.017  0.1795  0.1362 -0.3560
  594loPI   C3B 9503  16.245   3.114   7.683 -0.1117 -0.0020  0.1221
  594loPI   C4B 9504  16.529   3.078   7.364  0.0122 -0.1652  0.0654
  595loPI    C1 9505   5.847   1.002   9.619  0.2465  0.0947 -0.1410
  595loPI    C2 9506   5.696   1.271   9.364 -0.1702  0.0938  0.0948
  595loPI    C3 9507   5.794   1.381   9.736 -0.0994 -0.0260  0.1119
  595loPI   PO4 9508   5.741   0.793   9.581  0.1881 -0.2251 -0.0410
  595loPI   GL1 9509   5.775   0.386   9.347  0.0932 -0.0851  0.0094
  595loPI   GL2 9510   5.426   0.331   9.494  0.2281 -0.2619 -0.2723
  595loPI   C1A 9511   5.559   0.474   8.974 -0.1454  0.0428 -0.1981
  595loPI   C2A 9512   5.417   0.485   8.502  0.0393 -0.1677 -0.0831
  595loPI   C3A 9513   5.217   0.534   8.179  0.1562  0.2505  0.1724
  595loPI   C4A 9514   5.172   0.513   7.731  0.1567  0.2115  0.0500
  595loPI   C5A 9515   5.012   0.764   7.333 -0.0634 -0.1225  0.0128
  595loPI   C6A 9516   4.761   1.004   7.121 -0.0059 -0.0199  0.2077
  595loPI   C1B 9517   5.479   0.006   9.084  0.0164  0.0184  0.0508
  595loPI   C2B 9518   5.449   0.005   8.665  0.1920 -0.0233  0.2444
  595loPI   C3B 9519   5.486  -0.094   8.261  0.1643 -0.1605  0.0647
  595loPI   C4B 9520   5.168   0.041   7.869 -0.0586  0.2424 -0.1922
  596loPI    C1 9521  10.511  17.889   9.410 -0.0962 -0.0015  0.1291
  596loPI    C2 9522  10.543  17.735   9.778 -0.1167  0.1267  0.1851
  596loPI    C3 9523  10.239  17.627   9.541  0.1184 -0.2673  0.0530
  596loPI   PO4 9524  10.804  17.814   9.207 -0.0000 -0.0916  0.3458
  596loPI   GL1 9525  10.964  18.185   8.955 -0.0899 -0.0561  0.1294
  596loPI   GL2 9526  10.708  18.375   8.809 -0.1897 -0.1631 -0.0290
  596loPI   C1A 9527  10.872  18.002   8.485 -0.2931  0.1576  0.1471
  596loPI   C2A 9528  10.759  18.148   8.125 -0.1493 -0.0603 -0.2552
  596loPI   C3A 9529  10.580  17.877   7.913 -0.2819  0.2592 -0.1547
  596loPI   C4A 9530  10.704  17.597   7.623  0.1511  0.2524 -0.1454
  596loPI   C5A 9531  10.570  17.195   7.437 -0.1221 -0.2220 -0.0135
  596loPI   C6A 9532  10.687  16.752   7.692 -0.1239 -0.6223  0.3076
  596loPI   C1B 9533  11.133  18.394   8.470 -0.1230 -0.2581  0.1221
  596loPI   C2B 9534  11.135  18.372   7.866  0.0490  0.4324  0.3204
  596loPI   C3B 9535  11.022  18.106   7.562  0.2605  0.0549  0.1396
  596loPI   C4B 9536  10.654  18.050   7.427  0.0771  0.0479 -0.1031
  597loPI    C1 9537  16.740  18.653   9.211 -0.0511  0.3507  0.2493
  597loPI    C2 9538  16.392  18.558   9.383  0.0932 -0.2088  0.2547
  597loPI    C3 9539  16.730  18.543   9.596  0.1340  0.2940  0.2389
  597loPI   PO4 9540  16.815  18.604   8.914  0.0245 -0.1454  0.0465
  597loPI   GL1 9541  16.741  18.774   8.498 -0.2356  0.1193 -0.0488
  597loPI   GL2 9542  17.074  18.798   8.477  0.3325  0.1576  0.0224
  597loPI   C1A 9543  16.731  18.507   8.152 -0.1769  0.2571  0.2108
  597loPI   C2A 9544  16.522  18.299   7.802  0.4685  0.1411 -0.0619
  597loPI   C3A 9545  16.391  18.439   7.454  0.3085 -0.1353  0.1626
  597loPI   C4A 9546  16.380  18.777   7.178 -0.1468  0.1933  0.1986
  597loPI   C5A 9547  16.533  18.775   6.690 -0.1004 -0.3086  0.0363
  597loPI   C6A 9548  16.932  18.586   6.416  0.1649 -0.3321  0.0738
  597loPI   C1B 9549  17.121  18.811   7.994 -0.2942  0.1666  0.2738
  597loPI   C2B 9550  16.902  18.795   7.556  0.0015 -0.1061  0.0326
  597loPI   C3B 9551  16.912  18.791   7.047 -0.0574  0.1473  0.0675
  597loPI   C4B 9552  17.249  18.763   6.729 -0.1195  0.2119 -0.0855
  598loPI    C1 9553   1.118  11.093   9.965 -0.1127 -0.0528 -0.1433
  598loPI    C2 9554   0.875  10.827  10.140 -0.0579  0.0388  0.0749
  598loPI    C3 9555   0.906  11.198  10.287  0.0021  0.1127 -0.1205
  598loPI   PO4 9556   1.242  10.947   9.834 -0.1522 -0.1273 -0.2273
  598loPI   GL1 9557   1.572  10.969   9.496  0.4123 -0.1905  0.5765
  598loPI   GL2 9558   1.542  11.176   9.236 -0.0419 -0.2731  0.1864
  598loPI   C1A 9559   1.294  10.800   9.116  0.0510 -0.0245  0.2175
  598loPI   C2A 9560   1.264  10.431   8.848 -0.1888 -0.0060 -0.1021
  598loPI   C3A 9561   1.598  10.495   8.537  0.0299 -0.0624 -0.2693
  598loPI   C4A 9562   1.686  10.669   8.156 -0.2081  0.2966  0.1808
  598loPI   C5A 9563   1.581  10.734   7.820 -0.3181  0.1000  0.0025
  598loPI   C6A 9564   1.339  10.638   7.409 -0.0359 -0.3481 -0.0707
  598loPI   C1B 9565   1.682  11.034   8.823  0.5972  0.2751 -0.0398
  598loPI   C2B 9566   1.863  11.047   8.378  0.0708 -0.0692  0.2967
  598loPI   C3B 9567   1.984  11.064   7.912 -0.1469  0.1034 -0.2350
  598loPI   C4B 9568   2.429  11.235   7.866 -0.1337  0.0839 -0.1064
  599loPI    C1 9569  18.786   7.053   9.292 -0.1159  0.2042  0.1566
  599loPI    C2 9570  19.013   7.029   9.620 -0.1044 -0.1446  0.1267
  599loPI    C3 9571  18.673   7.238   9.627  0.2167  0.3940  0.1679
  599loPI   PO4 9572  18.982   7.048   9.124 -0.2175  0.3015  0.3038
  599loPI   GL1 9573  19.080   6.756   8.841 -0.1921  0.0064  0.2372
  599loPI   GL2 9574  19.350   6.742   8.745  0.5097  0.3988  0.0245
  599loPI   C1A 9575  18.964   6.989   8.491  0.1866 -0.3008 -0.1226
  599loPI   C2A 9576  18.872   6.993   8.084 -0.0013 -0.0686 -0.0205
  599loPI   C3A 9577  18.908   6.902   7.656  0.0866  0.1670 -0.0192
  599loPI   C4A 9578  18.954   6.623   7.334  0.0864 -0.0757  0.1608
  599loPI   C5A 9579  18.750   6.210   7.364 -0.0435  0.0013  0.1870
  599loPI   C6A 9580  18.405   6.000   7.057  0.0451 -0.0646 -0.2974
  599loPI   C1B 9581  19.292   6.773   8.248 -0.0393  0.0488 -0.2189
  599loPI   C2B 9582  19.352   6.924   7.838 -0.0492  0.1810 -0.1892
  599loPI   C3B 9583  19.351   6.920   7.380  0.3209 -0.4064  0.0505
  599loPI   C4B 9584  19.362   7.143   7.111  0.4323  0.1269  0.0416
  600loPI    C1 9585   7.015   7.088   9.412  0.0701  0.0203 -0.0803
  600loPI    C2 9586   6.697   7.219   9.616  0.0332 -0.1123 -0.0522
  600loPI    C3 9587   6.956   7.481   9.461  0.0405 -0.0097  0.1308
  600loPI   PO4 9588   7.116   6.975   9.271  0.1424 -0.0210  0.1125
  600loPI   GL1 9589   7.251   6.950   8.835  0.3610 -0.0308  0.1628
  600loPI   GL2 9590   7.529   7.076   8.603  0.1508  0.1739 -0.2344
  600loPI   C1A 9591   7.117   6.832   8.374  0.2503 -0.2567  0.0422
  600loPI   C2A 9592   7.125   6.827   7.982 -0.0049 -0.0250 -0.0005
  600loPI   C3A 9593   7.275   6.795   7.590  0.2515 -0.0002 -0.0121
  600loPI   C4A 9594   7.617   6.891   7.331 -0.0618  0.3505  0.1512
  600loPI   C5A 9595   7.949   6.641   7.153 -0.0907  0.2586 -0.2078
  600loPI   C6A 9596   8.368   6.666   7.108  0.1056 -0.1454 -0.1370
  600loPI   C1B 9597   7.462   7.126   8.158  0.2701 -0.1944  0.0519
  600loPI   C2B 9598   7.556   7.126   7.762 -0.0518 -0.1723 -0.1581
  600loPI   C3B 9599   7.612   7.520   7.443 -0.1446 -0.1367 -0.1005
  600loPI   C4B 9600   7.560   7.520   7.015 -0.0333 -0.0862 -0.0252
  601loPI    C1 9601   9.782  17.012   9.713 -0.2633 -0.0862 -0.1910
  601loPI    C2 9602   9.780  16.619   9.790 -0.2294 -0.0481  0.0115
  601loPI    C3 9603   9.998  16.866  10.016 -0.2754  0.0919 -0.0955
  601loPI   PO4 9604   9.678  16.987   9.425 -0.2593  0.3128 -0.1063
  601loPI   GL1 9605   9.712  17.198   8.951  0.0741  0.1009 -0.1479
  601loPI   GL2 9606   9.442  17.209   8.755  0.0505  0.1701  0.4149
  601loPI   C1A 9607   9.866  16.835   8.711  0.2826 -0.2454 -0.1348
  601loPI   C2A 9608  10.031  16.841   8.258  0.0022  0.0667 -0.0309
  601loPI   C3A 9609  10.271  16.932   7.915  0.2639 -0.5574 -0.0816
  601loPI   C4A 9610  10.215  16.808   7.495 -0.0594  0.1544  0.2234
  601loPI   C5A 9611  10.109  16.567   7.070 -0.1756  0.1254 -0.1400
  601loPI   C6A 9612   9.859  16.357   6.666 -0.1108  0.0183 -0.0722
  601loPI   C1B 9613   9.375  16.962   8.335  0.2892  0.1915 -0.2247
  601loPI   C2B 9614   9.544  16.862   8.036 -0.2107 -0.4837  0.2058
  601loPI   C3B 9615   9.804  16.717   7.748 -0.0480 -0.1391 -0.2482
  601loPI   C4B 9616   9.704  16.814   7.288 -0.0596  0.1618 -0.1379
  602loPI    C1 9617   2.495  17.524   9.865  0.2372  0.1351  0.3049
  602loPI    C2 9618   2.888  17.588   9.907  0.3287 -0.1096 -0.1188
  602loPI    C3 9619   2.748  17.214   9.886  0.0577 -0.0260  0.1309
  602loPI   PO4 9620   2.334  17.709   9.507  0.0888 -0.0001 -0.1193
  602loPI   GL1 9621   2.367  17.651   9.117 -0.1855 -0.0667 -0.0489
  602loPI   GL2 9622   2.191  17.405   9.058  0.2880  0.0799 -0.0058
  602loPI   C1A 9623   2.347  17.648   8.659  0.2449  0.0052 -0.1272
  602loPI   C2A 9624   2.429  17.358   8.254  0.1422 -0.0274  0.0703
  602loPI   C3A 9625   2.349  17.266   7.824  0.2214  0.3613 -0.0191
  602loPI   C4A 9626   2.303  17.344   7.357  0.0870  0.1516  0.0869
  602loPI   C5A 9627   2.343  17.384   6.987 -0.1727 -0.0982 -0.2507
  602loPI   C6A 9628   2.495  17.796   6.687  0.0627 -0.0474 -0.1201
  602loPI   C1B 9629   2.136  17.131   8.613  0.0322  0.1285  0.1391
  602loPI   C2B 9630   2.200  16.926   8.202  0.4163 -0.2443  0.0726
  602loPI   C3B 9631   2.404  16.706   7.908 -0.2051  0.1054  0.0417
  602loPI   C4B 9632   2.366  16.550   7.417  0.0512  0.1885  0.1302
  603loPI    C1 9633  19.756   4.977   9.220 -0.2233 -0.1371  0.0340
  603loPI    C2 9634  19.666   4.932   9.607 -0.1555 -0.2131  0.0412
  603loPI    C3 9635  19.989   4.752   9.455  0.1761  0.3180  0.0898
  603loPI   PO4 9636  19.742   5.374   9.198 -0.0438 -0.2568  0.1044
  603loPI   GL1 9637  19.684   5.671   8.803  0.1643 -0.2084 -0.1796
  603loPI   GL2 9638  19.705   5.396   8.654  0.1326  0.0733  0.2207
  603loPI   C1A 9639  19.790   5.932   8.399 -0.2724  0.1166 -0.1364
  603loPI   C2A 9640  19.746   5.951   7.956  0.4196  0.1621  0.1823
  603loPI   C3A 9641  19.635   6.168   7.588  0.1654 -0.0057  0.1603
  603loPI   C4A 9642  19.406   6.261   7.190 -0.0373  0.0786 -0.1153
  603loPI   C5A 9643  19.317   6.590   7.005  0.1190 -0.2754  0.0604
  603loPI   C6A 9644  19.180   6.515   6.541  0.1874  0.2796  0.2215
  603loPI   C1B 9645  19.792   5.308   8.276 -0.1151  0.0510  0.0201
  603loPI   C2B 9646  19.615   5.488   7.876 -0.4705  0.0061  0.3792
  603loPI   C3B 9647  19.663   5.669   7.417  0.2314 -0.3197 -0.0584
  603loPI   C4B 9648  19.614   5.640   6.974 -0.1901  0.0836  0.2929
  604loPI    C1 9649  15.461  15.858   9.624  0.2013 -0.1572 -0.0229
  604loPI    C2 9650  15.657  16.184   9.746  0.4526 -0.2024 -0.2945
  604loPI    C3 9651  15.628  15.866   9.987  0.0954  0.0608  0.0225
  604loPI   PO4 9652  15.529  15.897   9.344 -0.1194  0.1619 -0.0676
  604loPI   GL1 9653  15.384  15.746   8.902  0.0519 -0.1261  0.1031
  604loPI   GL2 9654  15.209  15.482   9.007 -0.0051  0.2112  0.0563
  604loPI   C1A 9655  15.586  15.815   8.590 -0.3929 -0.2725  0.3566
  604loPI   C2A 9656  15.598  15.803   8.150 -0.1916 -0.4002  0.0263
  604loPI   C3A 9657  15.509  15.512   8.009 -0.0697  0.2282 -0.1510
  604loPI   C4A 9658  15.245  15.375   7.645 -0.1545 -0.3190  0.0587
  604loPI   C5A 9659  14.937  15.394   7.434 -0.0965 -0.3602 -0.2873
  604loPI   C6A 9660  14.739  15.501   7.045  0.0886  0.5020  0.0874
  604loPI   C1B 9661  15.342  15.391   8.514  0.0351  0.3496 -0.0008
  604loPI   C2B 9662  15.070  15.311   8.182 -0.2565  0.3937  0.0204
  604loPI   C3B 9663  14.931  15.061   7.881  0.1743 -0.0037  0.0089
  604loPI   C4B 9664  15.135  14.917   7.509  0.0156  0.1657  0.1578
  605loPI    C1 9665  19.537   9.814   9.912  0.1065 -0.3971  0.3094
  605loPI    C2 9666  19.316   9.933  10.224  0.1191  0.1684  0.1136
  605loPI    C3 9667  19.715   9.959  10.239  0.1265  0.0737  0.0972
  605loPI   PO4 9668  19.543   9.964   9.590 -0.0826 -0.0019 -0.0977
  605loPI   GL1 9669  19.732  10.029   9.172 -0.0478 -0.0037 -0.3447
  605loPI   GL2 9670  19.986   9.799   9.256  0.0686 -0.0261  0.1086
  605loPI   C1A 9671  19.706   9.885   8.711 -0.0897 -0.0024  0.4110
  605loPI   C2A 9672  19.650   9.892   8.214 -0.0123  0.0811  0.1756
  605loPI   C3A 9673  19.561   9.718   7.803 -0.0235 -0.0763  0.1104
  605loPI   C4A 9674  19.764   9.814   7.480  0.2791 -0.1265  0.0878
  605loPI   C5A 9675  19.813  10.055   7.119 -0.1098  0.0487  0.3940
  605loPI   C6A 9676  19.831  10.495   7.007 -0.2261 -0.0237 -0.2383
  605loPI   C1B 9677  20.195   9.923   8.817  0.1823  0.4083 -0.1184
  605loPI   C2B 9678  20.191   9.833   8.433  0.1858  0.0002  0.3797
  605loPI   C3B 9679  20.400   9.797   8.055  0.1022 -0.0985 -0.3080
  605loPI   C4B 9680  20.605   9.890   7.714  0.1606 -0.0844  0.5125
  606loPI    C1 9681  10.049  19.105   8.850 -0.0705 -0.1208  0.3749
  606loPI    C2 9682  10.176  19.265   9.194 -0.3731  0.3684  0.2693
  606loPI    C3 9683  10.203  19.474   8.854 -0.2294 -0.0457  0.0179
  606loPI   PO4 9684   9.818  18.996   8.939 -0.1594 -0.1380 -0.2215
  606loPI   GL1 9685   9.513  18.999   8.714 -0.3964  0.0872  0.0242
  606loPI   GL2 9686   9.324  19.228   8.637  0.3068 -0.0273  0.0638
  606loPI   C1A 9687   9.746  19.051   8.314  0.0912 -0.2871 -0.1528
  606loPI   C2A 9688   9.773  19.265   7.941  0.0967 -0.0779  0.0953
  606loPI   C3A 9689   9.566  19.287   7.508 -0.5051 -0.3184 -0.1287
  606loPI   C4A 9690   9.605  19.121   7.104 -0.0385 -0.4070  0.1225
  606loPI   C5A 9691   9.474  19.146   6.665  0.5334 -0.3737 -0.3593
  606loPI   C6A 9692   9.385  18.913   6.270 -0.2197 -0.1450 -0.0487
  606loPI   C1B 9693   9.324  19.317   8.173  0.0038 -0.0189  0.1254
  606loPI   C2B 9694   9.080  19.204   7.814  0.0408 -0.2710  0.1184
  606loPI   C3B 9695   8.979  19.195   7.419  0.1168 -0.0004 -0.2003
  606loPI   C4B 9696   8.700  19.299   7.121 -0.0699 -0.2663 -0.1498
  607loPI    C1 9697   5.250   0.009   9.793  0.0250 -0.1301  0.1334
  607loPI    C2 9698   5.245  -0.218   9.463 -0.1231  0.1760 -0.0797
  607loPI    C3 9699   5.594  -0.095   9.617 -0.0461 -0.1195 -0.0129
  607loPI   PO4 9700   4.972   0.154   9.707 -0.2113  0.0078 -0.0508
  607loPI   GL1 9701   4.895   0.399   9.342 -0.1275  0.0527  0.1564
  607loPI   GL2 9702   4.621   0.274   9.304  0.1047  0.1236  0.2163
  607loPI   C1A 9703   5.063   0.294   8.873  0.0847 -0.1692  0.3253
  607loPI   C2A 9704   5.035   0.096   8.373  0.1946  0.2135  0.1115
  607loPI   C3A 9705   4.730   0.220   8.003 -0.1111  0.0089 -0.0320
  607loPI   C4A 9706   4.797   0.229   7.598  0.0181  0.0343 -0.1832
  607loPI   C5A 9707   5.139   0.113   7.297 -0.0814 -0.0227 -0.0558
  607loPI   C6A 9708   5.596  -0.103   7.160  0.0145 -0.0352 -0.1508
  607loPI   C1B 9709   4.317   0.493   9.047  0.1620  0.1048  0.0094
  607loPI   C2B 9710   4.337   0.366   8.606 -0.0746  0.0981  0.1557
  607loPI   C3B 9711   4.309   0.471   8.210  0.0748  0.0792 -0.1806
  607loPI   C4B 9712   4.308   0.402   7.719 -0.0303 -0.1091  0.1701
  608loPI    C1 9713   0.652   7.164   9.562  0.0450  0.0094 -0.1899
  608loPI    C2 9714   0.525   7.359   9.887 -0.1473 -0.2794 -0.0870
  608loPI    C3 9715   0.904   7.232   9.865 -0.0280  0.0739 -0.1433
  608loPI   PO4 9716   0.714   7.390   9.367  0.1821  0.0644 -0.0763
  608loPI   GL1 9717   0.865   7.480   9.003 -0.2060 -0.1015 -0.0724
  608loPI   GL2 9718   0.420   7.316   8.934  0.0943  0.0304 -0.1659
  608loPI   C1A 9719   0.768   7.476   8.594 -0.2964  0.1893 -0.0330
  608loPI   C2A 9720   0.663   7.589   8.239 -0.1231  0.1248 -0.0382
  608loPI   C3A 9721   0.527   7.731   7.865  0.1036 -0.0682  0.1799
  608loPI   C4A 9722   0.788   7.722   7.575 -0.1299 -0.0347  0.3441
  608loPI   C5A 9723   1.113   7.634   7.212  0.0403 -0.5848  0.1203
  608loPI   C6A 9724   0.965   7.100   6.981 -0.0103 -0.1926 -0.1324
  608loPI   C1B 9725   0.442   7.160   8.386 -0.1244  0.0559 -0.4012
  608loPI   C2B 9726   0.511   7.247   7.890 -0.3687 -0.2022 -0.1813
  608loPI   C3B 9727   0.410   7.339   7.459 -0.0914 -0.1072  0.2112
  608loPI   C4B 9728   0.663   7.516   7.125 -0.2124 -0.0957  0.0763
  609loPI    C1 9729   9.407  13.249   9.844 -0.3298  0.1266 -0.4149
  609loPI    C2 9730   9.119  13.209   9.570 -0.5756 -0.3362 -0.1033
  609loPI    C3 9731   9.039  13.138   9.955 -0.1845  0.1060  0.0687
  609loPI   PO4 9732   9.621  13.466   9.644  0.1101  0.1030 -0.2928
  609loPI   GL1 9733   9.711  13.561   9.229 -0.0373 -0.3795  0.3425
  609loPI   GL2 9734   9.969  13.366   9.234  0.1685 -0.2409  0.0595
  609loPI   C1A 9735   9.673  13.628   8.808 -0.0675  0.0260 -0.1079
  609loPI   C2A 9736   9.473  13.590   8.412 -0.1165  0.1197 -0.1864
  609loPI   C3A 9737   9.283  13.366   8.032  0.1115  0.3775  0.1116
  609loPI   C4A 9738   8.941  13.209   7.820  0.1643 -0.1241  0.1279
  609loPI   C5A 9739   8.630  13.220   7.493 -0.1325  0.2259  0.1314
  609loPI   C6A 9740   8.502  12.907   7.305 -0.0707 -0.1060 -0.1413
  609loPI   C1B 9741  10.096  13.089   8.830  0.0324  0.1288 -0.4070
  609loPI   C2B 9742   9.979  13.219   8.354 -0.0338  0.0052  0.1016
  609loPI   C3B 9743   9.853  13.462   7.969 -0.2653  0.1316 -0.3919
  609loPI   C4B 9744   9.574  13.417   7.603 -0.3056  0.2652 -0.1204
  610loPI    C1 9745  10.508  10.594   9.626  0.1576  0.1483 -0.1611
  610loPI    C2 9746  10.601  10.205   9.622  0.1695  0.1417  0.2865
  610loPI    C3 9747  10.859  10.470   9.772  0.1182  0.3127  0.0774
  610loPI   PO4 9748  10.493  10.639   9.373  0.2152 -0.0827 -0.0964
  610loPI   GL1 9749  10.264  10.627   9.014 -0.0857  0.2718 -0.1396
  610loPI   GL2 9750   9.935  10.775   9.029 -0.0548  0.1663  0.2256
  610loPI   C1A 9751  10.324  10.511   8.567  0.1787  0.0496  0.3433
  610loPI   C2A 9752  10.250  10.409   8.074  0.1109  0.2666 -0.2088
  610loPI   C3A 9753  10.026  10.513   7.689 -0.1136  0.0904 -0.2830
  610loPI   C4A 9754   9.869  10.412   7.371  0.3406 -0.0217  0.1475
  610loPI   C5A 9755   9.628  10.560   6.983 -0.2166 -0.1942  0.0558
  610loPI   C6A 9756   9.422  10.975   6.796 -0.2674  0.2836 -0.2930
  610loPI   C1B 9757   9.918  10.777   8.567  0.0203  0.2474  0.2731
  610loPI   C2B 9758   9.743  10.598   8.147  0.4719 -0.1084  0.0599
  610loPI   C3B 9759   9.529  10.526   7.762  0.3112  0.2915 -0.0913
  610loPI   C4B 9760   9.365  10.276   7.421 -0.0767  0.1312 -0.1618
  611loPI    C1 9761   9.465   3.776   9.377  0.0256  0.0012  0.2703
  611loPI    C2 9762   9.642   3.511   9.135  0.2762  0.3210  0.0950
  611loPI    C3 9763   9.396   3.385   9.424  0.3860 -0.0990  0.0119
  611loPI   PO4 9764   9.517   3.958   9.250  0.3604  0.5302  0.3270
  611loPI   GL1 9765   9.634   4.014   8.851 -0.3289 -0.4848 -0.1502
  611loPI   GL2 9766   9.572   4.360   8.842 -0.5762  0.1303 -0.2785
  611loPI   C1A 9767   9.888   3.869   8.481  0.0375 -0.1685 -0.1425
  611loPI   C2A 9768   9.937   3.828   8.059  0.0476 -0.1502 -0.0570
  611loPI   C3A 9769   9.957   3.875   7.591  0.2202  0.0687 -0.0595
  611loPI   C4A 9770   9.753   3.811   7.206 -0.0672  0.3260  0.0361
  611loPI   C5A 9771   9.606   3.999   6.814  0.2437 -0.3255  0.0135
  611loPI   C6A 9772   9.275   3.837   6.597  0.0709  0.3229  0.1777
  611loPI   C1B 9773   9.571   4.396   8.416 -0.2120  0.0270  0.3172
  611loPI   C2B 9774   9.606   4.600   7.902 -0.0659  0.0047  0.0476
  611loPI   C3B 9775   9.579   4.868   7.506 -0.1279 -0.4204 -0.2416
  611loPI   C4B 9776   9.521   4.948   7.074 -0.0045  0.5365 -0.2101
  612loPI    C1 9777  18.593   9.740   9.629 -0.2064 -0.0493  0.0247
  612loPI    C2 9778  18.344   9.809   9.323  0.0011 -0.0305 -0.1426
  612loPI    C3 9779  18.506   9.447   9.371  0.1031  0.0129 -0.1563
  612loPI   PO4 9780  18.821  10.012   9.518  0.1933  0.2306 -0.0597
  612loPI   GL1 9781  18.602  10.393   9.133  0.1635  0.0494 -0.3249
  612loPI   GL2 9782  18.681  10.773   9.107 -0.0395  0.1596  0.1194
  612loPI   C1A 9783  18.874  10.210   8.884 -0.0433  0.0275 -0.3718
  612loPI   C2A 9784  19.230  10.007   8.722  0.0305 -0.0120 -0.3477
  612loPI   C3A 9785  19.293   9.650   8.474  0.3979 -0.3466  0.1937
  612loPI   C4A 9786  19.142   9.538   7.972  0.1603  0.0606 -0.3160
  612loPI   C5A 9787  19.132   9.354   7.624 -0.1854 -0.0446 -0.0719
  612loPI   C6A 9788  19.213   9.588   7.332  0.0572  0.0876 -0.1476
  612loPI   C1B 9789  18.804  10.732   8.772 -0.1210  0.2707 -0.0186
  612loPI   C2B 9790  19.059  10.414   8.481  0.0481  0.1008 -0.0490
  612loPI   C3B 9791  19.159  10.243   7.994  0.1815  0.0288  0.2712
  612loPI   C4B 9792  19.273  10.076   7.672  0.0232 -0.1279  0.2809
  613loPI    C1 9793  10.560   5.927   9.134 -0.1557  0.1440 -0.2414
  613loPI    C2 9794  10.244   6.056   9.341 -0.0127 -0.0640  0.1147
  613loPI    C3 9795  10.322   5.664   9.320  0.0819 -0.0309 -0.1799
  613loPI   PO4 9796  10.592   5.955   8.952  0.1952  0.0985 -0.0267
  613loPI   GL1 9797  10.587   6.076   8.470  0.2814 -0.1215  0.0047
  613loPI   GL2 9798  10.764   5.714   8.491 -0.0502  0.0264  0.1961
  613loPI   C1A 9799  10.708   6.108   8.059 -0.1020 -0.2362  0.0348
  613loPI   C2A 9800  10.473   6.355   7.676 -0.2859 -0.1706 -0.1336
  613loPI   C3A 9801  10.179   6.655   7.705 -0.1193 -0.0797  0.0879
  613loPI   C4A 9802  10.144   7.018   7.424 -0.1363  0.2289 -0.3643
  613loPI   C5A 9803  10.277   7.399   7.121 -0.0987 -0.0472 -0.0298
  613loPI   C6A 9804  10.284   7.790   7.000 -0.2184  0.0731  0.0359
  613loPI   C1B 9805  10.933   5.687   8.174 -0.0555 -0.2002 -0.1575
  613loPI   C2B 9806  11.224   5.741   7.773  0.0820 -0.2616 -0.1660
  613loPI   C3B 9807  11.289   5.650   7.318 -0.1117 -0.0164 -0.1437
  613loPI   C4B 9808  11.240   5.465   6.947 -0.1881 -0.2279 -0.4395
  614loPI    C1 9809  13.874  15.764   9.682 -0.1812  0.3089  0.1139
  614loPI    C2 9810  14.212  15.926   9.823  0.0475  0.0143 -0.0836
  614loPI    C3 9811  14.135  15.538   9.883 -0.1800  0.0428 -0.1782
  614loPI   PO4 9812  13.767  15.982   9.508  0.0542 -0.3862  0.1140
  614loPI   GL1 9813  13.684  16.142   9.144  0.0802 -0.1136 -0.1610
  614loPI   GL2 9814  13.636  16.440   8.970 -0.2345  0.1565 -0.0416
  614loPI   C1A 9815  14.058  16.269   8.881 -0.0957 -0.0931 -0.0795
  614loPI   C2A 9816  14.274  16.459   8.533 -0.0652  0.1453  0.1306
  614loPI   C3A 9817  14.466  16.541   8.155  0.0337  0.0508  0.1096
  614loPI   C4A 9818  14.448  16.838   7.720  0.0369 -0.1777 -0.0095
  614loPI   C5A 9819  14.786  17.195   7.659  0.1953 -0.1025  0.1776
  614loPI   C6A 9820  15.065  17.564   7.520  0.1223 -0.3549  0.1599
  614loPI   C1B 9821  13.711  16.232   8.572 -0.3096  0.4040 -0.0634
  614loPI   C2B 9822  13.615  15.967   8.291 -0.1691 -0.2178  0.2853
  614loPI   C3B 9823  13.900  15.871   7.893  0.0900  0.2340  0.0805
  614loPI   C4B 9824  14.086  15.955   7.402  0.2178 -0.4032 -0.0482
  615loPI    C1 9825   8.893  17.312   9.714 -0.1063 -0.0664  0.1753
  615loPI    C2 9826   9.024  17.667   9.584 -0.0791 -0.0372  0.2815
  615loPI    C3 9827   9.007  17.592   9.976  0.1603 -0.2456  0.2543
  615loPI   PO4 9828   8.975  17.140   9.494 -0.2903  0.1362 -0.2222
  615loPI   GL1 9829   8.804  17.263   9.175  0.0391 -0.0060 -0.0486
  615loPI   GL2 9830   8.719  17.572   9.068 -0.1633 -0.0996 -0.2741
  615loPI   C1A 9831   8.495  17.065   8.963  0.1916  0.0221 -0.2103
  615loPI   C2A 9832   8.387  17.041   8.573  0.2580 -0.3871 -0.1605
  615loPI   C3A 9833   8.372  16.971   8.243 -0.2695  0.1568 -0.0296
  615loPI   C4A 9834   8.351  16.997   7.793 -0.0599 -0.2407  0.2541
  615loPI   C5A 9835   8.252  16.752   7.447  0.3005  0.2729 -0.0495
  615loPI   C6A 9836   8.182  16.901   7.061 -0.0002  0.1278 -0.1228
  615loPI   C1B 9837   8.717  17.412   8.645 -0.0331  0.3294 -0.1846
  615loPI   C2B 9838   8.633  17.367   8.264 -0.1190 -0.2982 -0.0488
  615loPI   C3B 9839   8.444  17.498   7.888  0.3320  0.3949  0.0761
  615loPI   C4B 9840   8.052  17.591   7.724 -0.1999 -0.0445  0.0387
  616loPI    C1 9841   5.235  12.224  10.110 -0.0088  0.0371 -0.0807
  616loPI    C2 9842   4.884  12.416  10.114  0.0689  0.1778  0.1686
  616loPI    C3 9843   5.022  12.243  10.448  0.1599 -0.0208  0.0303
  616loPI   PO4 9844   5.419  12.262   9.730  0.0159  0.2994 -0.2661
  616loPI   GL1 9845   5.525  12.286   9.298  0.2491  0.0619  0.0816
  616loPI   GL2 9846   5.518  11.886   9.379  0.0981 -0.2070  0.3870
  616loPI   C1A 9847   5.474  12.692   9.052  0.0215 -0.2283 -0.3714
  616loPI   C2A 9848   5.406  12.608   8.704 -0.0436 -0.0917  0.1061
  616loPI   C3A 9849   5.395  12.704   8.194 -0.0996 -0.2055  0.0035
  616loPI   C4A 9850   5.344  12.529   7.825  0.0784  0.0105  0.1356
  616loPI   C5A 9851   5.541  12.100   7.574 -0.0719 -0.1385 -0.2712
  616loPI   C6A 9852   5.737  11.884   7.317  0.0714 -0.0340  0.0900
  616loPI   C1B 9853   5.219  11.588   9.438 -0.0808 -0.2834  0.2465
  616loPI   C2B 9854   4.815  11.687   9.386  0.0291 -0.0295 -0.0133
  616loPI   C3B 9855   4.454  11.745   9.072  0.1800 -0.0935  0.0360
  616loPI   C4B 9856   4.224  11.645   8.667  0.2425  0.1043  0.0320
  617loPI    C1 9857  10.930  12.336   9.884  0.0097 -0.0276 -0.1751
  617loPI    C2 9858  10.928  12.192  10.257  0.2410  0.0997 -0.1221
  617loPI    C3 9859  11.177  12.489  10.160 -0.0157  0.2589 -0.3071
  617loPI   PO4 9860  10.994  12.063   9.745 -0.0746 -0.2917 -0.0033
  617loPI   GL1 9861  10.915  12.028   9.361  0.0599  0.2473  0.1150
  617loPI   GL2 9862  10.776  12.304   9.295  0.0793  0.2199  0.0059
  617loPI   C1A 9863  11.160  12.173   9.024 -0.0277  0.0655  0.0916
  617loPI   C2A 9864  11.022  12.218   8.576 -0.0513 -0.0823 -0.2298
  617loPI   C3A 9865  10.818  12.349   8.131 -0.0776  0.0858  0.0181
  617loPI   C4A 9866  10.876  12.344   7.563 -0.1497  0.0875  0.0535
  617loPI   C5A 9867  11.268  12.349   7.353  0.3717  0.3121 -0.1311
  617loPI   C6A 9868  11.422  12.743   7.175  0.2137 -0.0757  0.2545
  617loPI   C1B 9869  10.837  12.500   8.905  0.2654  0.1430 -0.3010
  617loPI   C2B 9870  10.998  12.732   8.500 -0.1332  0.2798 -0.1997
  617loPI   C3B 9871  11.326  12.735   8.337  0.0958 -0.0700 -0.0382
  617loPI   C4B 9872  11.612  12.718   8.075 -0.1389  0.0171  0.0770
  618loPI    C1 9873   0.999  18.768   9.558  0.0764 -0.0090  0.0019
  618loPI    C2 9874   0.975  19.034   9.856 -0.1310 -0.0814  0.0513
  618loPI    C3 9875   1.247  18.742   9.871 -0.0454  0.0000  0.0998
  618loPI   PO4 9876   1.051  18.905   9.283  0.0132 -0.0760 -0.1764
  618loPI   GL1 9877   1.106  18.722   8.855 -0.4317 -0.3016  0.1434
  618loPI   GL2 9878   1.445  18.724   9.001 -0.0700  0.2198  0.3038
  618loPI   C1A 9879   1.404  18.533   8.502  0.2176 -0.3806 -0.0096
  618loPI   C2A 9880   1.616  18.383   8.245 -0.2010  0.5583 -0.1757
  618loPI   C3A 9881   1.581  18.277   7.934  0.1088 -0.1061 -0.1163
  618loPI   C4A 9882   1.376  17.963   7.621  0.2995  0.2105  0.1066
  618loPI   C5A 9883   1.324  17.968   7.191  0.0248 -0.0846  0.6218
  618loPI   C6A 9884   1.315  18.394   7.081 -0.1713 -0.0026  0.0298
  618loPI   C1B 9885   1.777  18.413   8.757  0.2034 -0.2105  0.0270
  618loPI   C2B 9886   2.018  18.202   8.569 -0.4523  0.0429  0.0374
  618loPI   C3B 9887   2.187  17.987   8.245 -0.0984 -0.0773  0.0474
  618loPI   C4B 9888   2.064  18.044   7.783 -0.0709  0.0372  0.0186
  619loPI    C1 9889   0.376   5.568   9.475  0.0596  0.1088 -0.1016
  619loPI    C2 9890   0.333   5.444   9.853  0.0985  0.1088 -0.0972
  619loPI    C3 9891   0.235   5.202   9.550 -0.1985  0.2092 -0.0851
  619loPI   PO4 9892   0.482   5.868   9.498  0.3675  0.0717 -0.0911
  619loPI   GL1 9893   0.727   5.946   9.175 -0.0265 -0.1629 -0.2017
  619loPI   GL2 9894   0.861   5.754   9.134 -0.0900  0.1577  0.2860
  619loPI   C1A 9895   0.630   5.926   8.746 -0.3213  0.2097  0.0026
  619loPI   C2A 9896   0.664   6.066   8.325 -0.0129 -0.3601  0.0879
  619loPI   C3A 9897   0.763   6.297   7.974  0.0793  0.0284 -0.0189
  619loPI   C4A 9898   0.758   6.305   7.565  0.1432 -0.3288 -0.2244
  619loPI   C5A 9899   0.780   6.382   7.133 -0.1651 -0.5742 -0.1382
  619loPI   C6A 9900   0.857   6.690   6.851  0.0577 -0.0914 -0.1462
  619loPI   C1B 9901   0.917   5.521   8.749 -0.1900  0.2364  0.1323
  619loPI   C2B 9902   0.912   5.569   8.288 -0.1407  0.1671  0.0234
  619loPI   C3B 9903   0.733   5.751   7.936 -0.0167  0.0198  0.0397
  619loPI   C4B 9904   0.572   5.852   7.648 -0.3021 -0.2618  0.3291
  620loPI    C1 9905  16.243   1.939   9.497  0.1487  0.2003  0.1583
  620loPI    C2 9906  15.929   2.034   9.726 -0.0086  0.2458 -0.0726
  620loPI    C3 9907  16.167   2.322   9.583  0.0493  0.2225 -0.0233
  620loPI   PO4 9908  16.154   1.792   9.327  0.0278 -0.0674  0.1279
  620loPI   GL1 9909  16.028   1.745   8.945  0.0076  0.0177 -0.0730
  620loPI   GL2 9910  16.003   1.968   8.721  0.0324 -0.0479  0.0633
  620loPI   C1A 9911  16.209   1.436   8.705 -0.1398 -0.2132  0.3264
  620loPI   C2A 9912  16.275   1.258   8.324  0.1531 -0.3218  0.1025
  620loPI   C3A 9913  16.466   0.991   8.002 -0.1048  0.0701 -0.2246
  620loPI   C4A 9914  16.576   0.891   7.566  0.0219 -0.1713  0.0098
  620loPI   C5A 9915  16.706   1.121   7.118 -0.2762  0.0255  0.0642
  620loPI   C6A 9916  16.888   1.219   6.645  0.0673 -0.2557  0.0725
  620loPI   C1B 9917  16.086   2.128   8.435 -0.0483 -0.4747 -0.2591
  620loPI   C2B 9918  16.311   2.105   7.987 -0.2576  0.1339 -0.3059
  620loPI   C3B 9919  16.465   1.973   7.542  0.0985  0.0745  0.3185
  620loPI   C4B 9920  16.676   2.072   7.262 -0.0497  0.0921 -0.0834
  621loPI    C1 9921  13.997  16.640   9.642  0.0900  0.1526  0.0461
  621loPI    C2 9922  13.617  16.523   9.693  0.0913  0.1245 -0.0081
  621loPI    C3 9923  13.916  16.304   9.844  0.0938  0.0575 -0.1092
  621loPI   PO4 9924  14.021  16.735   9.465 -0.1644  0.2859  0.0447
  621loPI   GL1 9925  14.174  17.146   9.241 -0.1531 -0.1052 -0.0455
  621loPI   GL2 9926  13.883  17.109   9.108  0.2353 -0.1845  0.0674
  621loPI   C1A 9927  14.632  17.041   9.055  0.1666 -0.1508 -0.1538
  621loPI   C2A 9928  14.611  16.870   8.611 -0.0564  0.1178 -0.0832
  621loPI   C3A 9929  14.617  17.037   8.151 -0.1173  0.3855  0.0926
  621loPI   C4A 9930  14.491  17.383   7.972 -0.0789  0.3560  0.3027
  621loPI   C5A 9931  14.553  17.773   7.668 -0.0023  0.2550 -0.0829
  621loPI   C6A 9932  14.725  17.915   7.357  0.2393  0.1505 -0.1929
  621loPI   C1B 9933  14.145  16.888   8.877  0.0460 -0.0763  0.4954
  621loPI   C2B 9934  14.187  17.071   8.465  0.3936 -0.1369  0.1505
  621loPI   C3B 9935  14.083  17.071   8.065  0.0058  0.0133  0.2310
  621loPI   C4B 9936  14.067  17.247   7.736  0.0547 -0.2989  0.1992
  622loPI    C1 9937   3.925  10.017  10.232  0.0859 -0.0171  0.1266
  622loPI    C2 9938   4.075  10.380  10.155 -0.2644  0.1187  0.0611
  622loPI    C3 9939   3.892  10.309  10.504 -0.1550 -0.0107  0.0932
  622loPI   PO4 9940   3.771   9.971  10.070 -0.0417 -0.1204 -0.0865
  622loPI   GL1 9941   3.849   9.785   9.660  0.0167  0.2337 -0.3643
  622loPI   GL2 9942   3.946   9.571   9.428  0.1111 -0.3173 -0.1530
  622loPI   C1A 9943   3.776  10.099   9.237 -0.0637 -0.2145 -0.0314
  622loPI   C2A 9944   3.762  10.279   8.710  0.2969 -0.0013 -0.1860
  622loPI   C3A 9945   4.051  10.305   8.345 -0.0046 -0.0689 -0.0059
  622loPI   C4A 9946   4.250  10.226   8.036  0.0537  0.1207 -0.0557
  622loPI   C5A 9947   4.350  10.476   7.718  0.0547 -0.1434  0.0193
  622loPI   C6A 9948   4.190  10.736   7.429 -0.0533 -0.2028  0.2891
  622loPI   C1B 9949   4.107   9.640   9.015  0.0593 -0.0885  0.1631
  622loPI   C2B 9950   3.987   9.753   8.671 -0.1328 -0.2201 -0.2114
  622loPI   C3B 9951   4.042   9.788   8.213 -0.0893 -0.2825  0.0586
  622loPI   C4B 9952   4.255   9.909   7.684 -0.3031  0.0916 -0.3153
  623loPI    C1 9953   3.304  19.781   9.358 -0.1217  0.0672  0.2190
  623loPI    C2 9954   3.666  19.846   9.515 -0.1138  0.1470  0.1683
  623loPI    C3 9955   3.340  19.898   9.739 -0.0873 -0.0961  0.2665
  623loPI   PO4 9956   3.288  19.470   9.206 -0.0366  0.2571  0.1135
  623loPI   GL1 9957   3.272  19.534   8.768 -0.1466 -0.0351  0.5099
  623loPI   GL2 9958   3.228  19.898   8.897 -0.0084 -0.0309 -0.0702
  623loPI   C1A 9959   3.091  19.431   8.385 -0.1651 -0.1221  0.2418
  623loPI   C2A 9960   3.141  19.558   8.033  0.1716  0.0278 -0.0712
  623loPI   C3A 9961   2.988  19.778   7.707  0.0593 -0.0326  0.0504
  623loPI   C4A 9962   3.089  19.885   7.334 -0.0537  0.1994 -0.0664
  623loPI   C5A 9963   2.973  20.070   6.883  0.1275  0.1285 -0.2655
  623loPI   C6A 9964   3.006  20.295   6.571  0.0719  0.3426  0.1901
  623loPI   C1B 9965   3.332  19.888   8.413  0.1667 -0.0068 -0.2381
  623loPI   C2B 9966   3.409  19.955   7.950 -0.3208  0.0690  0.2005
  623loPI   C3B 9967   3.474  19.729   7.623 -0.4151 -0.0861  0.1778
  623loPI   C4B 9968   3.741  19.708   7.226  0.1438 -0.0029  0.0220
  624loPI    C1 9969   6.769  11.237   9.980 -0.2019 -0.1570  0.1696
  624loPI    C2 9970   6.455  11.410  10.157 -0.0529  0.3377 -0.0300
  624loPI    C3 9971   6.818  11.573  10.191  0.2294 -0.3283  0.3533
  624loPI   PO4 9972   6.651  11.233   9.700 -0.0113  0.1228 -0.0031
  624loPI   GL1 9973   6.435  11.442   9.371  0.2789 -0.0338  0.1712
  624loPI   GL2 9974   6.611  11.699   9.182 -0.1828  0.0430 -0.0670
  624loPI   C1A 9975   6.315  11.318   8.955 -0.2649 -0.3420  0.2019
  624loPI   C2A 9976   6.463  11.286   8.542  0.3597  0.1348 -0.1566
  624loPI   C3A 9977   6.523  11.246   8.092 -0.0463 -0.1804  0.1716
  624loPI   C4A 9978   6.380  11.211   7.572 -0.2536 -0.0908 -0.0048
  624loPI   C5A 9979   6.364  11.034   7.147  0.1375 -0.1564 -0.1964
  624loPI   C6A 9980   6.352  10.774   6.811 -0.0003  0.1022  0.2894
  624loPI   C1B 9981   6.580  11.761   8.796  0.0742 -0.0095  0.1358
  624loPI   C2B 9982   6.447  11.691   8.271  0.0112  0.2716 -0.2658
  624loPI   C3B 9983   6.400  11.670   7.915 -0.2849  0.2205  0.3601
  624loPI   C4B 9984   6.541  11.968   7.516 -0.3410 -0.2418 -0.3375
  625loPI    C1 9985   3.632   3.171   9.521 -0.0435  0.0580 -0.0381
  625loPI    C2 9986   4.008   3.098   9.406  0.0157  0.0761  0.1405
  625loPI    C3 9987   3.937   3.255   9.767 -0.1736 -0.0906  0.1778
  625loPI   PO4 9988   3.576   3.359   9.312 -0.2046 -0.0095 -0.0318
  625loPI   GL1 9989   3.709   3.460   8.893 -0.2376  0.1885 -0.3025
  625loPI   GL2 9990   3.860   3.209   8.897  0.1898 -0.2379  0.1831
  625loPI   C1A 9991   3.473   3.320   8.555  0.1545  0.5443  0.0058
  625loPI   C2A 9992   3.278   3.467   8.232  0.3083  0.3742  0.2485
  625loPI   C3A 9993   3.244   3.617   7.807  0.0892  0.2850 -0.0235
  625loPI   C4A 9994   3.175   4.047   7.475  0.1990 -0.2753  0.0779
  625loPI   C5A 9995   3.122   4.203   7.033 -0.1688  0.1619  0.0675
  625loPI   C6A 9996   3.447   4.353   6.749 -0.0798 -0.4473 -0.2775
  625loPI   C1B 9997   3.948   3.469   8.476 -0.1079  0.2028 -0.2087
  625loPI   C2B 9998   4.178   3.489   8.115 -0.1240  0.0215 -0.0101
  625loPI   C3B 9999   4.232   3.579   7.640  0.0969 -0.3420  0.0761
  625loPI   C4B10000   4.138   3.905   7.229 -0.0529 -0.1769 -0.0440
  626loPI    C110001  18.191   0.681   9.890 -0.0866 -0.1594 -0.2314
  626loPI    C210002  18.563   0.661   9.743  0.0664  0.0970  0.1060
  626loPI    C310003  18.343   0.328   9.777  0.3631 -0.0986  0.1508
  626loPI   PO410004  18.052   0.978   9.723 -0.2546  0.0048  0.1068
  626loPI   GL110005  17.942   1.029   9.281  0.3337  0.0879 -0.1286
  626loPI   GL210006  17.658   1.029   9.279 -0.0265 -0.3327  0.1781
  626loPI   C1A10007  18.283   1.117   8.989  0.1071 -0.1877  0.0025
  626loPI   C2A10008  18.616   1.159   8.812 -0.2133  0.2085 -0.0594
  626loPI   C3A10009  18.715   1.025   8.311 -0.0419  0.1783  0.1925
  626loPI   C4A10010  18.542   0.910   7.816  0.0599 -0.0693 -0.3497
  626loPI   C5A10011  18.390   0.702   7.465  0.3386 -0.1496  0.3743
  626loPI   C6A10012  18.695   0.426   7.168  0.3036  0.4412  0.0663
  626loPI   C1B10013  17.595   0.737   8.960 -0.0865 -0.2453  0.0679
  626loPI   C2B10014  17.444   0.786   8.502 -0.2834  0.0352 -0.0476
  626loPI   C3B10015  17.525   0.681   8.154  0.1468  0.1111  0.0598
  626loPI   C4B10016  17.579   0.938   7.831  0.2675  0.3317 -0.0197
  627loPI    C110017   4.709   8.993  10.194 -0.1588  0.2223  0.4145
  627loPI    C210018   4.587   9.296   9.964 -0.1406  0.0415  0.1626
  627loPI    C310019   4.384   8.952   9.964  0.0548 -0.0752  0.1573
  627loPI   PO410020   4.950   8.970  10.219  0.3439  0.0664 -0.0713
  627loPI   GL110021   5.053   9.020   9.764 -0.2004  0.0300 -0.0066
  627loPI   GL210022   4.840   9.050   9.485  0.2428 -0.0291 -0.2038
  627loPI   C1A10023   5.052   9.497   9.594 -0.2085 -0.0005  0.3191
  627loPI   C2A10024   5.171   9.742   9.259  0.1881 -0.0864 -0.1035
  627loPI   C3A10025   5.447   9.647   8.902  0.0679  0.4023 -0.0907
  627loPI   C4A10026   5.397   9.580   8.391  0.1619  0.2400  0.3767
  627loPI   C5A10027   5.345   9.661   7.957 -0.2469  0.2640  0.3649
  627loPI   C6A10028   4.991   9.759   7.714 -0.3284  0.3540  0.1152
  627loPI   C1B10029   4.968   9.236   9.149  0.3055  0.0219  0.3107
  627loPI   C2B10030   4.856   9.459   8.949 -0.1230 -0.1675 -0.1382
  627loPI   C3B10031   4.630   9.803   9.078 -0.1465 -0.1215  0.0945
  627loPI   C4B10032   4.776   9.875   9.527  0.3825  0.0608 -0.1763
  628loPI    C110033  15.592   8.382   9.202  0.0906 -0.2834 -0.2488
  628loPI    C210034  15.744   8.312   9.565  0.0386 -0.2052 -0.2119
  628loPI    C310035  15.374   8.188   9.476 -0.1493  0.2306 -0.0639
  628loPI   PO410036  15.887   8.428   9.091  0.0199 -0.1540  0.0218
  628loPI   GL110037  15.944   8.516   8.680 -0.2423  0.0916 -0.1504
  628loPI   GL210038  16.051   8.818   8.749  0.1506 -0.2047 -0.0967
  628loPI   C1A10039  16.015   8.521   8.261 -0.1433 -0.1219 -0.0335
  628loPI   C2A10040  15.922   8.798   7.876 -0.1610  0.2695 -0.0808
  628loPI   C3A10041  16.053   8.938   7.509 -0.0801  0.1530  0.1716
  628loPI   C4A10042  15.882   9.134   7.052  0.3398  0.3352 -0.0466
  628loPI   C5A10043  15.641   8.994   6.677 -0.0662 -0.2340 -0.1093
  628loPI   C6A10044  15.329   8.795   6.524  0.0042 -0.3775 -0.3399
  628loPI   C1B10045  16.267   8.927   8.317 -0.0520  0.0334 -0.1897
  628loPI   C2B10046  16.399   8.995   7.887 -0.1454 -0.0188  0.1822
  628loPI   C3B10047  16.593   9.001   7.389 -0.0679  0.0270  0.1440
  628loPI   C4B10048  16.526   9.290   7.056  0.0165  0.0046 -0.0515
  629loPI    C110049  10.785  17.225   9.342 -0.0531  0.1122  0.0192
  629loPI    C210050  10.770  16.990   9.665  0.0068  0.1332  0.0376
  629loPI    C310051  11.112  17.173   9.567 -0.0558  0.2627  0.0590
  629loPI   PO410052  10.606  17.357   9.354  0.1745 -0.0341  0.0955
  629loPI   GL110053  10.412  17.581   8.999 -0.2032 -0.1265  0.0124
  629loPI   GL210054  10.675  17.419   8.848  0.0109 -0.1777 -0.1241
  629loPI   C1A10055  10.334  17.906   8.761  0.0331 -0.0896  0.1356
  629loPI   C2A10056  10.233  18.152   8.383 -0.0908 -0.2135  0.0568
  629loPI   C3A10057  10.076  17.937   7.937 -0.0730 -0.2278 -0.4034
  629loPI   C4A10058  10.224  17.751   7.544 -0.2360  0.1588 -0.1224
  629loPI   C5A10059  10.288  17.551   7.164 -0.0606  0.0052 -0.2254
  629loPI   C6A10060  10.050  17.653   6.906 -0.1398 -0.0902 -0.2692
  629loPI   C1B10061  10.640  17.536   8.499  0.0723  0.1048  0.0188
  629loPI   C2B10062  10.876  17.590   8.098 -0.1516 -0.2260  0.0274
  629loPI   C3B10063  11.130  17.857   7.988  0.0503 -0.1716 -0.2704
  629loPI   C4B10064  11.457  18.010   8.296 -0.1083 -0.2644 -0.2621
  630loPI    C110065   1.068   6.032   9.617  0.1700 -0.0326 -0.0842
  630loPI    C210066   1.195   6.285   9.900 -0.0032 -0.2810  0.2223
  630loPI    C310067   0.820   6.147   9.909  0.0091 -0.3431 -0.0949
  630loPI   PO410068   1.286   5.857   9.559  0.0425  0.1794 -0.1472
  630loPI   GL110069   1.371   5.667   9.172  0.1924 -0.0354  0.0876
  630loPI   GL210070   1.248   6.030   9.034 -0.0310  0.1518 -0.1780
  630loPI   C1A10071   1.424   5.667   8.760  0.0482 -0.1736  0.0655
  630loPI   C2A10072   1.448   5.473   8.447 -0.1148  0.3082 -0.0128
  630loPI   C3A10073   1.401   5.480   8.038 -0.2079  0.0165  0.0573
  630loPI   C4A10074   1.138   5.446   7.768  0.3568 -0.0863 -0.2823
  630loPI   C5A10075   1.172   5.272   7.417  0.0523  0.2154  0.2701
  630loPI   C6A10076   0.887   5.115   7.196  0.1269  0.0940 -0.0943
  630loPI   C1B10077   1.122   5.977   8.565 -0.0402 -0.5302 -0.0915
  630loPI   C2B10078   1.150   5.952   8.069 -0.1391 -0.1991 -0.0595
  630loPI   C3B10079   1.162   6.017   7.615 -0.0364  0.0585 -0.0001
  630loPI   C4B10080   1.180   5.967   7.262 -0.3332 -0.3104  0.2224
  631loPI    C110081   7.130   4.626   9.186 -0.0010 -0.2363 -0.0700
  631loPI    C210082   6.837   4.833   9.362  0.0803 -0.0665 -0.1322
  631loPI    C310083   7.153   4.713   9.576 -0.0675 -0.3136 -0.0486
  631loPI   PO410084   7.024   4.432   9.057  0.0850  0.1885  0.3555
  631loPI   GL110085   7.092   4.252   8.545 -0.4838  0.0946 -0.0239
  631loPI   GL210086   6.727   4.309   8.577 -0.4398  0.0712  0.3675
  631loPI   C1A10087   7.009   4.088   8.176  0.2856 -0.0376 -0.0150
  631loPI   C2A10088   6.932   4.009   7.790  0.4590 -0.3802  0.2135
  631loPI   C3A10089   6.964   3.633   7.596 -0.0251 -0.1437  0.1874
  631loPI   C4A10090   7.017   3.492   7.170  0.0208 -0.1000  0.0193
  631loPI   C5A10091   7.309   3.598   6.830  0.1641 -0.0470 -0.1606
  631loPI   C6A10092   7.533   3.865   6.561 -0.5649 -0.0628 -0.0899
  631loPI   C1B10093   7.031   4.635   8.279 -0.1810  0.3138  0.1145
  631loPI   C2B10094   7.278   5.065   8.337 -0.3510  0.1728 -0.0996
  631loPI   C3B10095   7.390   5.287   8.006  0.0289 -0.0140  0.0979
  631loPI   C4B10096   7.364   5.292   7.469  0.1244 -0.1619 -0.2267
  632loPI    C110097   0.239  11.730   9.913 -0.2973  0.0532 -0.0791
  632loPI    C210098   0.481  11.886  10.191  0.0643 -0.0447 -0.3315
  632loPI    C310099   0.402  12.092   9.857  0.0348 -0.1362 -0.3811
  632loPI   PO410100   0.397  11.581   9.691  0.2001 -0.2692 -0.2512
  632loPI   GL110101   0.378  11.589   9.311 -0.1262 -0.1743  0.4486
  632loPI   GL210102   0.223  11.914   9.414  0.1512 -0.1323  0.0186
  632loPI   C1A10103   0.267  11.682   8.914  0.3702 -0.1102 -0.1874
  632loPI   C2A10104   0.322  11.668   8.491 -0.0929 -0.1669 -0.0965
  632loPI   C3A10105   0.267  11.730   7.985 -0.0322  0.0784  0.0916
  632loPI   C4A10106   0.143  12.084   7.668 -0.0178  0.1231 -0.1895
  632loPI   C5A10107  -0.286  12.202   7.437  0.2522 -0.0197  0.0988
  632loPI   C6A10108  -0.466  12.346   7.065  0.0537 -0.1191 -0.3082
  632loPI   C1B10109   0.657  11.999   9.071  0.5129 -0.3910 -0.4438
  632loPI   C2B10110   0.664  12.010   8.640  0.3190  0.0879  0.1510
  632loPI   C3B10111   0.741  11.841   8.260 -0.2015  0.1200 -0.2591
  632loPI   C4B10112   0.827  11.674   7.964  0.5597  0.2057  0.0845
  633loPI    C110113   1.530  14.961   9.655 -0.1773  0.1142 -0.0010
  633loPI    C210114   1.379  15.003  10.022 -0.1860  0.2618 -0.0208
  633loPI    C310115   1.555  15.313   9.842 -0.0766  0.1576 -0.0949
  633loPI   PO410116   1.390  14.811   9.507  0.0437 -0.0984 -0.0393
  633loPI   GL110117   1.152  14.710   9.144 -0.2498 -0.2481 -0.0830
  633loPI   GL210118   0.992  14.913   8.992  0.3193 -0.1079 -0.0936
  633loPI   C1A10119   1.256  14.481   8.776  0.4378 -0.1070  0.1141
  633loPI   C2A10120   1.117  14.424   8.323  0.2327 -0.2842 -0.2402
  633loPI   C3A10121   1.200  14.668   7.919 -0.2898 -0.1437  0.1581
  633loPI   C4A10122   1.211  14.665   7.501  0.0754 -0.3829  0.1544
  633loPI   C5A10123   1.278  14.279   7.253 -0.3390 -0.4323 -0.3870
  633loPI   C6A10124   1.605  14.078   7.157  0.2051  0.0925  0.4189
  633loPI   C1B10125   1.059  15.206   8.629  0.0388  0.2091 -0.2069
  633loPI   C2B10126   1.318  15.522   8.396  0.1506  0.0657 -0.0141
  633loPI   C3B10127   1.613  15.488   8.115 -0.4825 -0.0991  0.1338
  633loPI   C4B10128   1.625  15.899   7.861  0.2347  0.0896  0.1956
  634loPI    C110129   9.342   1.156   9.291  0.0362 -0.2267 -0.0688
  634loPI    C210130   8.988   1.089   9.119 -0.0800 -0.2030  0.1567
  634loPI    C310131   9.005   1.221   9.496  0.1673 -0.0627  0.0987
  634loPI   PO410132   9.434   1.316   9.088  0.1037  0.1739 -0.1860
  634loPI   GL110133   9.630   1.364   8.731  0.1001  0.0929  0.4711
  634loPI   GL210134   9.718   1.595   8.679 -0.1469  0.0416  0.1347
  634loPI   C1A10135   9.896   1.281   8.397 -0.0441  0.3344 -0.0957
  634loPI   C2A10136  10.067   0.918   8.166  0.1504  0.1336 -0.1326
  634loPI   C3A10137  10.424   0.897   7.804 -0.1171  0.0559 -0.1540
  634loPI   C4A10138  10.578   0.820   7.398  0.0726 -0.1094  0.0352
  634loPI   C5A10139  10.503   0.831   6.976 -0.2102 -0.0374 -0.1130
  634loPI   C6A10140  10.958   0.771   6.785  0.1229 -0.1127  0.0097
  634loPI   C1B10141   9.844   1.669   8.123  0.0616  0.1584 -0.1942
  634loPI   C2B10142   9.874   1.425   7.653 -0.0028  0.0341 -0.1091
  634loPI   C3B10143   9.766   1.563   7.260 -0.0906  0.1702  0.1710
  634loPI   C4B10144   9.894   1.910   6.885 -0.1127  0.0052  0.0570
  635loPI    C110145  15.151   2.523   9.385 -0.0941  0.0917  0.1619
  635loPI    C210146  14.913   2.434   9.694  0.0258  0.0565  0.2449
  635loPI    C310147  15.287   2.559   9.760  0.0925 -0.0704  0.1114
  635loPI   PO410148  14.943   2.498   9.196 -0.3501 -0.1723 -0.0711
  635loPI   GL110149  14.898   2.861   8.707  0.1401  0.1220 -0.4246
  635loPI   GL210150  14.607   2.834   8.642  0.0787 -0.0088  0.0198
  635loPI   C1A10151  15.007   2.727   8.356  0.2427 -0.1732  0.0991
  635loPI   C2A10152  15.282   2.623   7.993  0.1429 -0.2938 -0.0075
  635loPI   C3A10153  15.635   2.706   7.721 -0.1813 -0.0864 -0.0749
  635loPI   C4A10154  15.792   2.910   7.361 -0.1611 -0.0932 -0.2155
  635loPI   C5A10155  16.120   2.931   7.060 -0.0610 -0.1024  0.1591
  635loPI   C6A10156  16.472   2.801   6.959 -0.0396 -0.0961 -0.1083
  635loPI   C1B10157  14.637   2.976   8.143 -0.0990  0.0190  0.2488
  635loPI   C2B10158  14.820   2.900   7.669 -0.0397 -0.0073  0.4148
  635loPI   C3B10159  15.183   2.724   7.491 -0.0937  0.0233  0.0456
  635loPI   C4B10160  15.380   2.882   7.010 -0.1436 -0.0096  0.1830
  636loPI    C110161   9.375   5.854   9.341 -0.1983 -0.0835  0.0811
  636loPI    C210162   9.539   5.502   9.438  0.1096  0.0484  0.0527
  636loPI    C310163   9.382   5.735   9.723 -0.1216 -0.1223  0.0678
  636loPI   PO410164   9.311   5.670   9.037 -0.0803 -0.1101 -0.2870
  636loPI   GL110165   9.402   5.379   8.663 -0.2213  0.0051 -0.2628
  636loPI   GL210166   9.159   5.205   8.723  0.0576  0.1661  0.2355
  636loPI   C1A10167   9.575   5.609   8.214 -0.2597  0.1974  0.2032
  636loPI   C2A10168   9.672   5.772   7.850 -0.2087 -0.0937 -0.0548
  636loPI   C3A10169   9.776   5.772   7.438  0.1276  0.1551 -0.1277
  636loPI   C4A10170   9.805   5.484   7.026  0.0366 -0.3156  0.0462
  636loPI   C5A10171   9.918   5.148   6.770  0.2828 -0.1683 -0.2622
  636loPI   C6A10172   9.947   4.810   6.655 -0.1056 -0.2642 -0.0053
  636loPI   C1B10173   9.053   5.396   8.290 -0.0582 -0.0027  0.0254
  636loPI   C2B10174   9.076   5.604   7.874  0.0577 -0.2001 -0.2047
  636loPI   C3B10175   8.840   5.903   7.538  0.0099 -0.0213 -0.1277
  636loPI   C4B10176   8.528   5.952   7.192 -0.0872 -0.2113  0.0991
  637loPI    C110177   1.209  18.343   9.302 -0.2135  0.0763  0.1346
  637loPI    C210178   1.120  18.246   9.680 -0.0202 -0.0410  0.1513
  637loPI    C310179   1.482  18.391   9.591 -0.1131  0.1219  0.0329
  637loPI   PO410180   0.903  18.334   9.207 -0.2074  0.0080  0.1639
  637loPI   GL110181   0.697  18.112   8.897  0.0899 -0.1108  0.2071
  637loPI   GL210182   0.465  18.019   8.744  0.1877 -0.0105  0.0158
  637loPI   C1A10183   0.944  18.324   8.536  0.1084  0.0442 -0.4959
  637loPI   C2A10184   1.044  18.450   7.947 -0.0236 -0.1081 -0.1171
  637loPI   C3A10185   1.128  18.417   7.612  0.1515  0.2312 -0.0403
  637loPI   C4A10186   1.474  18.531   7.469 -0.1074 -0.1519 -0.1852
  637loPI   C5A10187   1.750  18.611   7.251  0.1213  0.0592 -0.3560
  637loPI   C6A10188   1.892  18.607   6.819 -0.1438  0.0622 -0.0054
  637loPI   C1B10189   0.438  18.270   8.405 -0.4701 -0.0058  0.0004
  637loPI   C2B10190   0.480  18.349   7.933 -0.1589  0.0118  0.1206
  637loPI   C3B10191   0.637  18.434   7.584 -0.2085 -0.0475 -0.2411
  637loPI   C4B10192   0.603  18.591   7.214 -0.1678 -0.4683  0.2281
  638loPI    C110193   8.197   4.877   9.305 -0.1277  0.0280 -0.2904
  638loPI    C210194   8.466   4.587   9.365 -0.0770  0.1716  0.2269
  638loPI    C310195   8.098   4.495   9.239  0.0315 -0.0837  0.0885
  638loPI   PO410196   8.314   5.034   9.138 -0.0596 -0.0732  0.0369
  638loPI   GL110197   8.335   4.799   8.706  0.2661  0.2185 -0.2916
  638loPI   GL210198   8.026   4.931   8.534 -0.1170  0.0793  0.1301
  638loPI   C1A10199   8.556   4.569   8.384  0.1164  0.0050 -0.0357
  638loPI   C2A10200   8.631   4.488   7.997 -0.2147 -0.1247 -0.0652
  638loPI   C3A10201   8.740   4.675   7.551 -0.1244  0.2277 -0.2027
  638loPI   C4A10202   8.587   4.517   7.135 -0.1029 -0.2661 -0.0083
  638loPI   C5A10203   8.266   4.279   7.002  0.1495  0.0906 -0.0065
  638loPI   C6A10204   8.002   3.934   6.812 -0.0824  0.1036  0.0310
  638loPI   C1B10205   8.183   4.818   8.136 -0.0408 -0.5924 -0.1420
  638loPI   C2B10206   8.269   4.894   7.742  0.2748 -0.0547 -0.2186
  638loPI   C3B10207   8.325   4.965   7.227 -0.5180 -0.2748  0.0168
  638loPI   C4B10208   8.328   5.201   6.862  0.1222  0.0684 -0.2872
  639loPI    C110209  12.832   7.219   8.837 -0.3091  0.1052  0.0596
  639loPI    C210210  12.747   6.916   8.590  0.0244  0.0760 -0.0235
  639loPI    C310211  12.739   6.860   8.986  0.3642 -0.1247 -0.0406
  639loPI   PO410212  12.647   7.390   8.764 -0.2082 -0.1229 -0.1410
  639loPI   GL110213  12.408   7.350   8.514 -0.3104  0.1867  0.0175
  639loPI   GL210214  12.043   7.438   8.681  0.1463 -0.1410  0.3229
  639loPI   C1A10215  12.379   7.183   8.089  0.1606 -0.0810 -0.0150
  639loPI   C2A10216  12.375   7.131   7.652  0.0061  0.1685  0.1784
  639loPI   C3A10217  12.685   7.080   7.376 -0.1790  0.0725  0.0952
  639loPI   C4A10218  12.962   7.316   7.292 -0.0929 -0.5482  0.0546
  639loPI   C5A10219  12.704   7.576   7.030  0.2269 -0.1311 -0.0708
  639loPI   C6A10220  12.482   7.679   6.634  0.0752  0.0373  0.1352
  639loPI   C1B10221  12.011   7.469   8.167  0.0680  0.1259  0.0049
  639loPI   C2B10222  11.850   7.458   7.772  0.1268 -0.1096 -0.2363
  639loPI   C3B10223  11.775   7.450   7.291  0.1497  0.0299  0.1275
  639loPI   C4B10224  11.707   7.680   6.894 -0.1372  0.0388  0.1440
  640loPI    C110225  19.850   7.532   9.349 -0.3078 -0.0705 -0.1729
  640loPI    C210226  19.844   7.512   9.749 -0.2284 -0.2369 -0.1791
  640loPI    C310227  20.062   7.250   9.539 -0.2163 -0.1080 -0.3290
  640loPI   PO410228  19.638   7.735   9.264  0.1488  0.4480  0.3508
  640loPI   GL110229  19.369   7.776   8.957  0.1362 -0.0078 -0.1482
  640loPI   GL210230  19.235   8.178   9.054 -0.2386 -0.0253 -0.1032
  640loPI   C1A10231  19.316   7.947   8.571  0.1135  0.3761 -0.1120
  640loPI   C2A10232  19.421   8.290   8.289  0.1646 -0.1472 -0.1506
  640loPI   C3A10233  19.165   8.572   8.108 -0.0892  0.0928 -0.3092
  640loPI   C4A10234  19.186   8.918   7.801 -0.1103  0.0910  0.3417
  640loPI   C5A10235  19.348   8.974   7.343 -0.0820  0.1506 -0.0484
  640loPI   C6A10236  19.490   8.604   7.101  0.2014 -0.0359 -0.0078
  640loPI   C1B10237  19.513   8.565   8.728  0.0316  0.0500  0.1930
  640loPI   C2B10238  19.599   8.740   8.208 -0.1153 -0.3162  0.2103
  640loPI   C3B10239  19.641   8.632   7.819  0.4003 -0.0909 -0.2395
  640loPI   C4B10240  19.804   8.877   7.420 -0.1618  0.0032  0.2223
  641loPI    C110241   9.615  10.768   9.654 -0.2152  0.0081 -0.2982
  641loPI    C210242   9.228  10.685   9.714 -0.2059  0.1650  0.0004
  641loPI    C310243   9.504  10.401   9.767 -0.2774  0.0543 -0.2078
  641loPI   PO410244   9.616  10.813   9.380  0.0564  0.0775 -0.1464
  641loPI   GL110245   9.455  10.586   8.927  0.1001 -0.5264  0.0635
  641loPI   GL210246   9.407  10.892   8.805 -0.2721 -0.0607 -0.1797
  641loPI   C1A10247   9.382  10.469   8.547  0.1050  0.1328 -0.0801
  641loPI   C2A10248   9.225  10.482   8.178  0.1753 -0.0357 -0.3288
  641loPI   C3A10249   9.084  10.102   7.900  0.0069 -0.1222  0.2629
  641loPI   C4A10250   8.874  10.185   7.642 -0.0098  0.0030  0.0633
  641loPI   C5A10251   8.931  10.080   7.167  0.1773  0.2218 -0.2116
  641loPI   C6A10252   9.239  10.202   6.834 -0.0376 -0.0114 -0.1684
  641loPI   C1B10253   9.460  10.986   8.480  0.0612 -0.3005  0.0441
  641loPI   C2B10254   9.593  11.050   8.030 -0.0068  0.0457  0.1539
  641loPI   C3B10255   9.857  10.989   7.705  0.2454 -0.0665 -0.0897
  641loPI   C4B10256   9.876  10.897   7.328  0.2212 -0.1936  0.1139
  642loPI    C110257  13.987  19.064   9.398 -0.3334 -0.2935  0.1459
  642loPI    C210258  13.788  19.001   9.056 -0.2119  0.0454  0.0085
  642loPI    C310259  13.710  19.326   9.276  0.2195  0.2109 -0.0741
  642loPI   PO410260  14.213  18.998   9.362  0.0513 -0.4265 -0.3740
  642loPI   GL110261  14.494  19.161   9.005 -0.3846 -0.3940 -0.0715
  642loPI   GL210262  14.521  18.827   9.042  0.1616  0.1009  0.0894
  642loPI   C1A10263  14.444  19.241   8.577  0.1310 -0.0951  0.0579
  642loPI   C2A10264  14.220  19.281   8.117  0.0157  0.5212  0.0977
  642loPI   C3A10265  14.323  19.236   7.619 -0.2545  0.1480  0.2418
  642loPI   C4A10266  14.628  18.915   7.390  0.0403  0.1179 -0.0496
  642loPI   C5A10267  15.011  18.716   7.167  0.2215 -0.0206 -0.3035
  642loPI   C6A10268  15.290  18.511   7.048 -0.0731  0.2108  0.0974
  642loPI   C1B10269  14.752  18.699   8.680 -0.2848  0.2613  0.3997
  642loPI   C2B10270  14.733  18.483   8.280 -0.4588 -0.0688 -0.1725
  642loPI   C3B10271  14.551  18.394   7.830 -0.0192 -0.1936  0.2547
  642loPI   C4B10272  14.561  18.370   7.339 -0.2498 -0.0345  0.2276
  643loPI    C110273   3.408   1.239   9.375  0.1566  0.2842  0.2165
  643loPI    C210274   3.073   1.390   9.219  0.2097  0.0902 -0.0935
  643loPI    C310275   3.068   1.231   9.586 -0.1114 -0.1852 -0.2112
  643loPI   PO410276   3.601   1.460   9.187 -0.0066  0.2776 -0.0207
  643loPI   GL110277   3.967   1.290   8.967 -0.0251  0.4824  0.3802
  643loPI   GL210278   3.713   1.267   8.727 -0.1124  0.0913 -0.2205
  643loPI   C1A10279   4.258   1.428   8.617 -0.1403  0.0116  0.2864
  643loPI   C2A10280   4.467   1.578   8.175  0.4684  0.5241 -0.2598
  643loPI   C3A10281   4.788   1.693   7.846  0.0522  0.0756 -0.0337
  643loPI   C4A10282   4.752   1.731   7.337  0.0500  0.1702 -0.0087
  643loPI   C5A10283   4.522   1.882   6.991 -0.2160 -0.0784  0.2093
  643loPI   C6A10284   4.275   2.319   6.963  0.0259  0.0125 -0.1137
  643loPI   C1B10285   3.846   1.369   8.387 -0.0171  0.1932 -0.1489
  643loPI   C2B10286   4.011   1.322   8.069 -0.5312  0.0893 -0.2554
  643loPI   C3B10287   4.115   1.266   7.675  0.2832  0.2775  0.1470
  643loPI   C4B10288   4.029   1.091   7.227  0.1952 -0.1750 -0.0176
  644loPI    C110289  12.447  16.529   9.199 -0.2204 -0.1209  0.1112
  644loPI    C210290  12.360  16.149   9.109  0.0895 -0.1558 -0.0533
  644loPI    C310291  12.708  16.238   9.286 -0.0027  0.0466  0.0287
  644loPI   PO410292  12.497  16.715   9.036 -0.2358 -0.0453 -0.0751
  644loPI   GL110293  12.779  17.027   8.783 -0.0656 -0.0386  0.2597
  644loPI   GL210294  12.474  16.963   8.559  0.0356  0.1152  0.0138
  644loPI   C1A10295  12.965  16.969   8.390  0.0188 -0.1384 -0.0457
  644loPI   C2A10296  13.163  16.765   7.975  0.3536 -0.0739 -0.1812
  644loPI   C3A10297  13.045  16.578   7.591 -0.0680 -0.0271  0.0641
  644loPI   C4A10298  12.931  16.297   7.270  0.0384 -0.0867 -0.0806
  644loPI   C5A10299  12.914  16.334   6.738  0.2709 -0.0387  0.0989
  644loPI   C6A10300  12.900  16.334   6.310 -0.1429  0.2626 -0.2871
  644loPI   C1B10301  12.327  17.070   8.246 -0.2614 -0.1791 -0.0620
  644loPI   C2B10302  12.281  17.051   7.789 -0.1042 -0.2676  0.2775
  644loPI   C3B10303  12.393  16.914   7.545 -0.1013  0.0278 -0.0436
  644loPI   C4B10304  12.727  16.719   7.277  0.5648 -0.1678  0.2715
  645loPI    C110305   5.773  17.218   9.720 -0.0598 -0.0126 -0.1377
  645loPI    C210306   5.603  16.993  10.004  0.0199 -0.1211 -0.1751
  645loPI    C310307   5.762  17.348  10.098 -0.2061 -0.0285 -0.1358
  645loPI   PO410308   6.025  17.011   9.607 -0.2585  0.0454  0.1478
  645loPI   GL110309   6.019  16.980   9.106  0.1180 -0.0721  0.1256
  645loPI   GL210310   5.785  16.989   8.870  0.4156  0.2804  0.2826
  645loPI   C1A10311   6.259  17.351   8.928 -0.0075 -0.0587  0.0592
  645loPI   C2A10312   6.590  17.380   8.520  0.0741  0.0407 -0.2218
  645loPI   C3A10313   6.797  17.043   8.161  0.0319 -0.1642 -0.0806
  645loPI   C4A10314   6.865  17.022   7.632 -0.0095 -0.3840 -0.1861
  645loPI   C5A10315   6.912  17.186   7.249 -0.1072  0.2013  0.1379
  645loPI   C6A10316   6.966  17.229   6.816  0.0686 -0.3523  0.0877
  645loPI   C1B10317   5.846  16.851   8.487 -0.0214  0.0945  0.0555
  645loPI   C2B10318   5.894  16.658   8.096 -0.4835  0.0818 -0.0405
  645loPI   C3B10319   5.791  16.745   7.621  0.0050 -0.0017 -0.0252
  645loPI   C4B10320   5.979  16.774   7.121  0.0544 -0.3255 -0.0678
  646loPI    C110321  19.503  14.534   9.738  0.1779  0.0687  0.0993
  646loPI    C210322  19.280  14.680  10.037  0.2552 -0.1866  0.2856
  646loPI    C310323  19.496  14.348  10.092  0.2843 -0.2276 -0.0509
  646loPI   PO410324  19.453  14.756   9.577  0.0132 -0.0368 -0.0762
  646loPI   GL110325  19.313  14.646   9.219 -0.0624  0.0848  0.0329
  646loPI   GL210326  19.554  14.672   8.989 -0.1995  0.0707  0.1623
  646loPI   C1A10327  19.243  15.052   9.044 -0.2087  0.1128 -0.0109
  646loPI   C2A10328  19.473  15.142   8.704  0.2704 -0.0017  0.2926
  646loPI   C3A10329  19.700  15.077   8.244 -0.1801 -0.0529  0.1156
  646loPI   C4A10330  19.693  15.118   7.845  0.3141 -0.0382  0.1864
  646loPI   C5A10331  19.842  15.258   7.478 -0.1425  0.2440  0.1848
  646loPI   C6A10332  19.763  15.267   7.000  0.0488 -0.1400 -0.2273
  646loPI   C1B10333  19.687  14.676   8.615 -0.1413 -0.0449 -0.0977
  646loPI   C2B10334  19.717  14.568   8.228  0.1522  0.1684  0.0180
  646loPI   C3B10335  20.043  14.694   7.982  0.0088  0.1518  0.3595
  646loPI   C4B10336  20.451  14.687   7.999  0.1633 -0.3784  0.5034
  647loPI    C110337   5.376  11.027  10.208  0.1889  0.2166 -0.1815
  647loPI    C210338   5.582  10.702  10.318  0.1589  0.2542 -0.0124
  647loPI    C310339   5.522  10.999  10.579 -0.3958  0.0978  0.0500
  647loPI   PO410340   5.221  10.996   9.886 -0.1454  0.0563  0.2268
  647loPI   GL110341   5.294  11.123   9.475 -0.1150 -0.1473  0.0854
  647loPI   GL210342   5.034  11.157   9.476 -0.0921  0.0170  0.2013
  647loPI   C1A10343   5.461  11.234   9.142  0.2407 -0.0493  0.1307
  647loPI   C2A10344   5.486  11.566   8.934 -0.0762 -0.3546  0.1410
  647loPI   C3A10345   5.533  11.792   8.523  0.3127 -0.1551 -0.0464
  647loPI   C4A10346   5.574  11.643   8.089  0.1813  0.2024 -0.1499
  647loPI   C5A10347   5.470  11.537   7.616 -0.1446 -0.0820  0.1953
  647loPI   C6A10348   5.354  11.342   7.341 -0.2946 -0.2283 -0.4080
  647loPI   C1B10349   4.978  11.353   9.081  0.0642 -0.1245  0.1558
  647loPI   C2B10350   5.129  11.308   8.616 -0.0725 -0.1774  0.0731
  647loPI   C3B10351   5.148  11.024   8.329 -0.1379 -0.2384 -0.1964
  647loPI   C4B10352   5.049  10.876   7.926  0.0325 -0.1683  0.2205
  648loPI    C110353  16.403   4.692   8.988  0.0051 -0.1309  0.1393
  648loPI    C210354  16.407   4.365   9.218 -0.0493 -0.0592  0.2434
  648loPI    C310355  16.458   4.726   9.383 -0.1766  0.0000  0.1548
  648loPI   PO410356  16.556   4.655   8.773 -0.0929 -0.1077  0.4081
  648loPI   GL110357  16.458   4.230   8.642  0.1795  0.0066  0.0708
  648loPI   GL210358  16.705   4.389   8.375 -0.1996  0.0164 -0.3485
  648loPI   C1A10359  16.241   4.441   8.144  0.0528  0.0536  0.1004
  648loPI   C2A10360  15.996   4.503   7.780 -0.4606 -0.0883  0.0379
  648loPI   C3A10361  15.791   4.790   7.486  0.4579 -0.1227  0.2645
  648loPI   C4A10362  15.439   4.844   7.445  0.1382 -0.2659  0.2958
  648loPI   C5A10363  15.120   4.759   7.495 -0.0034 -0.0095  0.1223
  648loPI   C6A10364  14.938   4.336   7.341  0.0076  0.1866 -0.0973
  648loPI   C1B10365  16.824   4.340   8.014  0.0182 -0.3298  0.0163
  648loPI   C2B10366  16.810   4.149   7.607 -0.1024 -0.0983  0.0476
  648loPI   C3B10367  16.760   4.245   7.126 -0.0515  0.0452 -0.0577
  648loPI   C4B10368  16.674   4.713   7.104  0.1329 -0.0231 -0.0269
  649loPI    C110369   5.211   8.502  10.193 -0.1214 -0.0009  0.2034
  649loPI    C210370   5.523   8.411  10.427  0.2373 -0.0918 -0.2939
  649loPI    C310371   5.228   8.146  10.375  0.1500 -0.0677  0.0541
  649loPI   PO410372   5.297   8.530   9.947 -0.1255  0.0827  0.0358
  649loPI   GL110373   5.167   8.532   9.467  0.0746 -0.3324 -0.0293
  649loPI   GL210374   4.925   8.289   9.405  0.0161 -0.0001  0.0560
  649loPI   C1A10375   5.295   8.886   9.306  0.0372  0.0146 -0.0394
  649loPI   C2A10376   5.477   9.295   9.373 -0.2362 -0.1338 -0.1982
  649loPI   C3A10377   5.744   9.667   9.311 -0.0025 -0.0935  0.1446
  649loPI   C4A10378   5.872   9.827   8.940  0.0182 -0.0704  0.0377
  649loPI   C5A10379   5.865   9.673   8.537  0.0138  0.0654  0.3736
  649loPI   C6A10380   5.943   9.537   8.066  0.1608 -0.2767 -0.1995
  649loPI   C1B10381   4.772   8.697   9.150  0.0402 -0.0614  0.0051
  649loPI   C2B10382   4.699   8.956   8.756 -0.1356 -0.2784 -0.0338
  649loPI   C3B10383   4.658   9.074   8.308 -0.1252  0.1475  0.0051
  649loPI   C4B10384   4.686   9.236   7.907 -0.0107  0.0466  0.0705
  650loPI    C110385   6.535  15.250   9.877 -0.0412  0.0117  0.1795
  650loPI    C210386   6.301  15.563   9.961 -0.0034  0.1148 -0.0894
  650loPI    C310387   6.393  15.300  10.248 -0.2024  0.2369  0.0898
  650loPI   PO410388   6.529  15.279   9.603 -0.1241  0.0139 -0.0608
  650loPI   GL110389   6.413  15.174   9.156  0.0372  0.0126  0.1473
  650loPI   GL210390   6.458  14.928   8.987  0.1660 -0.1697  0.2914
  650loPI   C1A10391   6.180  15.405   8.806 -0.0632 -0.0170  0.1181
  650loPI   C2A10392   6.245  15.655   8.505  0.1228 -0.1408 -0.0940
  650loPI   C3A10393   6.238  15.947   8.147  0.2325 -0.0151 -0.0844
  650loPI   C4A10394   5.922  16.212   7.813 -0.1597  0.1751 -0.1491
  650loPI   C5A10395   6.020  16.290   7.334 -0.1075 -0.0520  0.0915
  650loPI   C6A10396   5.825  16.326   7.064 -0.1661  0.2266  0.0298
  650loPI   C1B10397   6.294  14.943   8.588 -0.1050 -0.1366 -0.0683
  650loPI   C2B10398   6.395  15.249   8.319 -0.0351 -0.1254 -0.2948
  650loPI   C3B10399   6.234  15.459   7.893 -0.2601  0.1688 -0.0956
  650loPI   C4B10400   5.891  15.182   7.724  0.1220  0.2690  0.1835
  651loPI    C110401  16.514  10.921   9.086 -0.0448 -0.0430  0.1988
  651loPI    C210402  16.420  11.177   9.378 -0.1296 -0.0561  0.1831
  651loPI    C310403  16.445  10.785   9.456  0.1428 -0.0292  0.2401
  651loPI   PO410404  16.764  11.090   8.998  0.1744  0.0468  0.2383
  651loPI   GL110405  16.825  11.272   8.596  0.0835  0.0545  0.0541
  651loPI   GL210406  16.567  11.217   8.517 -0.0265 -0.1285 -0.0480
  651loPI   C1A10407  16.973  11.370   8.296 -0.0960 -0.0144 -0.0810
  651loPI   C2A10408  17.114  11.734   8.041  0.0841  0.3463 -0.3939
  651loPI   C3A10409  17.062  11.766   7.594 -0.4203  0.2869  0.0038
  651loPI   C4A10410  17.073  12.075   7.378 -0.1242  0.0768 -0.4135
  651loPI   C5A10411  17.224  12.361   7.088 -0.2648 -0.0687  0.0088
  651loPI   C6A10412  17.287  12.754   6.935  0.0721  0.1710  0.1462
  651loPI   C1B10413  16.481  11.168   8.112 -0.0976 -0.1456 -0.1199
  651loPI   C2B10414  16.455  10.957   7.653 -0.1356 -0.2503  0.0296
  651loPI   C3B10415  16.785  11.063   7.306  0.1399  0.2985  0.1967
  651loPI   C4B10416  17.002  11.435   7.084  0.1500  0.4457  0.2515
  652loPI    C110417   3.278  16.872   9.841  0.0170  0.0051  0.0263
  652loPI    C210418   3.677  16.907   9.835  0.0102  0.0975  0.0898
  652loPI    C310419   3.491  16.785  10.168  0.0073 -0.2307 -0.0285
  652loPI   PO410420   3.144  17.017   9.615  0.0850 -0.2245 -0.1101
  652loPI   GL110421   3.002  16.939   9.192 -0.0504  0.2830  0.1081
  652loPI   GL210422   3.105  17.238   9.134  0.3176  0.2072  0.0322
  652loPI   C1A10423   3.049  17.019   8.688 -0.0877 -0.0493 -0.0088
  652loPI   C2A10424   3.314  16.891   8.383  0.1952 -0.2875 -0.0724
  652loPI   C3A10425   3.302  17.060   7.979  0.0374  0.3909  0.0141
  652loPI   C4A10426   3.168  17.055   7.538 -0.0295  0.1614 -0.1519
  652loPI   C5A10427   3.299  16.902   7.144 -0.0583  0.3847 -0.1667
  652loPI   C6A10428   3.372  17.078   6.690  0.0799 -0.3760  0.1656
  652loPI   C1B10429   3.458  16.983   8.979  0.2413 -0.3230 -0.0137
  652loPI   C2B10430   3.589  16.681   8.730 -0.3105 -0.1032  0.0050
  652loPI   C3B10431   3.751  16.526   8.425  0.2086 -0.3909 -0.1092
  652loPI   C4B10432   3.913  16.251   8.076 -0.1496 -0.1452  0.1887
  653loPI    C110433   7.515   1.006   9.543  0.0185 -0.3403 -0.0818
  653loPI    C210434   7.174   1.145   9.698  0.0369 -0.1694 -0.1921
  653loPI    C310435   7.221   0.753   9.638  0.0015 -0.2314  0.1631
  653loPI   PO410436   7.658   1.052   9.346  0.2110  0.0836  0.1491
  653loPI   GL110437   7.696   1.177   8.986  0.1190 -0.3129 -0.2041
  653loPI   GL210438   7.967   1.066   8.790 -0.0129  0.3120 -0.0422
  653loPI   C1A10439   7.572   1.164   8.501  0.2426 -0.1188  0.2748
  653loPI   C2A10440   7.537   1.238   7.994  0.1739  0.0184  0.1262
  653loPI   C3A10441   7.500   1.150   7.522  0.3183 -0.1312  0.1264
  653loPI   C4A10442   7.290   1.027   7.175  0.3463  0.2470  0.0763
  653loPI   C5A10443   7.061   0.635   7.053 -0.1519 -0.3132 -0.0624
  653loPI   C6A10444   6.958   0.255   7.228 -0.0720 -0.2061  0.0090
  653loPI   C1B10445   7.562   0.740   8.722  0.0291 -0.1203 -0.2316
  653loPI   C2B10446   7.469   0.702   8.386 -0.2762 -0.2555  0.4164
  653loPI   C3B10447   7.304   0.597   7.977  0.0521 -0.1370 -0.0618
  653loPI   C4B10448   7.358   0.666   7.533  0.1303  0.0157 -0.0050
  654loPI    C110449  11.957  12.109   9.903 -0.1827 -0.0007 -0.0556
  654loPI    C210450  12.022  12.275   9.546 -0.0050 -0.2318 -0.1337
  654loPI    C310451  12.331  12.187   9.784 -0.1226 -0.0829  0.0766
  654loPI   PO410452  11.841  11.918   9.882 -0.2437 -0.0955 -0.3353
  654loPI   GL110453  11.900  11.778   9.446  0.2864  0.1933  0.5911
  654loPI   GL210454  11.763  11.618   9.240  0.0587  0.2552 -0.1320
  654loPI   C1A10455  11.835  12.034   8.995 -0.1294  0.3422  0.0131
  654loPI   C2A10456  11.661  12.065   8.718 -0.2231  0.0605  0.0815
  654loPI   C3A10457  11.586  12.241   8.365  0.1764 -0.3159  0.0656
  654loPI   C4A10458  11.375  12.242   8.021  0.1645  0.2261  0.1197
  654loPI   C5A10459  11.166  12.613   7.835  0.2448 -0.1870  0.1559
  654loPI   C6A10460  11.008  12.828   7.502 -0.1169  0.0685 -0.1510
  654loPI   C1B10461  11.638  11.546   8.791 -0.1427  0.0140 -0.2276
  654loPI   C2B10462  11.514  11.287   8.474  0.0135  0.1553 -0.1979
  654loPI   C3B10463  11.319  11.010   8.049 -0.1896  0.0922  0.0613
  654loPI   C4B10464  11.467  10.946   7.584  0.2214 -0.4480  0.1555
  655loPI    C110465   1.993   9.008  10.034  0.0665  0.1609 -0.0670
  655loPI    C210466   1.866   9.356   9.884 -0.3161  0.0375 -0.0409
  655loPI    C310467   1.885   9.304  10.280 -0.3630 -0.0072 -0.0444
  655loPI   PO410468   1.832   8.825   9.863 -0.0342 -0.1063 -0.0609
  655loPI   GL110469   1.701   8.923   9.542 -0.1955 -0.2643  0.3112
  655loPI   GL210470   1.776   8.697   9.237  0.0447  0.0071 -0.1939
  655loPI   C1A10471   1.783   9.270   9.280 -0.0053  0.0313  0.4020
  655loPI   C2A10472   2.081   9.412   8.910  0.2267 -0.0545 -0.0762
  655loPI   C3A10473   2.089   9.663   8.515 -0.1829  0.2723 -0.0990
  655loPI   C4A10474   2.143   9.798   8.112 -0.2020  0.2883  0.0210
  655loPI   C5A10475   2.392   9.717   7.773 -0.1635  0.3230 -0.1203
  655loPI   C6A10476   2.288   9.285   7.566 -0.2246  0.0912  0.3887
  655loPI   C1B10477   1.597   8.636   8.873  0.1717 -0.2204  0.1664
  655loPI   C2B10478   1.589   8.713   8.479 -0.6482 -0.0336 -0.0387
  655loPI   C3B10479   1.595   8.639   8.015 -0.1638  0.0036 -0.1592
  655loPI   C4B10480   1.493   8.707   7.632 -0.0451 -0.3564 -0.0162
  656loPI    C110481   2.386   9.585  10.061  0.0791 -0.0156 -0.1075
  656loPI    C210482   2.754   9.458  10.155 -0.0130 -0.1154  0.1253
  656loPI    C310483   2.447   9.202  10.158 -0.0078 -0.1468 -0.5477
  656loPI   PO410484   2.357   9.719   9.782 -0.0518  0.3799 -0.3847
  656loPI   GL110485   2.575   9.797   9.356  0.1341  0.1920 -0.2402
  656loPI   GL210486   2.585   9.573   9.232  0.0301  0.1780 -0.3045
  656loPI   C1A10487   2.359   9.986   9.000  0.0153  0.0071  0.3082
  656loPI   C2A10488   2.352  10.060   8.546 -0.2261 -0.3139 -0.3394
  656loPI   C3A10489   2.415  10.188   8.166 -0.5184  0.1449  0.2045
  656loPI   C4A10490   2.452  10.184   7.862 -0.0343 -0.2143 -0.4499
  656loPI   C5A10491   2.371  10.354   7.413  0.2629  0.3481  0.0501
  656loPI   C6A10492   2.031  10.089   7.043 -0.2976 -0.2968 -0.1421
  656loPI   C1B10493   2.569   9.674   8.734  0.0197  0.0168  0.3639
  656loPI   C2B10494   2.592   9.692   8.279 -0.1002  0.1783  0.0434
  656loPI   C3B10495   2.770   9.401   7.949  0.0651 -0.3510 -0.3509
  656loPI   C4B10496   2.784   9.481   7.511  0.0720 -0.0640  0.1349
  657loPI    C110497  18.521  17.445   9.694 -0.2656 -0.1069  0.0736
  657loPI    C210498  18.873  17.282   9.791 -0.2257 -0.0563  0.0153
  657loPI    C310499  18.636  17.432  10.077 -0.2773 -0.2449  0.0728
  657loPI   PO410500  18.422  17.203   9.500 -0.2059 -0.0775 -0.1395
  657loPI   GL110501  18.590  16.996   9.030 -0.0429 -0.0194 -0.1412
  657loPI   GL210502  19.000  16.854   9.067  0.1610 -0.2704  0.1077
  657loPI   C1A10503  18.693  17.221   8.725 -0.2145  0.1019 -0.0412
  657loPI   C2A10504  18.775  17.168   8.246 -0.1412 -0.2401 -0.1048
  657loPI   C3A10505  18.968  17.078   7.808  0.1722 -0.0143  0.3222
  657loPI   C4A10506  19.346  17.138   7.699  0.3235 -0.0435  0.1104
  657loPI   C5A10507  19.584  17.175   7.355 -0.0933  0.3549 -0.1652
  657loPI   C6A10508  19.765  17.256   6.974  0.1058 -0.2830 -0.1209
  657loPI   C1B10509  18.993  16.794   8.621  0.3164  0.1076 -0.0916
  657loPI   C2B10510  19.088  16.741   8.183  0.2103 -0.0672 -0.0527
  657loPI   C3B10511  19.178  16.616   7.761  0.0183 -0.0893  0.4346
  657loPI   C4B10512  19.166  16.769   7.399 -0.5502 -0.1063  0.0231
  658loPI    C110513   0.166  17.646   9.738  0.1660 -0.0753 -0.0522
  658loPI    C210514  -0.234  17.667   9.723  0.1616 -0.1769 -0.0871
  658loPI    C310515  -0.053  17.508  10.043  0.1818  0.0531  0.0176
  658loPI   PO410516   0.260  17.566   9.442 -0.0546 -0.0567 -0.2291
  658loPI   GL110517   0.268  17.615   8.985 -0.1560 -0.3586  0.0785
  658loPI   GL210518   0.324  17.238   9.066  0.0668 -0.0896  0.0396
  658loPI   C1A10519   0.008  17.857   8.766 -0.0146 -0.2604  0.1104
  658loPI   C2A10520  -0.335  17.853   8.410  0.3950  0.2998 -0.1862
  658loPI   C3A10521  -0.510  17.963   8.050  0.2647 -0.1302 -0.0353
  658loPI   C4A10522  -0.452  18.129   7.524  0.3382  0.0745  0.0952
  658loPI   C5A10523  -0.596  18.267   7.205  0.1646  0.0693  0.3333
  658loPI   C6A10524  -0.778  18.185   6.848 -0.0308  0.1771  0.1428
  658loPI   C1B10525   0.014  17.142   8.740 -0.0940  0.1387 -0.2632
  658loPI   C2B10526  -0.079  17.398   8.260 -0.0174 -0.1609  0.2747
  658loPI   C3B10527  -0.089  17.253   7.836 -0.1026  0.0033  0.1626
  658loPI   C4B10528   0.156  17.276   7.457  0.2744  0.2016 -0.2035
  659loPI    C110529   3.668  11.775   9.877 -0.0403  0.3414  0.1287
  659loPI    C210530   3.919  11.679  10.174 -0.1267  0.0494  0.1112
  659loPI    C310531   3.618  11.933  10.241  0.0246  0.2085  0.1965
  659loPI   PO410532   3.841  11.841   9.685 -0.3843 -0.0103 -0.1309
  659loPI   GL110533   3.835  11.915   9.275  0.0387 -0.2711  0.1080
  659loPI   GL210534   4.165  12.140   9.391 -0.1154  0.0084 -0.5413
  659loPI   C1A10535   4.135  12.123   8.886  0.0923 -0.3510 -0.2433
  659loPI   C2A10536   4.041  12.120   8.444  0.3052 -0.3514 -0.0430
  659loPI   C3A10537   4.214  11.887   8.174 -0.2555  0.0417  0.0908
  659loPI   C4A10538   4.183  11.696   7.909  0.1030  0.0223  0.1626
  659loPI   C5A10539   4.227  11.723   7.503 -0.2953 -0.1370  0.0410
  659loPI   C6A10540   3.922  11.566   7.260  0.2114 -0.0524 -0.1106
  659loPI   C1B10541   3.695  12.354   9.138 -0.1876 -0.3741  0.2506
  659loPI   C2B10542   3.608  12.352   8.666  0.3522 -0.0837  0.0757
  659loPI   C3B10543   3.489  12.131   8.170  0.1020  0.2568  0.0415
  659loPI   C4B10544   3.504  11.913   7.885  0.3677 -0.0595  0.4742
  660loPI    C110545  13.095   7.463   9.342  0.0541  0.1281  0.1616
  660loPI    C210546  12.699   7.430   9.290  0.1100 -0.1137 -0.1390
  660loPI    C310547  12.886   7.198   9.557  0.0466  0.0238  0.0268
  660loPI   PO410548  13.138   7.639   9.121 -0.3148 -0.0101 -0.0801
  660loPI   GL110549  13.212   7.752   8.703 -0.2449  0.1184 -0.0301
  660loPI   GL210550  12.942   7.768   8.516  0.0902  0.0033  0.1446
  660loPI   C1A10551  13.513   7.636   8.308  0.0540 -0.1681 -0.0110
  660loPI   C2A10552  13.751   7.619   7.917  0.1170 -0.3065 -0.0257
  660loPI   C3A10553  13.964   7.440   7.535 -0.1501 -0.4259 -0.1843
  660loPI   C4A10554  13.958   7.331   7.073  0.0260  0.0650 -0.2362
  660loPI   C5A10555  14.147   7.252   6.716 -0.1417  0.3205  0.3141
  660loPI   C6A10556  14.525   7.275   6.583 -0.0323 -0.1663 -0.1739
  660loPI   C1B10557  13.045   7.901   8.112 -0.1394  0.1380 -0.2603
  660loPI   C2B10558  13.286   7.776   7.679 -0.0644 -0.2427 -0.0562
  660loPI   C3B10559  13.416   7.619   7.264  0.1849  0.1583  0.0313
  660loPI   C4B10560  13.189   7.646   6.893 -0.2184  0.3176  0.3759
  661loPI    C110561   5.133  15.456   9.779 -0.1139  0.0867  0.1379
  661loPI    C210562   4.922  15.602   9.472  0.0791  0.0991  0.0090
  661loPI    C310563   5.142  15.847   9.699  0.0591  0.0682  0.0622
  661loPI   PO410564   5.206  15.194   9.655 -0.1877 -0.0454  0.2514
  661loPI   GL110565   5.170  15.080   9.282 -0.1371 -0.1819  0.0544
  661loPI   GL210566   4.952  14.813   8.997  0.0856 -0.1418  0.0887
  661loPI   C1A10567   5.325  15.057   8.874  0.3364 -0.2581  0.4338
  661loPI   C2A10568   5.307  15.329   8.363  0.1584  0.1823  0.0928
  661loPI   C3A10569   5.299  15.182   7.881 -0.4477 -0.2030  0.0185
  661loPI   C4A10570   5.448  15.035   7.482 -0.2829 -0.1422 -0.0964
  661loPI   C5A10571   5.593  14.735   7.120  0.1870 -0.0122  0.1233
  661loPI   C6A10572   5.382  14.495   6.864 -0.1009  0.2451  0.0478
  661loPI   C1B10573   5.249  14.557   8.977 -0.0515 -0.0136 -0.1249
  661loPI   C2B10574   5.310  14.256   8.593 -0.2247 -0.4942 -0.2563
  661loPI   C3B10575   5.158  13.858   8.428  0.1934  0.0352  0.2361
  661loPI   C4B10576   5.012  13.456   8.331  0.3256 -0.0105  0.2013
  662loPI    C110577  18.207   1.511   9.789 -0.3049  0.1207 -0.1109
  662loPI    C210578  18.064   1.305  10.101  0.0212 -0.0391 -0.0628
  662loPI    C310579  18.138   1.697  10.137 -0.2701  0.0167 -0.0480
  662loPI   PO410580  18.028   1.440   9.546 -0.0901 -0.0754 -0.0284
  662loPI   GL110581  17.992   1.582   9.171  0.1092  0.1204 -0.1322
  662loPI   GL210582  18.375   1.555   9.273 -0.3945 -0.0024  0.1854
  662loPI   C1A10583  18.103   1.659   8.674  0.0707  0.0579  0.0277
  662loPI   C2A10584  18.013   1.599   8.169  0.0054  0.0455  0.0374
  662loPI   C3A10585  18.404   1.341   7.962 -0.0923 -0.1744 -0.0503
  662loPI   C4A10586  18.500   1.365   7.567  0.0493 -0.2647  0.3572
  662loPI   C5A10587  18.188   1.257   7.144 -0.0014  0.1717 -0.1620
  662loPI   C6A10588  17.845   1.033   6.919 -0.0741  0.5270  0.2339
  662loPI   C1B10589  18.766   1.651   8.947 -0.1911 -0.0398  0.0335
  662loPI   C2B10590  18.903   1.941   8.454  0.0465  0.3659  0.0910
  662loPI   C3B10591  19.054   1.888   8.007 -0.3384 -0.1536  0.0819
  662loPI   C4B10592  19.014   1.924   7.595  0.3382 -0.3047  0.0225
  663loPI    C110593  14.856  15.208   9.496  0.0183 -0.0275 -0.0817
  663loPI    C210594  14.507  15.328   9.651 -0.0225 -0.1445 -0.0819
  663loPI    C310595  14.729  15.056   9.844  0.2029  0.1334  0.0585
  663loPI   PO410596  14.886  15.153   9.274 -0.2297  0.0358  0.1231
  663loPI   GL110597  14.808  15.028   8.955 -0.0285 -0.0730  0.1315
  663loPI   GL210598  14.828  15.256   8.713 -0.1242  0.0772  0.1161
  663loPI   C1A10599  15.128  14.893   8.636 -0.0048  0.0017 -0.0687
  663loPI   C2A10600  15.323  14.895   8.239  0.0249 -0.0618  0.1620
  663loPI   C3A10601  15.501  15.022   7.881 -0.3084 -0.0222  0.4287
  663loPI   C4A10602  15.643  15.122   7.445  0.0576 -0.1499  0.2831
  663loPI   C5A10603  15.819  15.140   7.034  0.0989  0.3255 -0.2266
  663loPI   C6A10604  15.736  14.855   6.819  0.0113  0.0355  0.4254
  663loPI   C1B10605  14.644  15.436   8.326  0.2071  0.0434 -0.1349
  663loPI   C2B10606  14.632  15.509   7.929 -0.2744  0.1947  0.1541
  663loPI   C3B10607  14.578  15.731   7.740  0.2082  0.1987  0.1031
  663loPI   C4B10608  14.622  15.878   7.315  0.1915  0.0577  0.0767
  664loPI    C110609   6.785  12.527  10.141 -0.0280 -0.2831 -0.0055
  664loPI    C210610   7.137  12.342  10.099  0.0636 -0.0879 -0.1125
  664loPI    C310611   7.125  12.734  10.180 -0.1295 -0.0826 -0.1616
  664loPI   PO410612   6.683  12.513   9.897  0.0319  0.2073  0.1073
  664loPI   GL110613   6.536  12.313   9.568 -0.1882 -0.1058 -0.2534
  664loPI   GL210614   6.617  12.620   9.402 -0.1262  0.1966  0.2350
  664loPI   C1A10615   6.696  12.197   9.095  0.0948 -0.0997  0.1377
  664loPI   C2A10616   6.618  12.292   8.605  0.1777 -0.2655 -0.0105
  664loPI   C3A10617   6.715  12.591   8.219 -0.1782  0.0248 -0.0755
  664loPI   C4A10618   6.861  12.909   7.902  0.1323 -0.0037 -0.2502
  664loPI   C5A10619   6.919  13.232   7.480  0.3832  0.1553 -0.1137
  664loPI   C6A10620   7.093  13.395   7.042  0.2222  0.1444  0.0132
  664loPI   C1B10621   6.416  12.647   8.919 -0.0051  0.4386  0.3004
  664loPI   C2B10622   6.252  12.685   8.468 -0.0355 -0.3440 -0.3414
  664loPI   C3B10623   6.427  12.978   8.099  0.2113 -0.3656  0.0109
  664loPI   C4B10624   6.584  13.358   8.169  0.3567 -0.1226  0.0951
  665loPI    C110625  10.614  16.152   9.336  0.2767  0.1418  0.1613
  665loPI    C210626  10.751  16.360   9.650  0.0319  0.0798  0.3110
  665loPI    C310627  10.575  16.004   9.705 -0.0513  0.0878  0.1078
  665loPI   PO410628  10.502  16.267   9.207  0.1642 -0.0816 -0.0476
  665loPI   GL110629  10.350  16.222   8.815  0.0137  0.0020 -0.0907
  665loPI   GL210630  10.184  16.370   8.547 -0.3482 -0.2231 -0.2502
  665loPI   C1A10631  10.277  15.740   8.722  0.2107 -0.0233 -0.0161
  665loPI   C2A10632  10.288  15.436   8.444  0.0426  0.0582 -0.0603
  665loPI   C3A10633  10.337  15.365   7.992  0.1133  0.0527  0.0393
  665loPI   C4A10634  10.606  15.185   7.732  0.1051  0.1094 -0.1603
  665loPI   C5A10635  10.906  15.150   7.379  0.1182 -0.0279  0.1023
  665loPI   C6A10636  11.028  15.476   7.049 -0.1654 -0.0118  0.0965
  665loPI   C1B10637  10.417  16.505   8.235  0.3170 -0.0973  0.0469
  665loPI   C2B10638  10.319  16.432   7.765 -0.3304  0.1774 -0.0620
  665loPI   C3B10639   9.906  16.331   7.447  0.2223 -0.1092 -0.2303
  665loPI   C4B10640   9.927  16.084   7.152  0.0133  0.1951  0.4532
  666loPI    C110641   6.819   0.890   9.452  0.1987  0.0373  0.1747
  666loPI    C210642   6.603   1.060   9.161  0.2325 -0.2160 -0.0017
  666loPI    C310643   6.762   1.286   9.451  0.3073  0.0563 -0.2511
  666loPI   PO410644   6.815   0.554   9.264 -0.1877 -0.1804  0.0603
  666loPI   GL110645   6.700   0.528   8.809 -0.3302 -0.1253  0.4810
  666loPI   GL210646   6.520   0.291   8.918  0.3786 -0.2118 -0.0226
  666loPI   C1A10647   6.887   0.585   8.335  0.1688  0.0956 -0.0319
  666loPI   C2A10648   6.821   0.633   7.866 -0.1029 -0.0863  0.0130
  666loPI   C3A10649   6.651   0.611   7.447  0.1308  0.1012  0.3606
  666loPI   C4A10650   6.495   0.494   7.053  0.1496 -0.2334  0.0396
  666loPI   C5A10651   6.002   0.303   7.065  0.1318 -0.0509 -0.1610
  666loPI   C6A10652   5.449   0.438   7.134 -0.0972 -0.5683 -0.1304
  666loPI   C1B10653   6.356  -0.007   8.642 -0.0590  0.0245 -0.1345
  666loPI   C2B10654   6.350  -0.006   8.198  0.0728  0.2663 -0.1218
  666loPI   C3B10655   6.090  -0.017   7.867 -0.1890  0.2609  0.0784
  666loPI   C4B10656   5.667   0.012   7.659  0.0465 -0.0227 -0.0423
  667loPI    C110657  11.572   7.044   9.327 -0.2692 -0.1697 -0.0472
  667loPI    C210658  11.810   6.747   9.449 -0.1145 -0.1231 -0.2306
  667loPI    C310659  11.605   6.962   9.717  0.0587 -0.1561 -0.0695
  667loPI   PO410660  11.723   7.141   9.066  0.0588 -0.1525  0.0399
  667loPI   GL110661  11.710   6.942   8.775 -0.2894  0.5356  0.0108
  667loPI   GL210662  11.857   6.634   8.935 -0.0951  0.1097 -0.0477
  667loPI   C1A10663  11.693   6.905   8.324  0.1784  0.2339  0.1180
  667loPI   C2A10664  11.794   6.970   7.920  0.1741 -0.0609 -0.1504
  667loPI   C3A10665  11.882   6.978   7.497  0.3183  0.4613 -0.1206
  667loPI   C4A10666  12.154   7.090   7.123  0.0126 -0.1524 -0.0806
  667loPI   C5A10667  12.074   7.298   6.867  0.0665 -0.3505  0.0400
  667loPI   C6A10668  11.785   7.210   6.533 -0.1113  0.1692  0.0710
  667loPI   C1B10669  11.875   6.449   8.616 -0.0907 -0.2324  0.0652
  667loPI   C2B10670  12.055   6.150   8.212  0.0732 -0.2337 -0.2581
  667loPI   C3B10671  12.086   6.067   7.843  0.2115 -0.3196 -0.2227
  667loPI   C4B10672  11.795   6.240   7.567  0.0609  0.0914 -0.3376
  668loPI    C110673   5.714   7.819   9.761 -0.2190 -0.1130  0.1383
  668loPI    C210674   5.941   7.784  10.089 -0.1140 -0.1081  0.0665
  668loPI    C310675   5.649   8.057  10.076 -0.0045  0.0111  0.0909
  668loPI   PO410676   5.914   7.669   9.548  0.0523  0.0779  0.2832
  668loPI   GL110677   6.009   7.617   9.105  0.2022  0.1384 -0.1884
  668loPI   GL210678   6.239   7.800   9.087 -0.3501  0.2169  0.0129
  668loPI   C1A10679   5.899   7.556   8.769  0.1182 -0.0492  0.0573
  668loPI   C2A10680   5.833   7.404   8.288  0.1084 -0.0180 -0.1497
  668loPI   C3A10681   5.758   7.377   7.876  0.2032 -0.0296  0.1900
  668loPI   C4A10682   5.654   7.414   7.413  0.4662  0.1091 -0.0179
  668loPI   C5A10683   5.477   7.470   7.024 -0.0906  0.1179 -0.0869
  668loPI   C6A10684   5.276   7.218   6.680  0.2061 -0.0969 -0.1433
  668loPI   C1B10685   6.342   7.660   8.599  0.3712  0.0552 -0.1864
  668loPI   C2B10686   6.481   7.525   8.239 -0.0677 -0.1936 -0.0835
  668loPI   C3B10687   6.395   7.479   7.773  0.0072 -0.2820 -0.1675
  668loPI   C4B10688   6.607   7.181   7.410 -0.0619  0.0521  0.1113
  669loPI    C110689  14.838  19.770   9.709  0.0043  0.0225  0.1588
  669loPI    C210690  14.521  19.997   9.800  0.1584  0.1912  0.2833
  669loPI    C310691  14.532  19.613   9.913 -0.0962  0.1229  0.0872
  669loPI   PO410692  14.836  19.830   9.424 -0.0334 -0.2106  0.3058
  669loPI   GL110693  14.823  19.991   9.003  0.3277  0.2115  0.4551
  669loPI   GL210694  14.588  19.668   8.927  0.1590  0.0326 -0.1071
  669loPI   C1A10695  14.512  20.064   8.605 -0.2581  0.1342 -0.3404
  669loPI   C2A10696  14.290  19.982   8.262  0.0992 -0.1734  0.1290
  669loPI   C3A10697  14.288  20.173   7.918 -0.0228  0.0801  0.1222
  669loPI   C4A10698  14.268  20.121   7.475 -0.0811 -0.2257  0.2143
  669loPI   C5A10699  14.306  19.910   7.062  0.0327 -0.0622  0.1832
  669loPI   C6A10700  14.558  19.708   6.863 -0.1186  0.0116  0.2615
  669loPI   C1B10701  14.816  19.650   8.544 -0.2427  0.2772 -0.4096
  669loPI   C2B10702  14.833  19.947   8.188 -0.2097 -0.2739 -0.0987
  669loPI   C3B10703  14.607  19.905   7.737  0.0314  0.3871  0.0638
  669loPI   C4B10704  14.730  19.709   7.366 -0.1515 -0.1504  0.1924
  670loPI    C110705   6.401  18.984  10.138  0.1290  0.0068 -0.1844
  670loPI    C210706   6.664  19.283  10.102  0.0202  0.0931 -0.2648
  670loPI    C310707   6.792  18.915  10.190  0.1437  0.1859 -0.0496
  670loPI   PO410708   6.223  19.035   9.914 -0.1523 -0.5641 -0.0675
  670loPI   GL110709   6.135  18.989   9.467  0.2277 -0.0438  0.0004
  670loPI   GL210710   6.360  19.075   9.292 -0.4576  0.2337  0.0205
  670loPI   C1A10711   5.799  19.003   9.172  0.0487 -0.1218 -0.2038
  670loPI   C2A10712   5.550  18.942   8.783 -0.2100 -0.2079 -0.3695
  670loPI   C3A10713   5.586  18.802   8.396  0.3761 -0.4856  0.0242
  670loPI   C4A10714   5.491  18.842   8.003 -0.0658 -0.0572 -0.0501
  670loPI   C5A10715   5.411  19.032   7.599  0.3929  0.0624 -0.3067
  670loPI   C6A10716   5.491  18.913   7.205  0.0176  0.1304 -0.3989
  670loPI   C1B10717   6.411  19.146   8.868  0.4281  0.0020  0.1814
  670loPI   C2B10718   6.306  19.416   8.558 -0.0324 -0.2840  0.3052
  670loPI   C3B10719   5.907  19.605   8.330 -0.0941  0.2012  0.2893
  670loPI   C4B10720   5.796  19.340   7.935 -0.0740  0.1482  0.0814
  671loPI    C110721  17.789  11.116   9.382 -0.0357 -0.0736 -0.0675
  671loPI    C210722  17.463  10.935   9.526  0.0616 -0.0982  0.1252
  671loPI    C310723  17.774  10.717   9.402  0.0135 -0.0742 -0.0396
  671loPI   PO410724  17.739  11.263   9.220  0.0145 -0.0617  0.5177
  671loPI   GL110725  17.575  11.386   8.799  0.0017  0.1252 -0.1062
  671loPI   GL210726  17.829  11.178   8.652  0.1354  0.0815 -0.2597
  671loPI   C1A10727  17.545  11.399   8.302  0.0668 -0.0528  0.2027
  671loPI   C2A10728  17.716  11.505   7.897  0.0893  0.0418  0.0904
  671loPI   C3A10729  17.873  11.554   7.488  0.4356 -0.2976 -0.3645
  671loPI   C4A10730  18.024  11.773   7.084  0.2777  0.0321 -0.1882
  671loPI   C5A10731  18.219  11.683   6.714 -0.1658  0.2984  0.0143
  671loPI   C6A10732  18.057  11.476   6.331  0.1967 -0.1409 -0.3770
  671loPI   C1B10733  17.928  11.098   8.239  0.0201  0.0803 -0.1379
  671loPI   C2B10734  18.073  11.100   7.792  0.2262  0.0729  0.0313
  671loPI   C3B10735  17.897  11.104   7.263 -0.1944  0.3654 -0.0485
  671loPI   C4B10736  17.977  10.730   6.998 -0.4416  0.1064 -0.0726
  672loPI    C110737  12.820  17.024   9.320  0.0463 -0.0676 -0.1897
  672loPI    C210738  12.920  17.086   9.702 -0.1041  0.0175 -0.1635
  672loPI    C310739  12.783  17.389   9.479  0.2570  0.0349 -0.3702
  672loPI   PO410740  13.065  16.857   9.248 -0.1386  0.3232  0.2733
  672loPI   GL110741  13.220  16.689   8.824 -0.4092 -0.3437 -0.1866
  672loPI   GL210742  12.895  16.486   8.791 -0.0723 -0.4704  0.0009
  672loPI   C1A10743  13.347  16.524   8.439  0.6907  0.0045  0.0249
  672loPI   C2A10744  13.464  16.402   8.023  0.1588  0.3792 -0.1037
  672loPI   C3A10745  13.262  16.141   7.648 -0.1393 -0.3509  0.2219
  672loPI   C4A10746  13.209  15.986   7.050  0.3402  0.3327 -0.2299
  672loPI   C5A10747  12.981  15.719   6.657  0.0107  0.0570  0.1561
  672loPI   C6A10748  13.079  15.409   6.472 -0.0695  0.2778  0.1363
  672loPI   C1B10749  12.799  16.459   8.447 -0.1196 -0.1231 -0.0940
  672loPI   C2B10750  12.963  16.334   8.051 -0.0372  0.2074 -0.0843
  672loPI   C3B10751  12.657  16.319   7.678  0.2158 -0.3113  0.0398
  672loPI   C4B10752  12.343  16.103   7.644 -0.1566  0.1474  0.0117
  673loPI    C110753  19.132   3.323   9.363  0.1316 -0.1047 -0.1122
  673loPI    C210754  19.165   3.445   9.743 -0.1200 -0.2542 -0.0395
  673loPI    C310755  19.371   3.630   9.454 -0.2166  0.1057  0.1173
  673loPI   PO410756  18.758   3.335   9.402 -0.0984 -0.1536  0.4139
  673loPI   GL110757  18.594   3.054   9.099  0.0572 -0.0346  0.1590
  673loPI   GL210758  18.501   3.470   8.988 -0.2098  0.2747  0.1669
  673loPI   C1A10759  18.653   2.811   8.653  0.0275 -0.0558 -0.2443
  673loPI   C2A10760  18.771   2.961   8.267  0.0291  0.0979  0.3048
  673loPI   C3A10761  18.856   2.812   7.894 -0.0666  0.4019 -0.0683
  673loPI   C4A10762  18.605   2.723   7.490 -0.1814 -0.1267 -0.1425
  673loPI   C5A10763  18.250   2.671   7.252 -0.2245  0.2862  0.0945
  673loPI   C6A10764  17.924   2.744   6.968  0.0811 -0.0182 -0.2647
  673loPI   C1B10765  18.822   3.553   8.569 -0.0531 -0.3981  0.2091
  673loPI   C2B10766  18.984   3.426   8.113 -0.2043 -0.0126 -0.1825
  673loPI   C3B10767  19.202   3.117   7.965 -0.0639 -0.1449  0.0320
  673loPI   C4B10768  19.535   2.787   8.072  0.4279 -0.5386  0.1851
  674loPI    C110769  13.989  10.739   9.293  0.0142  0.0201  0.0795
  674loPI    C210770  13.730  10.674   9.591  0.1845 -0.2174  0.1791
  674loPI    C310771  13.928  11.021   9.570 -0.0553 -0.0789  0.1659
  674loPI   PO410772  13.953  10.619   8.950  0.1231  0.1852  0.0271
  674loPI   GL110773  13.727  10.672   8.663 -0.0669 -0.0619 -0.0708
  674loPI   GL210774  13.701  10.949   8.610  0.1504  0.1416 -0.0354
  674loPI   C1A10775  13.790  10.438   8.260 -0.0641 -0.0861  0.1866
  674loPI   C2A10776  13.449  10.489   7.929  0.1039  0.0785 -0.3291
  674loPI   C3A10777  13.317  10.424   7.548  0.0290  0.2991  0.0920
  674loPI   C4A10778  13.178  10.701   7.154  0.0561 -0.1403 -0.1859
  674loPI   C5A10779  13.053  10.803   6.746 -0.0423 -0.2408 -0.0431
  674loPI   C6A10780  12.736  10.808   6.544  0.1713 -0.2169 -0.2389
  674loPI   C1B10781  13.898  10.954   8.248  0.1927  0.1753  0.3192
  674loPI   C2B10782  13.822  10.928   7.875 -0.1396  0.1524 -0.0630
  674loPI   C3B10783  13.594  10.830   7.430  0.0142  0.2907  0.1150
  674loPI   C4B10784  13.624  10.842   6.957 -0.0160 -0.0473 -0.0236
  675loPI    C110785   7.604   2.059   9.662 -0.0125  0.1520  0.1686
  675loPI    C210786   7.780   1.702   9.697 -0.2291  0.0241 -0.0228
  675loPI    C310787   7.675   1.906  10.024 -0.0578 -0.0635  0.0880
  675loPI   PO410788   7.436   1.975   9.482  0.0906 -0.1292  0.1028
  675loPI   GL110789   7.256   2.094   9.041  0.0763 -0.0646  0.1002
  675loPI   GL210790   6.958   2.105   8.873  0.1371 -0.4551  0.0070
  675loPI   C1A10791   7.392   2.248   8.630  0.0922  0.0988 -0.1393
  675loPI   C2A10792   7.335   2.037   8.194 -0.2414  0.0535  0.2906
  675loPI   C3A10793   7.165   2.304   7.897 -0.0895 -0.2020 -0.0098
  675loPI   C4A10794   7.239   2.420   7.357 -0.1883 -0.1409  0.1814
  675loPI   C5A10795   7.369   2.292   6.859  0.1065  0.0129  0.0500
  675loPI   C6A10796   7.106   2.270   6.618 -0.0466 -0.0871 -0.2362
  675loPI   C1B10797   6.924   1.946   8.472 -0.1351 -0.0048  0.3047
  675loPI   C2B10798   6.807   1.995   7.998 -0.0139 -0.1273  0.2916
  675loPI   C3B10799   6.909   1.990   7.578  0.4434  0.0370 -0.0465
  675loPI   C4B10800   6.744   2.214   7.205  0.2815  0.1771 -0.0219
  676loPI    C110801  16.047  15.827   9.464 -0.2876  0.1094 -0.3014
  676loPI    C210802  16.296  15.534   9.571 -0.5442 -0.1074 -0.2862
  676loPI    C310803  16.164  15.793   9.845 -0.0753  0.2184 -0.3552
  676loPI   PO410804  16.187  15.961   9.316  0.0874  0.3117 -0.1281
  676loPI   GL110805  16.382  16.199   9.022  0.2350  0.1509 -0.0074
  676loPI   GL210806  16.298  15.994   8.826  0.4197 -0.0499  0.3169
  676loPI   C1A10807  16.194  16.505   8.808  0.4381  0.0881 -0.1278
  676loPI   C2A10808  16.046  16.820   8.566  0.4296  0.0973 -0.0978
  676loPI   C3A10809  15.948  16.710   8.156 -0.0314 -0.1202 -0.0318
  676loPI   C4A10810  16.120  16.488   7.784  0.1181 -0.0794 -0.0033
  676loPI   C5A10811  16.032  16.511   7.359 -0.1007 -0.4331 -0.2054
  676loPI   C6A10812  15.958  16.758   6.988  0.2331  0.0627 -0.1053
  676loPI   C1B10813  16.262  16.207   8.430 -0.1521  0.3187 -0.3706
  676loPI   C2B10814  16.402  16.569   8.267  0.2291  0.0369  0.0038
  676loPI   C3B10815  16.790  16.820   8.151 -0.0825 -0.0683  0.0032
  676loPI   C4B10816  16.884  17.014   8.470  0.1478  0.3284 -0.0467
  677PSPI    C110817   9.989   3.446   4.688 -0.0858  0.0850  0.1698
  677PSPI    C210818   9.721   3.610   4.440 -0.0295 -0.0564  0.0141
  677PSPI    C310819   9.808   3.220   4.412  0.0670 -0.0476  0.1766
  677PSPI   PO410820  10.192   3.638   4.614  0.1565  0.2354  0.3095
  677PSPI   GL110821  10.559   3.841   4.671 -0.1822 -0.2984  0.1208
  677PSPI   GL210822  10.373   3.993   4.891 -0.0155 -0.3331 -0.0220
  677PSPI   C1A10823  10.813   3.689   4.998 -0.0899  0.1391  0.0512
  677PSPI   C2A10824  10.952   3.591   5.434 -0.3532  0.2816 -0.2479
  677PSPI   C3A10825  11.344   3.628   5.732 -0.1917  0.2903  0.2469
  677PSPI   C4A10826  11.740   3.775   5.982  0.0442 -0.0054 -0.2831
  677PSPI   C1B10827  10.554   4.229   5.211 -0.1489  0.6114 -0.0761
  677PSPI   C2B10828  10.964   4.107   5.405 -0.1300 -0.2120 -0.1358
  677PSPI   C3B10829  11.117   4.061   5.942  0.2819  0.0815  0.2556
  677PSPI   C4B10830  11.144   3.698   6.195 -0.2547  0.1340 -0.1990
  678PSPI    C110831  12.922  18.981   4.803  0.1053 -0.0769 -0.0267
  678PSPI    C210832  12.803  18.605   4.875 -0.1445 -0.0317 -0.1911
  678PSPI    C310833  12.749  18.767   4.513 -0.0018  0.1501 -0.1330
  678PSPI   PO410834  13.228  18.964   4.978 -0.0473  0.3545 -0.0312
  678PSPI   GL110835  13.432  19.068   5.298  0.5082  0.3147 -0.0836
  678PSPI   GL210836  13.219  19.358   5.397 -0.3627 -0.2693  0.0056
  678PSPI   C1A10837  13.466  18.995   5.773  0.2348 -0.0848 -0.3479
  678PSPI   C2A10838  13.352  19.138   6.238  0.1775  0.3338 -0.0664
  678PSPI   C3A10839  13.262  19.154   6.642 -0.0506  0.1020 -0.2949
  678PSPI   C4A10840  13.118  19.137   7.078 -0.3518  0.0097 -0.0637
  678PSPI   C1B10841  12.979  19.077   5.738 -0.2964 -0.3164 -0.0017
  678PSPI   C2B10842  12.866  19.179   6.203 -0.0256 -0.1979  0.2841
  678PSPI   C3B10843  12.846  19.424   6.598 -0.2391 -0.0967  0.0966
  678PSPI   C4B10844  12.775  19.778   6.669 -0.3476 -0.1460 -0.5207
  679PSPI    C110845  14.803   0.055   5.009 -0.3191 -0.0681  0.2581
  679PSPI    C210846  14.885  -0.284   4.815  0.0117  0.0306  0.2201
  679PSPI    C310847  14.521  -0.121   4.787 -0.0101 -0.0708 -0.1433
  679PSPI   PO410848  14.867  -0.132   5.305  0.2415  0.2452 -0.3970
  679PSPI   GL110849  14.761  -0.184   5.691  0.2170 -0.1059 -0.2196
  679PSPI   GL210850  15.157  -0.092   5.686 -0.1276 -0.0262 -0.2539
  679PSPI   C1A10851  14.818  -0.190   6.110 -0.0574 -0.2055 -0.2437
  679PSPI   C2A10852  14.934  -0.296   6.533 -0.2191  0.2520 -0.1779
  679PSPI   C3A10853  15.067  -0.386   6.953 -0.0027  0.4050 -0.0541
  679PSPI   C4A10854  15.143  -0.613   7.309 -0.3441 -0.0194 -0.3570
  679PSPI   C1B10855  15.145   0.382   5.630 -0.1639  0.0203 -0.0845
  679PSPI   C2B10856  15.090   0.555   5.970  0.3228  0.1508  0.0388
  679PSPI   C3B10857  14.824   0.318   6.242  0.1702 -0.1726  0.0574
  679PSPI   C4B10858  14.942   0.160   6.721 -0.0497 -0.2763  0.0723
  680PSPI    C110859   5.454  13.149   5.159 -0.0180  0.0659 -0.1575
  680PSPI    C210860   5.342  13.045   4.790 -0.0061 -0.0425 -0.1309
  680PSPI    C310861   5.727  13.022   4.896 -0.0126 -0.0326 -0.1050
  680PSPI   PO410862   5.231  13.109   5.299 -0.2496 -0.1640  0.5403
  680PSPI   GL110863   5.303  12.919   5.701 -0.0491 -0.3666  0.2122
  680PSPI   GL210864   5.171  13.179   5.873 -0.0051 -0.0246 -0.0871
  680PSPI   C1A10865   5.473  12.773   6.047 -0.0348 -0.0788 -0.0163
  680PSPI   C2A10866   5.478  12.701   6.454  0.0077 -0.1665  0.0306
  680PSPI   C3A10867   5.406  12.377   6.637  0.0280  0.0594 -0.2654
  680PSPI   C4A10868   5.340  12.120   7.020 -0.1136  0.0672 -0.1953
  680PSPI   C1B10869   5.207  13.148   6.304  0.2095 -0.0565 -0.0918
  680PSPI   C2B10870   5.186  13.002   6.684  0.1844 -0.2308  0.0343
  680PSPI   C3B10871   5.238  13.107   7.151  0.1514 -0.1980  0.1471
  680PSPI   C4B10872   5.422  12.927   7.516  0.3218  0.3747  0.2568
  681PSPI    C110873   2.969   4.926   5.290 -0.0411  0.1235  0.1618
  681PSPI    C210874   2.964   5.259   5.512  0.1299  0.2765 -0.0598
  681PSPI    C310875   2.650   5.010   5.517  0.0229  0.4131  0.1478
  681PSPI   PO410876   3.249   4.870   5.301 -0.2967 -0.0836  0.0154
  681PSPI   GL110877   3.417   5.160   5.582  0.0553 -0.0288  0.0441
  681PSPI   GL210878   3.650   5.111   5.555 -0.1894 -0.0818  0.2874
  681PSPI   C1A10879   3.179   5.108   5.953 -0.3473  0.1904 -0.1374
  681PSPI   C2A10880   2.838   4.788   6.103  0.1907  0.0482 -0.1779
  681PSPI   C3A10881   2.782   4.461   6.388  0.0647  0.1999  0.1610
  681PSPI   C4A10882   3.012   4.435   6.595  0.0742  0.3245 -0.2613
  681PSPI   C1B10883   4.037   4.889   5.655  0.1895  0.3139 -0.2806
  681PSPI   C2B10884   4.190   4.816   6.094  0.2478  0.0793  0.0277
  681PSPI   C3B10885   4.494   4.696   6.382 -0.0826  0.1931 -0.1968
  681PSPI   C4B10886   4.615   4.869   6.815 -0.3887  0.1568 -0.2769
  682PSPI    C110887  16.955   9.102   4.423  0.0598 -0.2453  0.1410
  682PSPI    C210888  17.346   9.129   4.505  0.0645  0.0690  0.0291
  682PSPI    C310889  17.187   9.348   4.210 -0.1529 -0.2398 -0.0891
  682PSPI   PO410890  16.903   8.974   4.673  0.2570  0.0224 -0.1436
  682PSPI   GL110891  16.827   8.954   5.102 -0.1295  0.0723 -0.1067
  682PSPI   GL210892  16.503   9.203   5.025  0.1324 -0.2096  0.0679
  682PSPI   C1A10893  16.870   9.168   5.402 -0.1855 -0.1282  0.0253
  682PSPI   C2A10894  16.875   9.364   5.819 -0.2846 -0.3478  0.1588
  682PSPI   C3A10895  16.800   9.163   6.159  0.1789  0.1235  0.2952
  682PSPI   C4A10896  16.785   8.829   6.398  0.1754  0.0131  0.1506
  682PSPI   C1B10897  16.390   9.427   5.358  0.1083 -0.1728 -0.2170
  682PSPI   C2B10898  16.159   9.779   5.638 -0.0860 -0.0789  0.1478
  682PSPI   C3B10899  15.800   9.861   5.487  0.1822 -0.1746 -0.1426
  682PSPI   C4B10900  15.492  10.139   5.291 -0.1557 -0.1656 -0.1135
  683PSPI    C110901  18.514   5.721   4.909 -0.3594  0.3164 -0.4875
  683PSPI    C210902  18.901   5.822   4.899 -0.1723 -0.2491  0.2274
  683PSPI    C310903  18.703   5.755   4.558  0.3553  0.0362 -0.1494
  683PSPI   PO410904  18.411   5.842   5.113 -0.0371 -0.2737 -0.0457
  683PSPI   GL110905  18.225   5.882   5.609 -0.0373 -0.1346  0.0445
  683PSPI   GL210906  18.235   5.611   5.658 -0.4858 -0.3006 -0.3481
  683PSPI   C1A10907  17.930   6.080   5.761 -0.0710 -0.1225  0.1002
  683PSPI   C2A10908  17.757   6.446   6.033  0.3206  0.2800 -0.1314
  683PSPI   C3A10909  17.874   6.751   6.286 -0.4355 -0.2241  0.2270
  683PSPI   C4A10910  18.135   6.811   6.662  0.1127  0.0928 -0.3178
  683PSPI   C1B10911  18.206   5.795   6.088 -0.0696  0.1946 -0.2773
  683PSPI   C2B10912  18.498   5.737   6.352 -0.3134  0.1734  0.3649
  683PSPI   C3B10913  18.770   5.891   6.675  0.2202  0.1381  0.0460
  683PSPI   C4B10914  18.958   6.212   6.917 -0.0123  0.2448  0.1911
  684PSPI    C110915  10.644   1.125   4.876  0.3452  0.3713 -0.2711
  684PSPI    C210916  10.735   0.827   4.626 -0.0506  0.0591 -0.0568
  684PSPI    C310917  10.562   1.160   4.486  0.1570  0.0851 -0.2598
  684PSPI   PO410918  10.846   1.126   5.029  0.2716 -0.0043 -0.0902
  684PSPI   GL110919  10.949   1.389   5.374  0.3688  0.3502  0.2872
  684PSPI   GL210920  11.001   1.625   5.489 -0.1604  0.3013 -0.0456
  684PSPI   C1A10921  10.567   1.384   5.715 -0.1514 -0.3032  0.0345
  684PSPI   C2A10922  10.397   1.087   5.961 -0.1264  0.1426 -0.3110
  684PSPI   C3A10923  10.276   0.829   6.252  0.2159  0.1588 -0.2220
  684PSPI   C4A10924  10.358   0.375   6.345  0.1763  0.0688  0.1626
  684PSPI   C1B10925  10.903   1.744   5.882  0.0186  0.0731 -0.6575
  684PSPI   C2B10926  10.703   1.620   6.198 -0.2128  0.2500 -0.1699
  684PSPI   C3B10927  10.468   1.378   6.340  0.3030  0.0283 -0.2656
  684PSPI   C4B10928  10.616   1.188   6.683 -0.2589  0.0347 -0.1893
  685PSPI    C110929  10.661  10.909   4.593 -0.1351 -0.0285 -0.0829
  685PSPI    C210930  10.691  11.194   4.315 -0.1439  0.1363  0.0830
  685PSPI    C310931  10.333  11.098   4.465 -0.1620 -0.0829 -0.0949
  685PSPI   PO410932  10.836  10.981   4.853 -0.2117 -0.2004 -0.2092
  685PSPI   GL110933  10.904  10.915   5.248 -0.2490 -0.1135 -0.2612
  685PSPI   GL210934  10.985  10.549   5.217 -0.2148 -0.2884  0.0443
  685PSPI   C1A10935  11.310  11.102   5.401  0.0453  0.3771 -0.0734
  685PSPI   C2A10936  11.371  11.300   5.820 -0.1564 -0.3019 -0.1159
  685PSPI   C3A10937  11.530  11.352   6.288 -0.0093 -0.3799 -0.1915
  685PSPI   C4A10938  11.686  11.407   6.714 -0.0229 -0.2097 -0.0902
  685PSPI   C1B10939  11.109  10.614   5.605  0.1337 -0.1537 -0.1112
  685PSPI   C2B10940  11.245  10.496   6.002 -0.1251  0.0793  0.0423
  685PSPI   C3B10941  11.150  10.217   6.327  0.1048 -0.2937  0.1656
  685PSPI   C4B10942  11.060  10.102   6.832  0.0034 -0.1271 -0.3679
  686PSPI    C110943   8.156   6.259   4.857 -0.1348  0.2247  0.0074
  686PSPI    C210944   7.841   6.051   4.991  0.0436 -0.0947 -0.0597
  686PSPI    C310945   7.924   6.060   4.599  0.2136 -0.1521 -0.0261
  686PSPI   PO410946   8.156   6.517   5.028  0.0342 -0.0709  0.2865
  686PSPI   GL110947   8.056   6.405   5.394 -0.1316 -0.0050 -0.1800
  686PSPI   GL210948   8.175   6.093   5.412  0.0258 -0.0503  0.1654
  686PSPI   C1A10949   8.099   6.690   5.671  0.0599  0.2411  0.0375
  686PSPI   C2A10950   7.972   6.578   6.130  0.3675 -0.0489  0.2029
  686PSPI   C3A10951   8.009   6.517   6.594  0.0018 -0.2207  0.2949
  686PSPI   C4A10952   8.213   6.250   6.895 -0.1382 -0.4156  0.1068
  686PSPI   C1B10953   8.477   5.794   5.658 -0.1798  0.0079 -0.1035
  686PSPI   C2B10954   8.709   5.579   5.962  0.1695 -0.0771 -0.0822
  686PSPI   C3B10955   8.652   5.368   6.425  0.0263 -0.2277  0.0074
  686PSPI   C4B10956   8.967   5.158   6.532 -0.0787  0.0478 -0.2390
  687PSPI    C110957  14.677  13.607   4.841 -0.2031 -0.0384 -0.0415
  687PSPI    C210958  14.891  13.449   4.542  0.1125 -0.0682  0.1947
  687PSPI    C310959  14.582  13.690   4.462  0.2203 -0.0410 -0.1534
  687PSPI   PO410960  14.778  13.325   5.071 -0.2139  0.1752 -0.1182
  687PSPI   GL110961  14.975  13.358   5.419  0.1029 -0.0492  0.1949
  687PSPI   GL210962  14.960  13.430   5.761 -0.0599 -0.4340 -0.0237
  687PSPI   C1A10963  15.005  13.000   5.607  0.1559  0.1463  0.3144
  687PSPI   C2A10964  15.179  12.967   5.908  0.3066  0.0782 -0.0406
  687PSPI   C3A10965  15.114  12.767   6.257 -0.0228  0.0417  0.3350
  687PSPI   C4A10966  15.211  12.948   6.588  0.1594 -0.0571 -0.0809
  687PSPI   C1B10967  14.597  13.508   6.129  0.1114  0.0507 -0.2402
  687PSPI   C2B10968  14.210  13.340   6.271  0.0169  0.0124  0.0242
  687PSPI   C3B10969  13.783  13.303   6.444 -0.2560 -0.2688  0.2306
  687PSPI   C4B10970  13.249  13.394   6.588 -0.0364  0.0540  0.0030
  688PSPI    C110971   8.158  18.329   5.144 -0.1378 -0.0796 -0.0903
  688PSPI    C210972   8.349  18.133   4.853 -0.0187 -0.1559  0.0383
  688PSPI    C310973   8.077  18.411   4.761 -0.3218 -0.5043 -0.1478
  688PSPI   PO410974   8.059  18.210   5.312  0.0624  0.0488 -0.0788
  688PSPI   GL110975   8.035  18.261   5.783  0.2045 -0.1272 -0.0121
  688PSPI   GL210976   7.717  18.261   5.710  0.3306 -0.3042  0.1513
  688PSPI   C1A10977   8.276  18.226   6.100 -0.1282  0.0947 -0.0755
  688PSPI   C2A10978   8.258  18.299   6.496  0.2570 -0.0007 -0.1007
  688PSPI   C3A10979   8.185  18.321   6.912 -0.5916 -0.1692  0.2227
  688PSPI   C4A10980   8.020  18.420   7.353 -0.0728  0.2324 -0.1655
  688PSPI   C1B10981   7.673  18.265   6.145 -0.0626 -0.3103  0.1641
  688PSPI   C2B10982   7.651  18.171   6.484  0.2061 -0.3991 -0.2235
  688PSPI   C3B10983   7.692  18.329   6.986  0.1644  0.0794  0.1098
  688PSPI   C4B10984   7.310  18.505   7.201 -0.1852  0.3018  0.1891
  689PSPI    C110985  15.765   9.587   4.597 -0.0590 -0.0419 -0.0903
  689PSPI    C210986  15.673   9.211   4.699 -0.2060  0.0676  0.1919
  689PSPI    C310987  15.948   9.280   4.417 -0.4333 -0.2552 -0.1175
  689PSPI   PO410988  15.604   9.714   4.803 -0.1562 -0.2777  0.1472
  689PSPI   GL110989  15.591   9.488   5.144 -0.2494  0.0741 -0.1108
  689PSPI   GL210990  15.946   9.473   5.173  0.0811  0.0082  0.1305
  689PSPI   C1A10991  15.473   9.491   5.572 -0.1583  0.0651  0.0020
  689PSPI   C2A10992  15.558   9.294   5.953 -0.2368  0.2944  0.0534
  689PSPI   C3A10993  15.415   9.198   6.251 -0.0217  0.1771 -0.2499
  689PSPI   C4A10994  15.331   9.379   6.537 -0.2193 -0.0652  0.0653
  689PSPI   C1B10995  15.975   9.347   5.601  0.2595  0.1832 -0.0965
  689PSPI   C2B10996  15.982   9.044   5.865 -0.0390  0.1625  0.0329
  689PSPI   C3B10997  15.892   9.091   6.278 -0.1918 -0.2853  0.1099
  689PSPI   C4B10998  16.216   9.076   6.582 -0.2356 -0.1250  0.3031
  690PSPI    C110999   6.345   9.443   4.818  0.1777 -0.2366  0.0901
  690PSPI    C211000   6.329   9.071   4.671  0.1250 -0.2028  0.0096
  690PSPI    C311001   6.109   9.361   4.505  0.0495 -0.1681  0.1679
  690PSPI   PO411002   6.228   9.438   5.096 -0.0622 -0.0037  0.2509
  690PSPI   GL111003   6.511   9.390   5.423  0.0147 -0.2307 -0.1095
  690PSPI   GL211004   6.518   9.748   5.349  0.0207  0.3505  0.1371
  690PSPI   C1A11005   6.716   9.312   5.792  0.4113  0.0901 -0.4440
  690PSPI   C2A11006   6.548   9.502   6.258  0.1459  0.1023  0.2547
  690PSPI   C3A11007   6.460   9.654   6.653  0.2215  0.1388 -0.2734
  690PSPI   C4A11008   6.570   9.891   6.999 -0.0395  0.0345 -0.2693
  690PSPI   C1B11009   6.376   9.730   5.792  0.1254  0.0604 -0.1023
  690PSPI   C2B11010   5.951   9.559   6.099 -0.3200  0.0466 -0.1073
  690PSPI   C3B11011   5.938   9.515   6.578 -0.1148  0.1213 -0.2268
  690PSPI   C4B11012   5.983   9.910   6.830  0.3304  0.2238 -0.4044
  691PSPI    C111013   1.039   6.464   4.699 -0.2330  0.1543  0.1144
  691PSPI    C211014   1.323   6.740   4.755 -0.0842  0.0130  0.0650
  691PSPI    C311015   1.291   6.556   4.402 -0.1191 -0.1031  0.1280
  691PSPI   PO411016   1.007   6.364   4.981 -0.0095 -0.0318  0.0265
  691PSPI   GL111017   1.196   6.487   5.410  0.2296 -0.1618 -0.0529
  691PSPI   GL211018   1.416   6.224   5.305  0.5181 -0.0388  0.0170
  691PSPI   C1A11019   0.842   6.371   5.812  0.0244  0.1740  0.3135
  691PSPI   C2A11020   1.009   6.027   6.111  0.1628  0.0443  0.0715
  691PSPI   C3A11021   1.325   5.894   6.397 -0.2321  0.0452 -0.4307
  691PSPI   C4A11022   1.408   5.499   6.079 -0.0139  0.0418  0.0590
  691PSPI   C1B11023   1.493   6.068   5.613 -0.1909  0.0776  0.0809
  691PSPI   C2B11024   1.699   6.124   5.990  0.2385  0.1567  0.2016
  691PSPI   C3B11025   1.816   6.231   6.440 -0.0075  0.0763 -0.1065
  691PSPI   C4B11026   2.018   6.521   6.610  0.1633  0.2410 -0.0809
  692PSPI    C111027  16.183  11.424   4.603  0.2225 -0.2193  0.0940
  692PSPI    C211028  16.485  11.579   4.392  0.0226  0.1192  0.0488
  692PSPI    C311029  16.430  11.183   4.402  0.2459  0.0777 -0.2427
  692PSPI   PO411030  16.185  11.664   4.809  0.1588  0.0880  0.0563
  692PSPI   GL111031  16.204  12.069   5.094  0.0938 -0.3212 -0.2178
  692PSPI   GL211032  15.951  12.221   5.102 -0.1464  0.0779 -0.2501
  692PSPI   C1A11033  16.276  12.261   5.527 -0.1093  0.2271  0.0836
  692PSPI   C2A11034  16.322  12.236   5.985 -0.2239  0.0372  0.0948
  692PSPI   C3A11035  16.383  12.202   6.384 -0.2013  0.1127  0.1722
  692PSPI   C4A11036  16.259  12.317   6.893  0.1176 -0.0051 -0.3142
  692PSPI   C1B11037  15.821  12.404   5.476 -0.2513 -0.1908 -0.5020
  692PSPI   C2B11038  15.900  12.487   5.999 -0.1830 -0.2018  0.0110
  692PSPI   C3B11039  15.736  12.722   6.394  0.2832  0.4434  0.3401
  692PSPI   C4B11040  15.583  12.751   6.844  0.2026 -0.0953 -0.1776
  693PSPI    C111041   9.694   5.630   4.926 -0.0824 -0.3076  0.0769
  693PSPI    C211042   9.438   5.596   4.621  0.0762 -0.2814 -0.0608
  693PSPI    C311043   9.314   5.528   4.995 -0.2610  0.2261 -0.0711
  693PSPI   PO411044   9.866   5.849   4.906 -0.1383 -0.1928  0.2232
  693PSPI   GL111045   9.928   5.922   5.277  0.2181 -0.5324 -0.3529
  693PSPI   GL211046   9.862   6.076   5.653  0.0500 -0.3093 -0.0780
  693PSPI   C1A11047  10.286   5.826   5.572 -0.3814 -0.1341 -0.3298
  693PSPI   C2A11048  10.145   5.484   5.704  0.4071 -0.0850  0.2651
  693PSPI   C3A11049  10.159   5.080   5.775 -0.3681  0.1365 -0.0865
  693PSPI   C4A11050   9.902   4.829   5.967  0.0760 -0.0717 -0.3367
  693PSPI   C1B11051   9.589   5.894   5.986  0.1893  0.1168  0.0019
  693PSPI   C2B11052   9.467   5.668   6.326 -0.0703  0.1611  0.0888
  693PSPI   C3B11053   9.448   5.251   6.580 -0.1119  0.1564 -0.1667
  693PSPI   C4B11054   9.506   4.865   6.429  0.2186 -0.1945 -0.2112
  694PSPI    C111055   8.360  11.289   5.055  0.1185  0.0065 -0.0030
  694PSPI    C211056   8.555  11.629   5.134 -0.0979  0.1353 -0.0138
  694PSPI    C311057   8.422  11.557   4.764 -0.0097  0.0156 -0.0226
  694PSPI   PO411058   8.155  11.257   5.193 -0.3161  0.0629  0.3641
  694PSPI   GL111059   8.041  10.973   5.570  0.0250  0.0076  0.2409
  694PSPI   GL211060   7.720  11.205   5.536  0.1433 -0.2668  0.1127
  694PSPI   C1A11061   8.394  10.871   5.835  0.0728  0.2237 -0.3650
  694PSPI   C2A11062   8.565  10.768   6.315  0.0628  0.1753  0.4298
  694PSPI   C3A11063   8.515  10.569   6.703  0.0841 -0.0535  0.1890
  694PSPI   C4A11064   8.482  10.402   7.020  0.0464 -0.1712 -0.1294
  694PSPI   C1B11065   7.568  11.473   5.889  0.1303 -0.0819  0.1733
  694PSPI   C2B11066   7.265  11.395   6.205 -0.3903  0.2837  0.6212
  694PSPI   C3B11067   6.960  11.142   6.061  0.1251  0.0201  0.0831
  694PSPI   C4B11068   6.519  10.992   5.965  0.0220  0.0172 -0.2397
  695PSPI    C111069   1.828  19.665   4.571  0.0783 -0.1220 -0.4366
  695PSPI    C211070   2.159  19.613   4.789 -0.2370  0.1321  0.1244
  695PSPI    C311071   1.916  19.303   4.716 -0.0367  0.0087 -0.0269
  695PSPI   PO411072   1.870  19.921   4.529  0.0822 -0.0872  0.1978
  695PSPI   GL111073   2.154  20.100   4.902 -0.0049 -0.2698 -0.0969
  695PSPI   GL211074   1.933  20.094   5.133  0.1854 -0.2642  0.0542
  695PSPI   C1A11075   2.178  20.587   5.114 -0.0239 -0.1421 -0.1171
  695PSPI   C2A11076   1.935  20.737   5.535  0.0126  0.0966  0.0042
  695PSPI   C3A11077   1.598  20.809   5.913  0.0246  0.0306 -0.1641
  695PSPI   C4A11078   1.275  20.526   5.966 -0.1327  0.1701  0.1593
  695PSPI   C1B11079   2.155  20.199   5.474 -0.0090  0.0069 -0.2271
  695PSPI   C2B11080   2.262  19.950   5.717 -0.0696 -0.0094  0.1570
  695PSPI   C3B11081   2.357  19.616   5.932 -0.0016  0.3899  0.0548
  695PSPI   C4B11082   2.526  19.352   6.239  0.1669 -0.0218  0.0568
  696PSPI    C111083  13.289   1.451   4.802 -0.0610 -0.2741  0.3746
  696PSPI    C211084  13.139   1.090   4.888 -0.2881 -0.2307  0.1727
  696PSPI    C311085  13.134   1.224   4.511 -0.0398 -0.0893  0.2170
  696PSPI   PO411086  13.141   1.634   4.969 -0.1386 -0.0580 -0.0122
  696PSPI   GL111087  13.279   1.934   5.259  0.1950  0.1295  0.1556
  696PSPI   GL211088  13.171   1.612   5.491 -0.1603 -0.0495 -0.1944
  696PSPI   C1A11089  13.539   1.977   5.568 -0.1589  0.0767 -0.1207
  696PSPI   C2A11090  13.572   2.090   5.929 -0.3137 -0.1485  0.0566
  696PSPI   C3A11091  13.543   2.143   6.314 -0.1054  0.1399  0.1667
  696PSPI   C4A11092  13.553   1.794   6.557  0.0528 -0.0590 -0.1755
  696PSPI   C1B11093  12.954   1.968   5.781  0.1225 -0.1699  0.1316
  696PSPI   C2B11094  13.030   2.064   6.219 -0.1217 -0.3136 -0.1060
  696PSPI   C3B11095  13.125   2.477   6.265  0.0739 -0.1176 -0.0944
  696PSPI   C4B11096  13.507   2.565   6.559 -0.2233  0.2005 -0.0394
  697POPI    C111097  19.820   3.342   4.999  0.0036 -0.0044 -0.0593
  697POPI    C211098  19.465   3.162   4.962  0.0639 -0.1564  0.0848
  697POPI    C311099  19.714   3.180   4.649 -0.0425 -0.1084  0.0022
  697POPI   PO411100  19.959   3.208   5.187 -0.2376 -0.3483 -0.3114
  697POPI   GL111101  20.014   3.487   5.457 -0.0037 -0.0729 -0.5224
  697POPI   GL211102  20.249   3.413   5.506  0.0392  0.2029 -0.3038
  697POPI   C1A11103  19.759   3.672   5.824  0.1741 -0.0848  0.3567
  697POPI   D2A11104  19.454   3.743   6.204  0.0163  0.1629  0.2564
  697POPI   C3A11105  19.538   4.188   6.371 -0.3187 -0.0399  0.2102
  697POPI   C4A11106  19.404   4.502   6.465 -0.1137 -0.0550 -0.1716
  697POPI   C1B11107  20.324   3.856   5.847 -0.2398  0.0062  0.3116
  697POPI   C2B11108  20.295   3.994   6.262  0.3286  0.1087  0.0567
  697POPI   C3B11109  20.489   4.166   6.650  0.0545 -0.0151 -0.1413
  697POPI   C4B11110  20.785   4.020   6.865  0.0395  0.0295 -0.0920
  698POPI    C111111   2.261  16.643   5.155 -0.0279 -0.1810  0.0160
  698POPI    C211112   2.015  16.835   4.905  0.2113  0.0757 -0.0276
  698POPI    C311113   2.088  16.446   4.853 -0.0710  0.0300 -0.0997
  698POPI   PO411114   2.423  16.933   5.292  0.1576  0.1228 -0.1729
  698POPI   GL111115   2.290  17.080   5.745  0.0960 -0.0738  0.1587
  698POPI   GL211116   2.578  16.843   5.753 -0.3946 -0.3470  0.0953
  698POPI   C1A11117   2.190  16.876   6.138  0.0896 -0.2105 -0.4097
  698POPI   D2A11118   2.183  17.098   6.456 -0.2560  0.0096  0.2984
  698POPI   C3A11119   2.494  16.988   6.605  0.3615  0.1450 -0.0526
  698POPI   C4A11120   2.404  16.836   6.978 -0.0001 -0.0865  0.0860
  698POPI   C1B11121   2.644  17.025   6.109 -0.1610  0.0624  0.0897
  698POPI   C2B11122   2.561  17.426   6.305  0.1765 -0.3432  0.2951
  698POPI   C3B11123   2.405  17.879   6.149  0.0324 -0.4354 -0.1742
  698POPI   C4B11124   2.065  18.136   6.069 -0.1887 -0.0262 -0.1131
  699POPI    C111125   4.826  13.790   4.864 -0.0497  0.0677  0.0226
  699POPI    C211126   4.538  13.979   4.661  0.0605  0.0364 -0.1651
  699POPI    C311127   4.678  13.627   4.530 -0.0497 -0.1124  0.1089
  699POPI   PO411128   4.738  13.788   5.153 -0.4986  0.0443 -0.2778
  699POPI   GL111129   4.996  13.681   5.570 -0.1134  0.2264  0.0051
  699POPI   GL211130   4.842  13.359   5.563 -0.3922 -0.2344  0.3793
  699POPI   C1A11131   4.961  13.597   6.039  0.2012 -0.1695  0.1550
  699POPI   D2A11132   4.724  13.369   6.362 -0.1432 -0.0079 -0.2073
  699POPI   C3A11133   4.392  13.452   6.701 -0.0723  0.2966 -0.2161
  699POPI   C4A11134   4.196  13.463   7.158 -0.0442  0.1656 -0.1468
  699POPI   C1B11135   4.560  13.303   5.859  0.0805 -0.2993 -0.3615
  699POPI   C2B11136   4.145  13.288   5.763 -0.1656 -0.0104  0.1431
  699POPI   C3B11137   3.739  13.385   5.936  0.1886  0.3977  0.1054
  699POPI   C4B11138   3.386  13.370   6.112  0.2451 -0.4186 -0.1667
  700POPI    C111139   4.777  15.247   4.699  0.1875 -0.0364  0.0382
  700POPI    C211140   4.510  14.950   4.705 -0.0998  0.2071 -0.2737
  700POPI    C311141   4.770  14.979   4.402 -0.0011  0.2143 -0.1888
  700POPI   PO411142   4.925  15.283   5.023  0.0385 -0.1662  0.2725
  700POPI   GL111143   4.946  15.421   5.440 -0.4074 -0.0808  0.1733
  700POPI   GL211144   5.176  15.308   5.631 -0.2508 -0.0732  0.0843
  700POPI   C1A11145   4.736  15.497   5.808 -0.0155  0.1572  0.2333
  700POPI   D2A11146   4.674  15.483   6.310  0.4124  0.0776  0.0842
  700POPI   C3A11147   4.732  15.724   6.627 -0.4299 -0.1921 -0.0016
  700POPI   C4A11148   4.909  15.901   7.012  0.0546 -0.3125 -0.0027
  700POPI   C1B11149   5.018  15.143   6.144  0.2125  0.0617  0.0676
  700POPI   C2B11150   4.970  15.225   6.571 -0.2446 -0.1752 -0.1536
  700POPI   C3B11151   4.982  15.410   6.973 -0.0088 -0.0446 -0.1022
  700POPI   C4B11152   5.259  15.483   7.213  0.1248 -0.2645  0.1299
  701POPI    C111153  10.369   8.241   4.240  0.1532 -0.1330  0.1319
  701POPI    C211154  10.640   7.949   4.276  0.1775 -0.1467 -0.1471
  701POPI    C311155  10.689   8.236   4.001 -0.1101 -0.1713 -0.2275
  701POPI   PO411156  10.311   8.419   4.497  0.2115  0.2816 -0.0197
  701POPI   GL111157  10.461   8.479   4.951 -0.4347 -0.0027 -0.3058
  701POPI   GL211158  10.763   8.475   4.913  0.1171 -0.0421  0.1075
  701POPI   C1A11159  10.070   8.559   5.220  0.1971 -0.0324  0.1889
  701POPI   D2A11160  10.025   8.457   5.639  0.0387 -0.2295  0.0430
  701POPI   C3A11161  10.199   8.780   5.909 -0.0528  0.2719  0.1474
  701POPI   C4A11162  10.407   9.225   5.832  0.0257 -0.3310  0.0970
  701POPI   C1B11163  10.961   8.637   5.360 -0.2429  0.0776 -0.3022
  701POPI   C2B11164  11.047   8.866   5.622  0.2430 -0.1231 -0.3301
  701POPI   C3B11165  11.311   9.213   5.688 -0.4000  0.1231  0.0395
  701POPI   C4B11166  11.084   9.630   5.579  0.4433  0.3846  0.2752
  702POPI    C111167  19.473   9.384   4.989  0.0117  0.0730 -0.1622
  702POPI    C211168  19.486   9.593   4.648 -0.2637  0.2284 -0.0807
  702POPI    C311169  19.269   9.257   4.669 -0.0997  0.1194 -0.1100
  702POPI   PO411170  19.665   9.333   5.019  0.0931 -0.0299  0.0516
  702POPI   GL111171  19.727   8.911   5.334 -0.1096 -0.1630  0.2482
  702POPI   GL211172  19.825   9.150   5.510  0.2748 -0.0537  0.0109
  702POPI   C1A11173  19.485   8.697   5.693 -0.0487 -0.0945 -0.1487
  702POPI   D2A11174  19.453   8.625   6.102  0.4183  0.0401 -0.0426
  702POPI   C3A11175  19.712   8.621   6.507 -0.1096  0.0540  0.5606
  702POPI   C4A11176  19.819   8.300   6.743  0.0113 -0.2298 -0.1327
  702POPI   C1B11177  19.897   9.472   5.836 -0.0331  0.0661  0.0686
  702POPI   C2B11178  19.873   9.545   6.220 -0.2181 -0.0971 -0.1482
  702POPI   C3B11179  19.700   9.600   6.651  0.1689 -0.0674 -0.1166
  702POPI   C4B11180  19.619   9.544   7.091  0.0441 -0.0875 -0.1288
  703POPI    C111181   8.533  14.139   5.038 -0.3101  0.1535  0.0057
  703POPI    C211182   8.700  13.973   4.715 -0.2923  0.1943 -0.0062
  703POPI    C311183   8.349  13.838   4.851  0.0043 -0.2591  0.3400
  703POPI   PO411184   8.674  14.132   5.211 -0.2072  0.3581 -0.0342
  703POPI   GL111185   8.971  13.943   5.531  0.1310  0.0784 -0.0412
  703POPI   GL211186   9.319  13.982   5.737 -0.0336  0.2001 -0.4695
  703POPI   C1A11187   8.802  13.689   5.923  0.1214  0.0331 -0.3731
  703POPI   D2A11188   9.047  13.466   6.121  0.2258 -0.3165  0.0515
  703POPI   C3A11189   9.035  13.244   6.497  0.0164  0.1028  0.1625
  703POPI   C4A11190   8.779  13.280   6.870 -0.0949  0.0718  0.1131
  703POPI   C1B11191   9.295  13.895   6.153  0.2848  0.1956  0.1930
  703POPI   C2B11192   9.384  13.655   6.442 -0.3330  0.0729  0.0470
  703POPI   C3B11193   9.320  13.384   6.884  0.3442  0.1290  0.0035
  703POPI   C4B11194   9.084  13.209   7.298 -0.4891 -0.0424  0.1404
  704POPI    C111195   8.239  10.442   5.207 -0.0432 -0.2111 -0.0596
  704POPI    C211196   8.442  10.745   5.371 -0.2467 -0.1554  0.0927
  704POPI    C311197   8.352  10.753   4.982  0.0449 -0.1832  0.0224
  704POPI   PO411198   8.037  10.464   5.445  0.0077  0.0685  0.1575
  704POPI   GL111199   7.678  10.180   5.600  0.3779  0.3217 -0.1074
  704POPI   GL211200   7.948  10.100   5.852  0.1337  0.2401  0.4854
  704POPI   C1A11201   7.489  10.018   5.912 -0.1183  0.0214 -0.2618
  704POPI   D2A11202   7.189  10.293   6.167 -0.2406 -0.3197 -0.2228
  704POPI   C3A11203   7.156  10.545   6.663  0.1781  0.0032  0.3113
  704POPI   C4A11204   6.967  10.730   6.955 -0.1268 -0.4148 -0.0686
  704POPI   C1B11205   7.821  10.077   6.308 -0.1671  0.0082 -0.0723
  704POPI   C2B11206   7.923   9.938   6.652 -0.5134  0.1022 -0.3202
  704POPI   C3B11207   8.304   9.936   6.868 -0.2486 -0.0372 -0.1811
  704POPI   C4B11208   8.580   9.769   7.038  0.4207 -0.0807 -0.0534
  705POPI    C111209  17.109   3.985   4.690 -0.1329 -0.0954  0.3581
  705POPI    C211210  17.362   3.730   4.865  0.2055 -0.0078  0.0116
  705POPI    C311211  17.248   3.670   4.487 -0.0329  0.1370  0.0584
  705POPI   PO411212  17.000   4.075   4.921 -0.2005  0.3079 -0.1016
  705POPI   GL111213  17.031   4.273   5.275 -0.3808  0.0768  0.0260
  705POPI   GL211214  17.352   4.176   5.414  0.0294  0.2811  0.0562
  705POPI   C1A11215  16.671   4.097   5.549  0.1721  0.0878  0.1206
  705POPI   D2A11216  16.272   3.946   5.605 -0.1931 -0.0434 -0.0607
  705POPI   C3A11217  16.090   4.113   5.978  0.1379  0.0089  0.0951
  705POPI   C4A11218  16.082   4.033   6.413 -0.1972  0.1394 -0.1283
  705POPI   C1B11219  17.599   4.306   5.759  0.3574 -0.1703 -0.3146
  705POPI   C2B11220  17.566   4.481   6.066 -0.0865 -0.0868 -0.0154
  705POPI   C3B11221  17.439   4.525   6.443  0.1002  0.2175  0.3298
  705POPI   C4B11222  17.526   4.899   6.614  0.0406 -0.0240  0.0206
  706POPI    C111223  10.600  15.661   4.716  0.1742 -0.0727 -0.1806
  706POPI    C211224  10.240  15.834   4.735  0.2547  0.0597  0.2278
  706POPI    C311225  10.317  15.564   4.451 -0.2113 -0.0732  0.2195
  706POPI   PO411226  10.631  15.761   5.069 -0.0757 -0.3362  0.3641
  706POPI   GL111227  10.586  15.931   5.506  0.5939 -0.1250  0.1685
  706POPI   GL211228  10.475  16.240   5.722  0.0293  0.2916 -0.0767
  706POPI   C1A11229  10.447  15.779   5.906 -0.0554 -0.1622  0.3587
  706POPI   D2A11230  10.051  15.658   6.043  0.2274  0.2974 -0.1302
  706POPI   C3A11231   9.895  15.854   6.336 -0.0882 -0.0935  0.0030
  706POPI   C4A11232   9.860  15.764   6.783 -0.0358 -0.0192 -0.0453
  706POPI   C1B11233  10.768  16.169   6.119  0.2089  0.8056  0.1242
  706POPI   C2B11234  10.739  16.287   6.561  0.4098 -0.1774  0.4331
  706POPI   C3B11235  10.906  16.572   6.848  0.2744  0.1157  0.1276
  706POPI   C4B11236  11.093  16.760   7.232 -0.0416 -0.2568  0.3995
  707POPI    C111237   7.393  12.845   4.749  0.0189 -0.1498 -0.1638
  707POPI    C211238   7.736  12.999   4.611 -0.0567  0.2349  0.0614
  707POPI    C311239   7.534  12.732   4.392  0.2770  0.1627 -0.1662
  707POPI   PO411240   7.473  12.802   5.013  0.0849  0.2158  0.2219
  707POPI   GL111241   7.444  12.634   5.430 -0.0964  0.1631  0.0248
  707POPI   GL211242   7.096  12.720   5.523  0.0032  0.1234  0.1821
  707POPI   C1A11243   7.727  12.649   5.870 -0.4551 -0.2007 -0.0414
  707POPI   D2A11244   7.850  12.435   6.157  0.1784 -0.3766  0.0595
  707POPI   C3A11245   7.799  12.698   6.564 -0.2780 -0.0490  0.0978
  707POPI   C4A11246   7.956  12.532   6.901 -0.1019  0.1660 -0.0648
  707POPI   C1B11247   7.175  12.462   5.977 -0.0945 -0.1766  0.0316
  707POPI   C2B11248   7.420  12.364   6.324 -0.4907  0.2431  0.0653
  707POPI   C3B11249   7.557  12.267   6.730 -0.1826  0.2532  0.3579
  707POPI   C4B11250   7.834  11.961   6.984 -0.2420  0.0918  0.0491
  708POPI    C111251  17.033  11.674   4.370 -0.0771  0.0561  0.0040
  708POPI    C211252  17.366  11.639   4.152 -0.1500 -0.2161 -0.0675
  708POPI    C311253  17.256  11.997   4.292  0.1400 -0.1146 -0.0917
  708POPI   PO411254  17.097  11.543   4.659 -0.0002 -0.2009 -0.0263
  708POPI   GL111255  17.019  11.551   5.130  0.2391  0.2238  0.1766
  708POPI   GL211256  17.260  11.310   5.381  0.3943 -0.2044 -0.3850
  708POPI   C1A11257  16.906  11.674   5.546  0.2303 -0.0586 -0.0264
  708POPI   D2A11258  16.732  11.451   5.930  0.0790  0.1903 -0.0692
  708POPI   C3A11259  16.527  11.664   6.309  0.2326  0.1509 -0.0566
  708POPI   C4A11260  16.654  11.495   6.692  0.1581 -0.0374  0.1125
  708POPI   C1B11261  16.816  11.134   5.544  0.1548 -0.0781  0.1115
  708POPI   C2B11262  16.636  10.867   5.844 -0.2567  0.3356 -0.1319
  708POPI   C3B11263  16.620  11.032   6.219 -0.1014  0.0332 -0.0089
  708POPI   C4B11264  16.930  11.313   6.377  0.0185  0.0803  0.2568
  709POPI    C111265   3.574   6.145   5.022  0.0428  0.0055 -0.0970
  709POPI    C211266   3.511   6.533   4.946  0.1843  0.0681  0.0975
  709POPI    C311267   3.304   6.254   4.748 -0.3000  0.2550  0.3273
  709POPI   PO411268   3.526   6.148   5.274 -0.2818  0.0871 -0.3955
  709POPI   GL111269   3.400   6.535   5.551  0.2954 -0.0203  0.0283
  709POPI   GL211270   3.465   6.812   5.604  0.2777  0.0994  0.1367
  709POPI   C1A11271   3.563   6.428   5.905  0.0844  0.1800  0.1689
  709POPI   D2A11272   3.443   6.204   6.243 -0.0346 -0.2109  0.2199
  709POPI   C3A11273   3.714   6.178   6.469  0.2735  0.1171  0.4186
  709POPI   C4A11274   3.938   6.294   6.682  0.1309  0.2630  0.0218
  709POPI   C1B11275   3.113   6.820   5.909  0.4916  0.0829 -0.2588
  709POPI   C2B11276   3.001   6.661   6.359 -0.2161  0.1336 -0.0072
  709POPI   C3B11277   3.056   6.570   6.761  0.3308  0.1885  0.1662
  709POPI   C4B11278   3.327   6.246   6.837  0.2718  0.0478 -0.1638
  710POPI    C111279   2.945  13.636   5.175 -0.0445  0.1064 -0.0450
  710POPI    C211280   2.847  13.714   4.795  0.0779  0.0464 -0.0893
  710POPI    C311281   2.959  13.345   4.901  0.1025  0.0773 -0.0073
  710POPI   PO411282   3.117  13.752   5.295 -0.1044 -0.2531 -0.1748
  710POPI   GL111283   3.160  13.699   5.793  0.2313  0.1835 -0.0182
  710POPI   GL211284   2.887  13.414   5.804 -0.2436 -0.0483 -0.0284
  710POPI   C1A11285   2.996  13.739   6.223  0.1185  0.1350  0.0363
  710POPI   D2A11286   3.315  13.603   6.537  0.0103  0.0089  0.0489
  710POPI   C3A11287   3.227  13.636   7.019 -0.0190 -0.0070 -0.0762
  710POPI   C4A11288   3.331  13.229   7.301 -0.1737  0.1986  0.4389
  710POPI   C1B11289   2.836  13.249   6.202 -0.0282 -0.0509 -0.0183
  710POPI   C2B11290   2.908  13.301   6.582 -0.1413 -0.2162  0.1581
  710POPI   C3B11291   3.206  13.190   6.732  0.2235 -0.0180  0.1068
  710POPI   C4B11292   3.473  12.877   6.928 -0.0790  0.0004  0.0012
  711POPI    C111293   0.506   5.429   4.922  0.1421  0.0784  0.0626
  711POPI    C211294   0.786   5.632   5.123  0.1452  0.0578  0.0793
  711POPI    C311295   0.892   5.334   4.878  0.1333  0.0090  0.1334
  711POPI   PO411296   0.380   5.340   5.119 -0.0582  0.0458  0.0623
  711POPI   GL111297   0.277   5.430   5.531 -0.3469 -0.0655  0.0630
  711POPI   GL211298   0.121   5.171   5.735 -0.1389  0.0415 -0.2248
  711POPI   C1A11299  -0.074   5.668   5.698  0.1849  0.4394  0.1190
  711POPI   D2A11300  -0.199   5.815   5.968 -0.2445  0.3650 -0.0822
  711POPI   C3A11301  -0.042   6.164   6.250  0.0792  0.1079 -0.0344
  711POPI   C4A11302  -0.130   6.434   6.518  0.1833 -0.1371  0.0696
  711POPI   C1B11303   0.424   5.238   6.042  0.1015 -0.2713 -0.3888
  711POPI   C2B11304   0.312   5.332   6.427 -0.0487  0.4530 -0.0291
  711POPI   C3B11305  -0.022   5.240   6.697 -0.3113 -0.0274 -0.1470
  711POPI   C4B11306  -0.470   5.331   6.691 -0.4593 -0.0057 -0.1263
  712POPI    C111307   1.750   3.250   4.873 -0.1029 -0.2127 -0.1274
  712POPI    C211308   1.910   3.514   4.619 -0.1758  0.0253  0.0708
  712POPI    C311309   1.785   3.159   4.485 -0.0002  0.0568 -0.1835
  712POPI   PO411310   1.998   3.215   5.089  0.0433 -0.2182  0.2615
  712POPI   GL111311   2.264   3.307   5.479  0.2743  0.1065 -0.0271
  712POPI   GL211312   2.174   3.007   5.526  0.2874 -0.0668  0.0689
  712POPI   C1A11313   2.486   3.360   5.936  0.0464 -0.0517 -0.1249
  712POPI   D2A11314   2.794   3.058   6.131 -0.0146  0.0217  0.2052
  712POPI   C3A11315   2.635   2.741   6.471  0.1139 -0.0044 -0.3115
  712POPI   C4A11316   2.810   2.560   6.910 -0.0157 -0.0258 -0.2013
  712POPI   C1B11317   1.888   2.839   5.680  0.1031  0.0896 -0.2156
  712POPI   C2B11318   1.764   2.445   6.042  0.1268  0.2464  0.2982
  712POPI   C3B11319   1.885   2.356   6.397 -0.1376  0.0054 -0.2154
  712POPI   C4B11320   1.895   2.403   6.908 -0.2015  0.0303 -0.1906
  713POPI    C111321  19.599   6.484   5.148  0.0993 -0.2939  0.1963
  713POPI    C211322  19.864   6.705   4.945  0.0068 -0.2147  0.1612
  713POPI    C311323  19.537   6.565   4.761 -0.0613 -0.1694  0.2467
  713POPI   PO411324  19.522   6.611   5.396 -0.1429 -0.1113 -0.0316
  713POPI   GL111325  19.285   6.510   5.711 -0.1615 -0.2494  0.0821
  713POPI   GL211326  19.132   6.273   5.631  0.1545 -0.0205 -0.1511
  713POPI   C1A11327  19.234   6.753   6.081  0.1018 -0.1411  0.1873
  713POPI   D2A11328  19.323   6.949   6.447  0.1017 -0.5172  0.1071
  713POPI   C3A11329  19.697   6.972   6.747  0.1128 -0.3272  0.3099
  713POPI   C4A11330  20.000   7.150   7.063  0.1069  0.2446  0.0034
  713POPI   C1B11331  18.921   6.396   6.038  0.2402  0.2546 -0.0205
  713POPI   C2B11332  18.691   6.231   6.331  0.2641  0.0110  0.3824
  713POPI   C3B11333  18.506   6.310   6.687 -0.1830 -0.3427 -0.2372
  713POPI   C4B11334  18.542   6.500   7.017  0.2004 -0.2230  0.0276
  714POPI    C111335   6.256  13.813   5.157  0.0120  0.0367 -0.0972
  714POPI    C211336   6.516  14.056   4.974 -0.0604  0.0740 -0.1507
  714POPI    C311337   6.195  13.921   4.777 -0.2181  0.2340 -0.0068
  714POPI   PO411338   6.269  13.915   5.502  0.1831  0.3751  0.1220
  714POPI   GL111339   6.375  13.931   5.780 -0.0972 -0.3475  0.0544
  714POPI   GL211340   6.245  13.865   6.068  0.0717 -0.2797 -0.1793
  714POPI   C1A11341   6.853  13.948   5.964  0.1278 -0.0269  0.3105
  714POPI   D2A11342   7.147  13.919   6.274 -0.2664 -0.0530 -0.2904
  714POPI   C3A11343   7.199  13.829   6.582  0.2101 -0.0795 -0.1651
  714POPI   C4A11344   7.279  13.848   7.021 -0.1597 -0.2520  0.3457
  714POPI   C1B11345   6.424  14.152   6.274  0.2245 -0.3799  0.0941
  714POPI   C2B11346   6.682  14.220   6.433 -0.3795  0.0682  0.0010
  714POPI   C3B11347   6.957  14.387   6.657 -0.0919  0.2682  0.1542
  714POPI   C4B11348   7.277  14.334   6.854  0.0216  0.1181  0.0116
  715POPI    C111349   9.567  13.280   5.280 -0.0705 -0.0767 -0.1517
  715POPI    C211350   9.252  13.425   5.479 -0.1209 -0.1614 -0.1697
  715POPI    C311351   9.493  13.673   5.278 -0.0464 -0.0701  0.0297
  715POPI   PO411352   9.782  13.099   5.512 -0.2847 -0.0902  0.0037
  715POPI   GL111353   9.882  12.893   5.834 -0.2460 -0.0111 -0.0032
  715POPI   GL211354   9.685  12.721   5.849 -0.1644 -0.0556  0.2629
  715POPI   C1A11355   9.967  12.803   6.292 -0.1549  0.0095 -0.0891
  715POPI   D2A11356  10.088  13.188   6.511  0.0752  0.1519 -0.3567
  715POPI   C3A11357  10.106  13.160   6.863 -0.4473 -0.0958  0.1013
  715POPI   C4A11358   9.786  13.236   7.090 -0.0126 -0.0092  0.2239
  715POPI   C1B11359   9.873  12.333   6.071  0.4480  0.0040  0.1861
  715POPI   C2B11360  10.019  12.306   6.500  0.2192 -0.1037  0.2098
  715POPI   C3B11361   9.928  12.159   6.893 -0.1378 -0.1202 -0.0447
  715POPI   C4B11362   9.911  11.885   7.273 -0.0440  0.0918 -0.0455
  716POPI    C111363  18.506  13.899   4.410 -0.2469  0.1738  0.0912
  716POPI    C211364  18.274  14.007   4.102  0.0201 -0.0107 -0.1807
  716POPI    C311365  18.214  13.656   4.285 -0.2357  0.1650  0.0824
  716POPI   PO411366  18.528  14.078   4.617  0.0926 -0.1764  0.0835
  716POPI   GL111367  18.346  14.233   5.110 -0.1166 -0.1478  0.2976
  716POPI   GL211368  18.565  14.243   5.419 -0.2201 -0.1892  0.0856
  716POPI   C1A11369  18.041  14.335   5.529 -0.2475  0.1405 -0.2640
  716POPI   D2A11370  18.013  14.365   6.032 -0.2014  0.2462 -0.2270
  716POPI   C3A11371  18.353  14.271   6.416  0.1376  0.2406 -0.1601
  716POPI   C4A11372  18.235  14.395   6.737 -0.0442 -0.2593  0.1181
  716POPI   C1B11373  18.530  14.474   5.835  0.1023  0.3680 -0.1716
  716POPI   C2B11374  18.416  14.765   6.250  0.0047  0.0290  0.0345
  716POPI   C3B11375  17.986  14.694   6.475 -0.4040 -0.0562 -0.5169
  716POPI   C4B11376  17.583  14.677   6.672  0.1891  0.0232  0.0147
  717POPI    C111377   7.599   8.670   4.935 -0.1222  0.0027 -0.0105
  717POPI    C211378   7.217   8.594   5.027 -0.1066 -0.0291  0.0285
  717POPI    C311379   7.319   8.677   4.649 -0.1223 -0.2151 -0.0172
  717POPI   PO411380   7.779   8.407   5.080  0.2123 -0.4055 -0.0192
  717POPI   GL111381   8.018   8.418   5.391  0.0040  0.1689 -0.2083
  717POPI   GL211382   7.906   8.702   5.422 -0.2500 -0.0624 -0.0225
  717POPI   C1A11383   8.284   8.597   5.782  0.2149  0.0245  0.4529
  717POPI   D2A11384   8.507   8.891   5.838 -0.3592  0.0746 -0.0146
  717POPI   C3A11385   8.939   9.077   6.019  0.0474 -0.1725  0.0706
  717POPI   C4A11386   9.352   8.965   6.238 -0.1619  0.1491  0.2415
  717POPI   C1B11387   7.903   8.964   5.752 -0.0853  0.1076  0.1506
  717POPI   C2B11388   7.990   8.860   6.146  0.1734 -0.1713 -0.0993
  717POPI   C3B11389   7.915   8.983   6.495  0.1957  0.0855  0.1322
  717POPI   C4B11390   7.763   9.367   6.579 -0.1447 -0.1254  0.2603
  718POPI    C111391   2.132   2.583   4.865 -0.1151 -0.0715 -0.1819
  718POPI    C211392   1.798   2.398   4.985 -0.1641 -0.0804 -0.3295
  718POPI    C311393   1.783   2.663   4.686 -0.0931  0.1568 -0.1267
  718POPI   PO411394   2.221   2.672   5.090 -0.0827 -0.1098  0.1421
  718POPI   GL111395   2.400   2.592   5.409  0.1301  0.1543  0.0307
  718POPI   GL211396   2.380   2.668   5.752 -0.0415  0.1922  0.2694
  718POPI   C1A11397   2.652   2.324   5.657 -0.0559  0.2277  0.2147
  718POPI   D2A11398   2.947   2.015   5.511 -0.1454 -0.0749  0.2854
  718POPI   C3A11399   3.088   1.657   5.812  0.0510  0.2258  0.0563
  718POPI   C4A11400   2.938   1.296   5.627  0.2638  0.0273  0.0196
  718POPI   C1B11401   2.166   2.711   6.144 -0.1839  0.4087  0.0464
  718POPI   C2B11402   2.236   3.123   6.404 -0.0009  0.3639 -0.0365
  718POPI   C3B11403   1.852   3.407   6.563 -0.1427 -0.1598 -0.1409
  718POPI   C4B11404   1.811   3.818   6.678  0.0811 -0.2149  0.1960
  719POPI    C111405  16.091  16.359   4.674  0.0362  0.0075  0.1525
  719POPI    C211406  15.964  15.996   4.566  0.0133  0.0332  0.0929
  719POPI    C311407  16.327  16.122   4.454 -0.1248  0.1740 -0.2074
  719POPI   PO411408  15.942  16.373   4.932  0.0192  0.0674  0.0620
  719POPI   GL111409  15.859  16.297   5.346 -0.2739  0.1631 -0.1931
  719POPI   GL211410  16.201  16.138   5.326 -0.1692  0.0928  0.1986
  719POPI   C1A11411  15.964  16.083   5.731  0.0186 -0.0504  0.4112
  719POPI   D2A11412  15.952  15.987   6.243 -0.1002 -0.0890  0.1190
  719POPI   C3A11413  16.040  16.427   6.526  0.0056 -0.2477 -0.0107
  719POPI   C4A11414  16.416  16.764   6.649 -0.1017 -0.1844  0.0210
  719POPI   C1B11415  16.475  15.999   5.625 -0.1919  0.0024 -0.2815
  719POPI   C2B11416  16.450  15.869   6.043 -0.0784 -0.1146  0.2956
  719POPI   C3B11417  16.303  15.626   6.406  0.0786  0.0627 -0.0058
  719POPI   C4B11418  16.164  15.640   6.741  0.0546 -0.1059  0.1105
  720POPI    C111419  11.859  15.366   5.136 -0.1493  0.2700  0.0848
  720POPI    C211420  12.042  15.473   5.475 -0.1014  0.1543  0.0959
  720POPI    C311421  12.060  15.711   5.154  0.1974  0.0748  0.0504
  720POPI   PO411422  11.775  15.039   5.180  0.2495 -0.1228 -0.1501
  720POPI   GL111423  11.923  15.018   5.615 -0.2068  0.0912 -0.1066
  720POPI   GL211424  12.254  14.847   5.636  0.0176  0.0002  0.0224
  720POPI   C1A11425  11.828  15.276   5.935 -0.1143 -0.0535  0.0727
  720POPI   D2A11426  11.675  15.620   6.285 -0.0969 -0.2760 -0.0932
  720POPI   C3A11427  11.480  15.518   6.638 -0.0906  0.1157 -0.1947
  720POPI   C4A11428  11.550  15.418   6.981  0.3248  0.1779 -0.1110
  720POPI   C1B11429  12.314  14.719   6.024 -0.0127 -0.1510  0.0018
  720POPI   C2B11430  12.682  14.687   6.228  0.1595 -0.0746 -0.0161
  720POPI   C3B11431  13.005  14.446   6.430 -0.3577  0.0292  0.1379
  720POPI   C4B11432  13.377  14.634   6.488  0.2091  0.1594  0.1059
  721POPI    C111433   5.318   5.702   5.088  0.0010  0.1642 -0.0121
  721POPI    C211434   5.261   5.536   5.448  0.1349 -0.0807 -0.1015
  721POPI    C311435   4.968   5.747   5.276  0.0925  0.0922  0.1778
  721POPI   PO411436   5.594   5.751   5.175  0.1607 -0.0783 -0.1273
  721POPI   GL111437   5.880   5.711   5.441 -0.1875 -0.0027  0.1058
  721POPI   GL211438   5.807   6.056   5.538  0.5849 -0.1324  0.2797
  721POPI   C1A11439   5.659   5.534   5.835  0.0242  0.3897 -0.2353
  721POPI   D2A11440   5.724   5.321   6.254  0.0737 -0.1590  0.1928
  721POPI   C3A11441   5.357   5.122   6.393 -0.2019  0.0891 -0.1745
  721POPI   C4A11442   5.029   4.747   6.403 -0.0264  0.0464 -0.0265
  721POPI   C1B11443   5.748   5.940   6.042  0.1478 -0.1926 -0.0489
  721POPI   C2B11444   5.741   5.942   6.328 -0.2488  0.1137 -0.2977
  721POPI   C3B11445   5.865   5.809   6.619  0.3115  0.0758  0.0509
  721POPI   C4B11446   6.056   5.599   6.941  0.0124  0.3670 -0.0009
  722POPI    C111447   9.817  12.312   4.988  0.0651  0.2257 -0.0080
  722POPI    C211448   9.819  12.710   5.031 -0.1336  0.2710 -0.3721
  722POPI    C311449   9.806  12.549   4.665 -0.0527 -0.0727 -0.2277
  722POPI   PO411450   9.646  12.239   5.204  0.3608 -0.0286 -0.0076
  722POPI   GL111451   9.653  11.985   5.685 -0.1827  0.0288 -0.0982
  722POPI   GL211452   9.500  12.254   5.752 -0.0007  0.2122 -0.1119
  722POPI   C1A11453   9.705  11.875   6.130  0.3130 -0.1041 -0.1720
  722POPI   D2A11454   9.804  11.835   6.531 -0.1043 -0.0570 -0.0487
  722POPI   C3A11455   9.582  11.788   6.850 -0.0271  0.0573 -0.0788
  722POPI   C4A11456   9.270  11.792   7.168  0.3270  0.0479  0.0063
  722POPI   C1B11457   9.389  12.416   6.134  0.3536 -0.1483 -0.1240
  722POPI   C2B11458   9.337  12.523   6.540  0.1118 -0.3638 -0.2350
  722POPI   C3B11459   9.428  12.393   6.862 -0.0740 -0.2184  0.0891
  722POPI   C4B11460   9.693  12.289   7.303  0.1767  0.1696 -0.1610
  723POPI    C111461  14.256  12.253   4.862  0.2760 -0.2381  0.0533
  723POPI    C211462  14.134  12.322   4.487  0.1646 -0.0265  0.1268
  723POPI    C311463  13.865  12.282   4.780  0.2457 -0.3290  0.1630
  723POPI   PO411464  14.301  12.009   4.915  0.1264 -0.3699 -0.1360
  723POPI   GL111465  14.413  11.917   5.295 -0.0069  0.5856  0.2470
  723POPI   GL211466  14.108  11.719   5.412 -0.0734 -0.0980 -0.1812
  723POPI   C1A11467  14.488  11.722   5.724  0.1083 -0.0950  0.1133
  723POPI   D2A11468  14.387  11.423   6.028 -0.2247  0.2169  0.0866
  723POPI   C3A11469  14.127  11.479   6.334  0.0239  0.3593  0.1062
  723POPI   C4A11470  13.864  11.599   6.592  0.2222  0.1250 -0.2343
  723POPI   C1B11471  14.335  11.291   5.477 -0.0714  0.3210 -0.0177
  723POPI   C2B11472  14.139  10.997   5.813  0.1644  0.0411  0.0521
  723POPI   C3B11473  14.255  10.857   6.208 -0.2145 -0.3239  0.4256
  723POPI   C4B11474  14.457  10.603   6.537 -0.1685 -0.3865 -0.4601
  724POPI    C111475  19.449  16.607   4.641 -0.1980  0.2831  0.0887
  724POPI    C211476  19.049  16.620   4.650 -0.2047  0.1012  0.0826
  724POPI    C311477  19.243  16.663   4.302 -0.2136  0.2986  0.1008
  724POPI   PO411478  19.506  16.438   4.778  0.3069  0.3306 -0.5126
  724POPI   GL111479  19.627  16.428   5.167 -0.2396  0.2430  0.1004
  724POPI   GL211480  19.458  16.168   5.218  0.2596 -0.1477 -0.0754
  724POPI   C1A11481  19.665  16.442   5.564 -0.0943 -0.1318 -0.0493
  724POPI   D2A11482  19.611  16.436   5.968  0.1487  0.1622 -0.1325
  724POPI   C3A11483  19.851  16.105   6.171  0.0094  0.0782  0.0251
  724POPI   C4A11484  20.152  15.716   6.252  0.2147  0.0673 -0.0317
  724POPI   C1B11485  19.442  15.984   5.562 -0.2138  0.4121 -0.0189
  724POPI   C2B11486  19.428  15.908   6.047  0.1869  0.4282  0.2637
  724POPI   C3B11487  19.495  15.898   6.391 -0.1890  0.0065 -0.0916
  724POPI   C4B11488  19.552  15.729   6.810 -0.0959  0.0606 -0.1016
  725POPI    C111489   4.006  14.470   5.097 -0.0081 -0.2713 -0.0194
  725POPI    C211490   3.740  14.389   5.384 -0.0910 -0.0351 -0.0270
  725POPI    C311491   3.626  14.387   5.001 -0.0585 -0.0285 -0.0367
  725POPI   PO411492   4.150  14.255   5.154 -0.2126  0.4438 -0.0179
  725POPI   GL111493   4.197  13.837   5.367  0.1608 -0.1099 -0.1315
  725POPI   GL211494   4.383  13.686   5.520  0.0510  0.0230  0.0654
  725POPI   C1A11495   3.984  13.823   5.815  0.0177 -0.0294 -0.0680
  725POPI   D2A11496   3.577  13.890   5.936  0.3442 -0.2798 -0.1129
  725POPI   C3A11497   3.298  14.160   6.224 -0.1032 -0.1378 -0.1971
  725POPI   C4A11498   3.105  14.091   6.674 -0.0026 -0.1830 -0.4282
  725POPI   C1B11499   4.535  13.861   5.970  0.0846 -0.2438  0.1120
  725POPI   C2B11500   4.639  13.858   6.417 -0.4269 -0.1284  0.1044
  725POPI   C3B11501   4.690  13.820   6.902  0.0160  0.1940 -0.3212
  725POPI   C4B11502   4.777  13.454   7.230  0.1056 -0.2083  0.1203
  726POPI    C111503   1.312   0.963   4.754 -0.1433  0.0517  0.1470
  726POPI    C211504   1.033   1.173   4.559 -0.1581 -0.2241 -0.1375
  726POPI    C311505   1.030   0.774   4.543  0.2589 -0.2317 -0.1536
  726POPI   PO411506   1.395   1.154   4.943  0.0309 -0.2054 -0.2579
  726POPI   GL111507   1.357   1.382   5.280  0.1266 -0.1728  0.0818
  726POPI   GL211508   1.567   1.175   5.488 -0.0566  0.0206 -0.0370
  726POPI   C1A11509   0.959   1.551   5.460  0.1395  0.1284 -0.1575
  726POPI   D2A11510   0.549   1.684   5.585  0.1759  0.1600 -0.3402
  726POPI   C3A11511   0.570   1.740   6.040  0.2996  0.0996 -0.0357
  726POPI   C4A11512   0.565   1.726   6.437 -0.1501  0.1390 -0.2991
  726POPI   C1B11513   1.806   1.357   5.770 -0.1451 -0.0007 -0.0256
  726POPI   C2B11514   2.078   1.635   5.934 -0.0252  0.1669 -0.0763
  726POPI   C3B11515   2.252   1.585   6.299 -0.0659 -0.1886 -0.1294
  726POPI   C4B11516   2.099   1.866   6.711 -0.3197  0.0791  0.0725
  727POPI    C111517   0.230   7.714   5.174  0.0765  0.0781 -0.0091
  727POPI    C211518   0.289   7.542   5.530 -0.0438 -0.2248 -0.1314
  727POPI    C311519   0.532   7.457   5.224  0.1618  0.1631 -0.0826
  727POPI   PO411520   0.051   7.817   5.175  0.2644 -0.0340 -0.1862
  727POPI   GL111521  -0.247   7.737   5.486  0.4285 -0.0286  0.0057
  727POPI   GL211522  -0.204   7.408   5.450 -0.3082 -0.0126 -0.1742
  727POPI   C1A11523  -0.301   7.773   5.902 -0.0956  0.2367  0.0028
  727POPI   D2A11524  -0.574   7.561   6.167  0.1239  0.0536 -0.1237
  727POPI   C3A11525  -1.047   7.289   6.175 -0.5143 -0.1887  0.1232
  727POPI   C4A11526  -1.485   7.231   6.185  0.0484  0.0390  0.0416
  727POPI   C1B11527   0.066   7.282   5.837 -0.1296 -0.0385  0.1480
  727POPI   C2B11528  -0.099   7.346   6.318  0.1880  0.1456  0.2732
  727POPI   C3B11529  -0.373   7.390   6.672 -0.0059  0.1362  0.3784
  727POPI   C4B11530  -0.830   7.315   6.728  0.0312 -0.0376 -0.1510
  728POPI    C111531   2.659  11.976   4.910 -0.0483  0.0877  0.0631
  728POPI    C211532   3.004  12.178   4.887 -0.0403  0.0901  0.1980
  728POPI    C311533   2.964  11.827   4.698  0.0562  0.0613  0.2305
  728POPI   PO411534   2.640  11.816   5.167 -0.1754 -0.3872 -0.0381
  728POPI   GL111535   2.407  11.804   5.513 -0.0901  0.0773  0.2260
  728POPI   GL211536   2.671  11.903   5.688  0.0094 -0.2326 -0.0555
  728POPI   C1A11537   2.244  11.512   5.830  0.0549 -0.0525  0.0064
  728POPI   D2A11538   1.985  11.666   6.090  0.1023 -0.2079  0.0620
  728POPI   C3A11539   2.008  12.077   6.307  0.2557  0.0487  0.0409
  728POPI   C4A11540   1.997  12.518   6.371  0.0725  0.3100 -0.0250
  728POPI   C1B11541   2.352  12.115   5.925  0.2049 -0.2285 -0.0388
  728POPI   C2B11542   2.483  12.298   6.349 -0.0674 -0.0201 -0.0273
  728POPI   C3B11543   2.676  12.321   6.803  0.0561 -0.1621 -0.0130
  728POPI   C4B11544   2.648  12.576   7.253 -0.0373  0.0323 -0.2787
  729POPI    C111545   1.796  18.835   5.038 -0.1479  0.0789 -0.1140
  729POPI    C211546   1.542  19.139   5.092 -0.1891  0.0205  0.0277
  729POPI    C311547   1.522  18.919   4.758 -0.1859  0.1468 -0.0567
  729POPI   PO411548   1.771  18.745   5.215  0.0790  0.2434 -0.1861
  729POPI   GL111549   1.982  18.419   5.572  0.2228  0.1298 -0.0501
  729POPI   GL211550   2.361  18.459   5.711 -0.4072  0.0014  0.4074
  729POPI   C1A11551   1.908  18.566   5.914 -0.1962 -0.0937  0.0614
  729POPI   D2A11552   1.848  18.867   6.263 -0.2022 -0.0010  0.1162
  729POPI   C3A11553   1.389  19.129   6.396 -0.3051  0.3349  0.1902
  729POPI   C4A11554   1.027  19.399   6.177  0.2052 -0.3934 -0.0081
  729POPI   C1B11555   2.530  18.421   6.029 -0.2004 -0.0000 -0.0242
  729POPI   C2B11556   2.661  18.217   6.508 -0.0182  0.0621  0.1942
  729POPI   C3B11557   3.014  18.051   6.719 -0.0198  0.1007 -0.1016
  729POPI   C4B11558   3.244  17.968   7.047  0.2960 -0.1610  0.0753
  730POPI    C111559  15.581  11.767   4.532 -0.0130 -0.0634  0.1706
  730POPI    C211560  15.488  12.116   4.361  0.1476 -0.0152  0.1808
  730POPI    C311561  15.212  11.829   4.391  0.0570  0.0560  0.0376
  730POPI   PO411562  15.751  11.886   4.755  0.1363 -0.0262 -0.2736
  730POPI   GL111563  15.851  11.673   5.170  0.0086 -0.0373 -0.2888
  730POPI   GL211564  15.884  11.324   5.176  0.1039 -0.0655 -0.1732
  730POPI   C1A11565  15.916  11.853   5.478  0.2798  0.0475 -0.0398
  730POPI   D2A11566  15.851  12.025   5.867  0.0816  0.3023 -0.2113
  730POPI   C3A11567  15.858  11.639   6.305  0.1575  0.0394 -0.2502
  730POPI   C4A11568  16.085  11.306   6.570  0.0831 -0.1641  0.1576
  730POPI   C1B11569  15.662  11.304   5.607 -0.0581  0.1112 -0.0921
  730POPI   C2B11570  15.467  11.550   5.980  0.1038 -0.0573 -0.0075
  730POPI   C3B11571  15.076  11.444   6.256  0.2042  0.0339  0.0773
  730POPI   C4B11572  14.745  11.690   6.405 -0.3132  0.0867  0.0484
  731POPI    C111573   8.371  17.187   5.099 -0.1214 -0.0608 -0.0747
  731POPI    C211574   8.307  17.112   4.712 -0.1248  0.2589 -0.1386
  731POPI    C311575   7.998  17.184   4.955 -0.1418 -0.1837 -0.0208
  731POPI   PO411576   8.513  17.279   5.164  0.0779  0.2454 -0.3528
  731POPI   GL111577   8.736  17.421   5.535 -0.0238 -0.1887  0.1102
  731POPI   GL211578   9.040  17.726   5.359  0.1494  0.1359  0.1754
  731POPI   C1A11579   8.755  17.542   5.942  0.0051 -0.0231 -0.2908
  731POPI   D2A11580   8.472  17.825   6.297  0.2746  0.0981 -0.1209
  731POPI   C3A11581   8.349  17.886   6.721 -0.0414 -0.4479  0.1835
  731POPI   C4A11582   8.241  17.819   7.072 -0.0335  0.0208  0.2810
  731POPI   C1B11583   9.186  17.472   5.718 -0.2197  0.1911 -0.1027
  731POPI   C2B11584   9.328  17.246   6.159 -0.5690  0.0068  0.1040
  731POPI   C3B11585   9.619  17.299   6.478  0.1359 -0.0087 -0.2376
  731POPI   C4B11586  10.029  17.447   6.463 -0.4131 -0.2919  0.1186
  732POPI    C111587  17.996  14.049   4.512 -0.0127 -0.0509  0.2325
  732POPI    C211588  17.873  14.429   4.529  0.0897 -0.0088  0.0526
  732POPI    C311589  17.744  14.189   4.235  0.1324 -0.0742  0.0868
  732POPI   PO411590  17.934  13.974   4.807 -0.1299 -0.0978 -0.2235
  732POPI   GL111591  17.820  13.766   5.201 -0.2896 -0.3290  0.0192
  732POPI   GL211592  17.676  14.004   5.441 -0.3237 -0.1023 -0.0163
  732POPI   C1A11593  17.606  13.371   5.338  0.0206 -0.0303  0.1289
  732POPI   D2A11594  17.534  13.073   5.651  0.1737  0.1363  0.2093
  732POPI   C3A11595  17.854  13.086   5.997  0.0525  0.0856 -0.1057
  732POPI   C4A11596  18.226  13.182   6.364  0.0122  0.2545  0.0363
  732POPI   C1B11597  17.545  14.016   5.847 -0.6677  0.0574  0.0875
  732POPI   C2B11598  17.330  13.732   6.210 -0.2033 -0.0835  0.2576
  732POPI   C3B11599  16.927  13.852   6.487 -0.2280 -0.1612 -0.0470
  732POPI   C4B11600  16.582  13.683   6.715 -0.0333  0.2707  0.5114
  733POPI    C111601  13.323  15.816   5.123 -0.0614  0.1179  0.0387
  733POPI    C211602  13.401  15.900   4.740 -0.0672  0.1208  0.0382
  733POPI    C311603  13.488  16.167   5.025  0.0415  0.0730  0.0499
  733POPI   PO411604  13.287  15.594   5.210 -0.2768 -0.0900  0.1722
  733POPI   GL111605  13.446  15.295   5.476 -0.0389  0.0572 -0.1190
  733POPI   GL211606  13.778  15.375   5.435 -0.1190  0.1966  0.0372
  733POPI   C1A11607  13.178  15.463   5.919 -0.1937 -0.1522 -0.1788
  733POPI   D2A11608  12.818  15.615   6.124  0.1276 -0.0107  0.2169
  733POPI   C3A11609  12.645  15.909   6.124  0.1455 -0.1883 -0.2444
  733POPI   C4A11610  12.784  16.238   5.809 -0.1648 -0.2547  0.1666
  733POPI   C1B11611  13.645  15.580   5.834 -0.3286 -0.0125  0.1311
  733POPI   C2B11612  13.453  15.694   6.223 -0.0844  0.3625  0.1842
  733POPI   C3B11613  13.455  15.942   6.579 -0.2428 -0.0712 -0.0222
  733POPI   C4B11614  13.483  16.328   6.764 -0.0435  0.0788 -0.0097
  734POPI    C111615  12.076   4.333   4.744 -0.2306  0.0207  0.0708
  734POPI    C211616  12.459   4.288   4.639 -0.1496  0.0083  0.3624
  734POPI    C311617  12.189   4.011   4.536 -0.0772  0.0052  0.1769
  734POPI   PO411618  12.141   4.382   5.028  0.0907  0.0167  0.3474
  734POPI   GL111619  12.039   4.113   5.344  0.2039  0.0801 -0.1497
  734POPI   GL211620  11.920   3.925   5.230  0.2861 -0.0773 -0.1298
  734POPI   C1A11621  11.954   4.171   5.819  0.1963 -0.2459  0.0622
  734POPI   D2A11622  11.831   4.375   6.111 -0.0068 -0.0379 -0.0572
  734POPI   C3A11623  11.944   4.455   6.509 -0.3321 -0.0059  0.2128
  734POPI   C4A11624  11.972   4.665   6.766  0.0222 -0.0345 -0.0738
  734POPI   C1B11625  12.061   3.675   5.603 -0.3018 -0.0679  0.0006
  734POPI   C2B11626  12.235   3.759   5.964  0.0195  0.0157  0.1816
  734POPI   C3B11627  12.475   3.873   6.351 -0.2550 -0.0053  0.1524
  734POPI   C4B11628  12.341   3.854   6.829 -0.2125 -0.3333 -0.2716
  735POPI    C111629  10.572   3.270   4.564  0.4627 -0.5141 -0.1837
  735POPI    C211630  10.956   3.341   4.650  0.3369  0.0486 -0.0463
  735POPI    C311631  10.774   3.550   4.362 -0.0121  0.1841  0.2643
  735POPI   PO411632  10.491   3.214   4.825 -0.3812 -0.1098  0.2517
  735POPI   GL111633  10.154   3.105   5.078  0.2065 -0.0189  0.1821
  735POPI   GL211634  10.435   2.854   5.156 -0.2587 -0.1766  0.1431
  735POPI   C1A11635   9.806   3.130   5.165  0.1664 -0.0510 -0.1741
  735POPI   D2A11636   9.524   2.846   5.205 -0.2387  0.2066 -0.2418
  735POPI   C3A11637   9.286   2.857   5.555 -0.0351  0.1176 -0.0304
  735POPI   C4A11638   9.226   2.426   5.684 -0.0647  0.0137  0.0512
  735POPI   C1B11639  10.178   2.966   5.554  0.1592 -0.0688  0.1532
  735POPI   C2B11640  10.019   2.978   5.941 -0.0411  0.1976 -0.0533
  735POPI   C3B11641   9.782   3.065   6.302  0.2247  0.1992 -0.2375
  735POPI   C4B11642   9.759   3.431   6.707 -0.1364 -0.1019 -0.3490
  736POPI    C111643  11.131   9.896   4.442 -0.1572 -0.2036 -0.3775
  736POPI    C211644  11.289  10.220   4.268 -0.2974  0.1168  0.0721
  736POPI    C311645  10.903  10.130   4.212 -0.2418 -0.0155 -0.1078
  736POPI   PO411646  11.178   9.940   4.779 -0.1734 -0.1040 -0.1073
  736POPI   GL111647  11.484  10.206   5.005 -0.1328  0.1430  0.0310
  736POPI   GL211648  11.265  10.035   5.274  0.0921  0.2046 -0.4672
  736POPI   C1A11649  11.790  10.081   5.307 -0.0522 -0.2423 -0.0279
  736POPI   D2A11650  12.094   9.942   5.668  0.1143 -0.0348 -0.2508
  736POPI   C3A11651  12.090   9.694   6.060 -0.0167 -0.2714  0.1891
  736POPI   C4A11652  12.168   9.313   6.240  0.3513 -0.0796  0.0079
  736POPI   C1B11653  10.982  10.096   5.641 -0.2393 -0.3406 -0.1495
  736POPI   C2B11654  11.133   9.794   6.006  0.1377  0.0980 -0.1395
  736POPI   C3B11655  11.171   9.389   6.264 -0.0487 -0.0564 -0.1056
  736POPI   C4B11656  11.069   8.933   6.386  0.2075 -0.1143 -0.4220
  737POPI    C111657  12.742  11.689   4.804  0.0141 -0.1424  0.1144
  737POPI    C211658  12.547  11.344   4.861 -0.2461  0.0109  0.1715
  737POPI    C311659  12.487  11.555   4.527  0.2438 -0.2101 -0.0674
  737POPI   PO411660  12.743  11.849   5.016 -0.0903  0.2580 -0.1045
  737POPI   GL111661  12.550  11.784   5.496  0.2925  0.2925 -0.1708
  737POPI   GL211662  12.479  11.557   5.372 -0.2526  0.2479  0.1041
  737POPI   C1A11663  12.517  11.711   5.934 -0.0439 -0.0773 -0.3772
  737POPI   D2A11664  12.451  11.375   6.151  0.0690 -0.3120  0.0296
  737POPI   C3A11665  12.181  11.618   6.549 -0.2614  0.1314  0.2860
  737POPI   C4A11666  12.121  11.902   6.827 -0.0260 -0.2271  0.1609
  737POPI   C1B11667  12.240  11.439   5.625 -0.1692  0.0332  0.0587
  737POPI   C2B11668  11.934  11.250   5.965 -0.2221 -0.0726  0.2493
  737POPI   C3B11669  12.027  11.195   6.316 -0.3115  0.1132  0.3659
  737POPI   C4B11670  12.326  11.145   6.608 -0.2466  0.0722 -0.2028
  738POPI    C111671   7.898   9.809   4.843 -0.0229  0.0431 -0.0633
  738POPI    C211672   8.007  10.024   4.524  0.0173  0.1362  0.0128
  738POPI    C311673   7.971  10.200   4.881 -0.1772  0.0636  0.0300
  738POPI   PO411674   7.799   9.545   4.912  0.1326 -0.4291  0.1225
  738POPI   GL111675   7.436   9.435   5.269 -0.0589 -0.3621 -0.1940
  738POPI   GL211676   7.533   9.107   5.229 -0.1891  0.0226 -0.0549
  738POPI   C1A11677   7.511   9.511   5.782 -0.0968 -0.2113  0.2664
  738POPI   D2A11678   7.696   9.279   6.100  0.1632 -0.1801 -0.2546
  738POPI   C3A11679   7.448   9.063   6.400 -0.0952  0.2028 -0.1739
  738POPI   C4A11680   7.217   8.866   6.700 -0.2020  0.0225  0.1183
  738POPI   C1B11681   7.473   8.789   5.513 -0.2669  0.1975  0.2208
  738POPI   C2B11682   7.415   8.814   5.960 -0.0412 -0.2220 -0.2006
  738POPI   C3B11683   7.130   8.587   6.153  0.2163 -0.1387  0.3682
  738POPI   C4B11684   6.796   8.483   6.340 -0.0489  0.2565 -0.0543
  739POPI    C111685   8.675   0.592   4.669  0.2519 -0.2308  0.1698
  739POPI    C211686   8.961   0.599   4.390  0.0022  0.0090 -0.0874
  739POPI    C311687   8.578   0.642   4.284 -0.1118 -0.0722  0.2775
  739POPI   PO411688   8.878   0.513   4.909  0.2197 -0.1234 -0.1140
  739POPI   GL111689   9.035   0.658   5.298  0.0388  0.0990  0.2541
  739POPI   GL211690   9.039   0.228   5.354 -0.2482  0.3289  0.2077
  739POPI   C1A11691   9.264   0.592   5.589 -0.3226 -0.2302 -0.0414
  739POPI   D2A11692   9.198   0.585   5.954  0.0565 -0.2081  0.0560
  739POPI   C3A11693   9.448   0.609   6.154 -0.0162  0.1376  0.0669
  739POPI   C4A11694   9.836   0.561   6.232  0.2722 -0.0282  0.3307
  739POPI   C1B11695   9.237   0.079   5.648  0.1826  0.1635 -0.0930
  739POPI   C2B11696   9.368   0.102   6.089 -0.2458 -0.0132  0.0665
  739POPI   C3B11697   9.327  -0.173   6.506  0.0918  0.0064  0.1413
  739POPI   C4B11698   9.110  -0.342   6.859 -0.2621 -0.3781  0.1214
  740POPI    C111699  15.816   1.391   4.877  0.3802  0.3566 -0.0403
  740POPI    C211700  15.934   1.509   5.241 -0.0698 -0.1783  0.2944
  740POPI    C311701  16.044   1.150   5.101 -0.0152 -0.0333 -0.0440
  740POPI   PO411702  15.518   1.507   4.868 -0.1237 -0.0324 -0.1730
  740POPI   GL111703  15.418   1.630   5.216 -0.1246 -0.0704  0.1330
  740POPI   GL211704  15.065   1.622   5.297 -0.1096 -0.0606 -0.1202
  740POPI   C1A11705  15.449   1.426   5.588 -0.1886  0.1438  0.1685
  740POPI   D2A11706  15.251   1.132   5.761  0.2633  0.0145 -0.1559
  740POPI   C3A11707  15.259   1.073   6.288 -0.2041  0.1885  0.0200
  740POPI   C4A11708  15.183   0.611   6.444 -0.0507  0.1358  0.0547
  740POPI   C1B11709  15.002   1.747   5.677 -0.0365 -0.4091  0.1046
  740POPI   C2B11710  14.940   1.997   6.083  0.1861 -0.0987  0.1462
  740POPI   C3B11711  14.850   2.372   6.419 -0.2064 -0.0527  0.0489
  740POPI   C4B11712  14.765   2.546   6.807 -0.3758  0.3033 -0.1635
  741POPI    C111713   6.870  17.000   4.715 -0.0065  0.3013  0.0646
  741POPI    C211714   7.097  17.214   4.465 -0.0018  0.1275 -0.0819
  741POPI    C311715   6.734  17.090   4.349  0.0275 -0.0101 -0.0272
  741POPI   PO411716   6.963  17.053   5.075 -0.0402 -0.0700 -0.0804
  741POPI   GL111717   6.624  17.062   5.432 -0.1580  0.0695  0.4903
  741POPI   GL211718   6.391  16.899   5.620 -0.4130 -0.0727 -0.1506
  741POPI   C1A11719   6.792  17.083   5.894  0.0272 -0.0100 -0.0980
  741POPI   D2A11720   6.841  17.106   6.295  0.1475  0.0924 -0.1065
  741POPI   C3A11721   6.431  16.857   6.397 -0.1490  0.1345 -0.0271
  741POPI   C4A11722   6.115  16.690   6.541  0.1211 -0.0428  0.3574
  741POPI   C1B11723   6.230  17.021   5.919 -0.0853  0.1778  0.0534
  741POPI   C2B11724   6.027  17.111   6.218  0.2345 -0.5001 -0.1589
  741POPI   C3B11725   6.050  17.251   6.613 -0.0535  0.1827 -0.0692
  741POPI   C4B11726   6.068  17.323   7.050 -0.1818  0.2036  0.0198
  742POPI    C111727   9.878  11.043   4.879 -0.1146  0.1220  0.1813
  742POPI    C211728   9.660  11.344   4.731 -0.0176  0.2381  0.2732
  742POPI    C311729   9.864  11.104   4.484  0.0225  0.3381  0.2084
  742POPI   PO411730   9.730  10.946   5.069 -0.2251 -0.3259  0.0194
  742POPI   GL111731   9.821  10.761   5.438  0.0834  0.1100  0.2242
  742POPI   GL211732   9.970  10.484   5.513  0.2213  0.1238  0.0708
  742POPI   C1A11733   9.445  10.765   5.633 -0.2377 -0.3631  0.1373
  742POPI   D2A11734   9.032  11.021   5.705  0.0815 -0.1604 -0.0676
  742POPI   C3A11735   8.832  11.119   6.094 -0.1215 -0.1532 -0.0129
  742POPI   C4A11736   8.667  11.264   6.476 -0.2389  0.0246 -0.1088
  742POPI   C1B11737   9.659  10.407   5.949 -0.1940  0.0145  0.3202
  742POPI   C2B11738   9.261  10.400   6.074  0.3828  0.2032  0.0987
  742POPI   C3B11739   8.937  10.331   6.362 -0.0549  0.2407  0.3603
  742POPI   C4B11740   8.749  10.150   6.706  0.3969 -0.0207 -0.0253
  743POPI    C111741  11.119  14.518   4.775 -0.0147 -0.1474  0.0396
  743POPI    C211742  10.968  14.847   4.946 -0.0818 -0.2105  0.1022
  743POPI    C311743  10.803  14.701   4.612 -0.0069 -0.1393  0.0337
  743POPI   PO411744  11.126  14.357   4.950 -0.2851 -0.3486  0.2483
  743POPI   GL111745  11.209  14.202   5.329 -0.0672 -0.0607 -0.2097
  743POPI   GL211746  10.944  14.459   5.421  0.0250 -0.0773  0.0638
  743POPI   C1A11747  11.603  14.216   5.440 -0.1075  0.1819 -0.0195
  743POPI   D2A11748  11.896  14.508   5.697  0.0042 -0.3871  0.1567
  743POPI   C3A11749  11.795  14.769   6.051 -0.2623 -0.1232 -0.3023
  743POPI   C4A11750  11.328  14.810   6.200 -0.0774  0.0807  0.4110
  743POPI   C1B11751  11.162  14.091   5.796  0.0512  0.6417 -0.3744
  743POPI   C2B11752  11.288  13.602   5.958  0.0516  0.2301  0.2304
  743POPI   C3B11753  11.382  13.349   6.393 -0.2476 -0.0781 -0.2152
  743POPI   C4B11754  11.231  13.057   6.799  0.1044 -0.2968  0.3792
  744POPS   CNO11755   6.053   3.925   4.832 -0.3338  0.0335  0.0623
  744POPS   PO411756   5.660   3.855   4.958 -0.4469 -0.0078 -0.1756
  744POPS   GL111757   5.857   3.932   5.359  0.2176 -0.1359  0.3870
  744POPS   GL211758   6.181   4.133   5.373 -0.3537 -0.2153 -0.2389
  744POPS   C1A11759   5.998   3.662   5.682 -0.0686 -0.0493  0.0008
  744POPS   D2A11760   5.841   3.572   6.059  0.1718 -0.1718  0.1947
  744POPS   C3A11761   5.517   3.729   6.321  0.1514  0.2899 -0.1144
  744POPS   C4A11762   5.660   4.073   6.562  0.1343  0.1356  0.0650
  744POPS   C1B11763   6.100   4.136   5.845  0.3918 -0.0930 -0.0872
  744POPS   C2B11764   6.045   3.973   6.217 -0.1133  0.1063  0.1588
  744POPS   C3B11765   6.124   3.689   6.598  0.0613  0.2563 -0.0085
  744POPS   C4B11766   6.057   3.876   7.075 -0.1021 -0.5118  0.2697
  745POPS   CNO11767   8.990   4.713   4.509  0.0671 -0.4304 -0.2075
  745POPS   PO411768   9.355   4.714   4.594 -0.3303  0.2409  0.4193
  745POPS   GL111769   9.035   4.747   4.996 -0.2544  0.2443 -0.0768
  745POPS   GL211770   9.024   4.424   5.235  0.1483 -0.0589 -0.0604
  745POPS   C1A11771   8.837   5.135   5.201 -0.2432  0.3182  0.4395
  745POPS   D2A11772   8.817   5.184   5.694 -0.1741 -0.0655 -0.1940
  745POPS   C3A11773   8.497   5.095   6.023 -0.0435  0.1472 -0.1740
  745POPS   C4A11774   8.276   5.040   6.388  0.2075  0.1936  0.0746
  745POPS   C1B11775   9.288   4.505   5.635 -0.2069  0.1666  0.0057
  745POPS   C2B11776   9.621   4.389   5.926  0.1008  0.0450 -0.2082
  745POPS   C3B11777   9.819   4.023   5.907  0.3577  0.0163 -0.2176
  745POPS   C4B11778   9.933   3.496   6.132 -0.0395  0.3014  0.1984
  746POPS   CNO11779  17.867  15.938   4.480  0.0275 -0.0752  0.2136
  746POPS   PO411780  17.703  16.245   4.837 -0.2918 -0.1516 -0.1891
  746POPS   GL111781  17.871  16.238   5.205  0.0571  0.0108 -0.3444
  746POPS   GL211782  17.623  15.971   5.233 -0.0842 -0.3254 -0.0467
  746POPS   C1A11783  18.213  16.329   5.519 -0.1881 -0.2853 -0.1342
  746POPS   D2A11784  18.083  16.306   5.911  0.1538 -0.1257  0.0276
  746POPS   C3A11785  18.191  16.127   6.302 -0.0262  0.1202 -0.2471
  746POPS   C4A11786  17.937  16.142   6.574  0.0204  0.1056  0.0973
  746POPS   C1B11787  17.614  16.089   5.698 -0.3659 -0.0573 -0.2095
  746POPS   C2B11788  17.615  16.206   6.130 -0.0492 -0.2149 -0.1240
  746POPS   C3B11789  17.964  16.581   6.312 -0.1734  0.1779  0.1578
  746POPS   C4B11790  18.086  16.915   6.485 -0.2056 -0.0777  0.0131
  747POPS   CNO11791  19.587   8.898   4.818  0.0153  0.1667  0.2201
  747POPS   PO411792  19.278   8.852   5.017  0.0994  0.2757  0.3135
  747POPS   GL111793  19.242   9.048   5.367  0.1705  0.2176  0.1187
  747POPS   GL211794  18.958   9.091   5.513 -0.1786  0.0962  0.0642
  747POPS   C1A11795  19.331   9.130   5.767 -0.0299 -0.0060 -0.0184
  747POPS   D2A11796  19.643   9.079   6.067 -0.0062  0.0076 -0.3139
  747POPS   C3A11797  19.631   9.119   6.456  0.0987 -0.2265  0.0281
  747POPS   C4A11798  19.645   9.082   6.900 -0.2139 -0.2840  0.0817
  747POPS   C1B11799  18.976   8.791   5.848 -0.0392  0.0217 -0.0551
  747POPS   C2B11800  18.631   8.642   6.007 -0.2819 -0.2061 -0.0541
  747POPS   C3B11801  18.406   8.298   6.268 -0.1071 -0.0595  0.0116
  747POPS   C4B11802  18.064   8.457   6.552 -0.3594 -0.0540  0.1269
  748POPS   CNO11803  13.890   6.704   4.814  0.3039 -0.0490  0.1872
  748POPS   PO411804  14.122   7.109   4.832 -0.0213  0.0027  0.7281
  748POPS   GL111805  13.913   7.181   5.162  0.2468  0.1922  0.2087
  748POPS   GL211806  13.911   7.499   5.406 -0.1316 -0.0662  0.1449
  748POPS   C1A11807  13.942   6.935   5.635  0.1157  0.0427  0.2326
  748POPS   D2A11808  13.711   6.944   5.964  0.0383 -0.0317  0.2740
  748POPS   C3A11809  13.555   6.733   6.060 -0.1294 -0.0891  0.1532
  748POPS   C4A11810  13.235   6.439   6.128  0.1928 -0.1837 -0.1229
  748POPS   C1B11811  13.995   7.414   5.841  0.3815  0.1539  0.0966
  748POPS   C2B11812  14.092   7.119   6.198 -0.0462 -0.0718  0.0300
  748POPS   C3B11813  13.825   6.892   6.451  0.0808  0.2040 -0.1352
  748POPS   C4B11814  13.411   6.830   6.570  0.1592 -0.2476 -0.1660
  749POPS   CNO11815   1.521  11.309   4.717  0.2700  0.0013 -0.2328
  749POPS   PO411816   1.855  11.549   5.104  0.4361  0.0892 -0.0254
  749POPS   GL111817   1.951  11.377   5.479  0.6646 -0.2665  0.1765
  749POPS   GL211818   1.794  11.352   5.769  0.2413 -0.1464 -0.1738
  749POPS   C1A11819   2.276  11.030   5.642  0.2912 -0.0597  0.0272
  749POPS   D2A11820   2.502  11.161   6.028  0.2720 -0.2319  0.1895
  749POPS   C3A11821   2.492  10.814   6.255 -0.3073  0.2597  0.1120
  749POPS   C4A11822   2.484  10.792   6.697  0.0799 -0.0406 -0.0998
  749POPS   C1B11823   2.028  11.131   6.189 -0.4389  0.0088  0.4110
  749POPS   C2B11824   2.062  11.173   6.589  0.0916  0.0127 -0.0388
  749POPS   C3B11825   1.817  10.994   6.931 -0.1490  0.0314 -0.0776
  749POPS   C4B11826   1.638  10.889   7.149 -0.2454 -0.1831  0.3346
  750POPS   CNO11827   0.107  12.890   4.767 -0.0183  0.2236  0.0263
  750POPS   PO411828  -0.170  13.108   5.209  0.0988  0.2483 -0.1076
  750POPS   GL111829  -0.258  13.209   5.635  0.1768 -0.1333 -0.1474
  750POPS   GL211830  -0.469  13.468   5.612  0.1211  0.0386 -0.0888
  750POPS   C1A11831  -0.366  13.125   6.082 -0.0477  0.0245  0.4199
  750POPS   D2A11832  -0.145  12.978   6.416 -0.2465  0.0202 -0.2204
  750POPS   C3A11833  -0.181  13.293   6.754 -0.0704  0.1312  0.0927
  750POPS   C4A11834  -0.032  13.671   6.880 -0.2084 -0.0479  0.1152
  750POPS   C1B11835  -0.596  13.531   5.954  0.1788  0.1811 -0.0022
  750POPS   C2B11836  -0.880  13.798   6.127 -0.1565  0.0796 -0.2365
  750POPS   C3B11837  -0.834  13.827   6.632  0.2641 -0.5087  0.2423
  750POPS   C4B11838  -1.047  13.607   6.947 -0.3931  0.0370 -0.2452
  751POPS   CNO11839   2.094   8.908   4.527 -0.2658  0.2023  0.0369
  751POPS   PO411840   2.189   8.756   4.951 -0.1177 -0.1698  0.3642
  751POPS   GL111841   2.457   8.814   5.259  0.0782 -0.0524 -0.1598
  751POPS   GL211842   2.443   9.166   5.318  0.3805  0.0600  0.2305
  751POPS   C1A11843   2.558   8.559   5.586  0.0153  0.0714  0.2295
  751POPS   D2A11844   2.784   8.159   5.750 -0.3562  0.1530  0.1107
  751POPS   C3A11845   2.786   8.027   6.157  0.3138  0.1767 -0.0897
  751POPS   C4A11846   2.711   7.980   6.562  0.0306  0.1186  0.3740
  751POPS   C1B11847   2.757   9.144   5.675  0.1710 -0.0208  0.0853
  751POPS   C2B11848   2.890   8.847   6.026 -0.0138 -0.0958  0.1044
  751POPS   C3B11849   2.854   8.786   6.450 -0.3959  0.0237  0.1145
  751POPS   C4B11850   2.971   8.623   6.828  0.1100  0.2058  0.0225
  752POPS   CNO11851  11.071  15.453   4.841  0.4495  0.1743 -0.3624
  752POPS   PO411852  11.329  15.227   4.928  0.0207  0.0114  0.0716
  752POPS   GL111853  11.344  15.227   5.348 -0.0373 -0.2507  0.0567
  752POPS   GL211854  11.481  15.442   5.542 -0.3131 -0.0957  0.0161
  752POPS   C1A11855  11.413  14.901   5.726  0.1256  0.0151  0.2266
  752POPS   D2A11856  11.397  14.526   5.789  0.1365  0.5069 -0.1235
  752POPS   C3A11857  11.571  14.244   5.989 -0.1363  0.0098 -0.1716
  752POPS   C4A11858  11.633  14.048   6.355 -0.1847  0.0228  0.1182
  752POPS   C1B11859  11.297  15.375   5.972 -0.0672  0.2522  0.0588
  752POPS   C2B11860  11.154  15.270   6.328 -0.3341  0.0088  0.1222
  752POPS   C3B11861  10.779  15.474   6.251 -0.0257 -0.2829 -0.0059
  752POPS   C4B11862  10.849  15.544   5.870  0.1432  0.0248 -0.1409
  753POPS   CNO11863  11.100  12.375   5.214 -0.0265  0.0384  0.3104
  753POPS   PO411864  11.442  12.592   5.360 -0.4507 -0.0054 -0.0077
  753POPS   GL111865  11.460  12.479   5.717  0.1337 -0.2476  0.0717
  753POPS   GL211866  11.332  12.166   5.788  0.4335  0.0383 -0.0511
  753POPS   C1A11867  11.461  12.570   6.160 -0.1675 -0.0453  0.1275
  753POPS   D2A11868  11.558  12.753   6.473  0.3659 -0.1610 -0.2046
  753POPS   C3A11869  11.425  12.465   6.764  0.0176 -0.3997 -0.0042
  753POPS   C4A11870  11.597  12.128   7.065 -0.3160 -0.5030 -0.0331
  753POPS   C1B11871  11.767  12.174   6.064  0.2025 -0.1749  0.1989
  753POPS   C2B11872  12.234  12.145   6.337 -0.1001 -0.1604 -0.0831
  753POPS   C3B11873  12.634  11.800   6.438  0.1862  0.1720 -0.4594
  753POPS   C4B11874  12.992  11.609   6.167  0.1537  0.1212 -0.2506
  754POPS   CNO11875   8.694   5.494   4.584  0.1821  0.0174 -0.0356
  754POPS   PO411876   8.987   5.776   4.691  0.0068  0.0931  0.2627
  754POPS   GL111877   8.787   5.618   5.066  0.1125 -0.0366 -0.0467
  754POPS   GL211878   8.624   5.860   5.211 -0.1175  0.1191 -0.1664
  754POPS   C1A11879   9.032   5.528   5.383  0.1221  0.0590  0.1319
  754POPS   D2A11880   9.197   5.576   5.823 -0.1724 -0.1956 -0.0002
  754POPS   C3A11881   9.121   5.400   6.149  0.2867  0.2507 -0.1136
  754POPS   C4A11882   9.041   4.940   6.079  0.0486 -0.3031  0.3265
  754POPS   C1B11883   8.662   6.285   5.586 -0.0530 -0.1026 -0.0092
  754POPS   C2B11884   8.491   6.596   5.934 -0.3135 -0.1984 -0.0281
  754POPS   C3B11885   8.449   6.534   6.356 -0.1926 -0.0153  0.1455
  754POPS   C4B11886   8.548   6.695   6.660 -0.1564 -0.1317 -0.0187
  755POPS   CNO11887  14.023  15.243   4.640 -0.0795 -0.1105  0.1865
  755POPS   PO411888  14.216  15.506   5.038  0.1028  0.3388  0.1291
  755POPS   GL111889  14.231  15.596   5.410 -0.2687  0.1833 -0.0370
  755POPS   GL211890  14.359  15.384   5.568 -0.1420  0.3280 -0.1397
  755POPS   C1A11891  14.152  15.651   5.908  0.0615  0.1363  0.3554
  755POPS   D2A11892  14.210  15.512   6.327 -0.0201 -0.0950  0.2844
  755POPS   C3A11893  14.035  15.140   6.427  0.1337 -0.0312  0.0550
  755POPS   C4A11894  13.818  14.877   6.698  0.0785 -0.0223  0.0078
  755POPS   C1B11895  14.712  15.236   5.678 -0.2595  0.0818 -0.0524
  755POPS   C2B11896  15.102  15.077   5.503 -0.0887  0.0145  0.4122
  755POPS   C3B11897  15.500  14.920   5.599  0.0041 -0.1385  0.3707
  755POPS   C4B11898  15.931  14.991   5.753  0.0579  0.0017  0.1075
  756POPS   CNO11899  14.932   2.179   4.498 -0.0509  0.1168  0.1673
  756POPS   PO411900  14.935   2.381   5.032 -0.1747  0.2529  0.2653
  756POPS   GL111901  15.179   2.392   5.400  0.0450 -0.0636 -0.3202
  756POPS   GL211902  15.450   2.215   5.254 -0.0726 -0.2196 -0.2533
  756POPS   C1A11903  15.470   2.580   5.633 -0.1622  0.2414 -0.0531
  756POPS   D2A11904  15.772   2.789   5.772  0.1950  0.0808  0.0721
  756POPS   C3A11905  15.899   2.828   6.180  0.0151 -0.0245 -0.1875
  756POPS   C4A11906  15.693   2.660   6.619  0.0174  0.2658 -0.0217
  756POPS   C1B11907  15.407   2.039   5.738  0.6527 -0.0954  0.2393
  756POPS   C2B11908  15.461   1.818   6.191  0.0367 -0.0522  0.1520
  756POPS   C3B11909  15.512   1.509   6.456 -0.0974  0.0930 -0.1595
  756POPS   C4B11910  15.832   1.363   6.773 -0.1293  0.0475 -0.0728
  757POPS   CNO11911   0.974  11.782   4.681 -0.1764  0.3763 -0.0893
  757POPS   PO411912   0.826  11.749   5.147 -0.0716  0.0504  0.1448
  757POPS   GL111913   0.752  11.872   5.567 -0.1181 -0.0791 -0.1445
  757POPS   GL211914   0.583  12.061   5.627  0.2098  0.0842 -0.0970
  757POPS   C1A11915   0.985  11.636   5.839  0.0087 -0.1036  0.1246
  757POPS   D2A11916   1.101  11.415   6.324  0.3289 -0.2740 -0.0117
  757POPS   C3A11917   1.029  11.009   6.329 -0.1784  0.0359  0.0071
  757POPS   C4A11918   0.805  10.774   6.510 -0.0622 -0.3568  0.1433
  757POPS   C1B11919   0.533  12.204   5.924  0.2876 -0.2646 -0.0917
  757POPS   C2B11920   0.204  12.298   6.097 -0.1316  0.1209 -0.3737
  757POPS   C3B11921   0.044  12.509   6.467  0.0862  0.2298  0.3835
  757POPS   C4B11922   0.011  12.388   6.935  0.0435 -0.1582  0.2237
  758POPS   CNO11923   7.824  18.007   4.861  0.0370  0.2150  0.0344
  758POPS   PO411924   7.683  17.643   5.081  0.0667 -0.0526  0.2143
  758POPS   GL111925   7.788  17.277   5.375  0.0695 -0.2204  0.0203
  758POPS   GL211926   8.106  17.306   5.540 -0.4130  0.1189 -0.0318
  758POPS   C1A11927   7.849  16.917   5.679 -0.0931 -0.3343  0.1530
  758POPS   D2A11928   7.780  16.794   5.901 -0.0687 -0.1075 -0.0257
  758POPS   C3A11929   8.184  16.789   6.186  0.0290 -0.0338 -0.2325
  758POPS   C4A11930   8.580  16.621   6.283 -0.1117  0.0428  0.1884
  758POPS   C1B11931   8.194  17.296   5.946 -0.2191  0.0492 -0.0168
  758POPS   C2B11932   8.284  17.327   6.428 -0.2622  0.0472  0.3868
  758POPS   C3B11933   8.228  17.347   6.855  0.3302 -0.0554 -0.0797
  758POPS   C4B11934   8.267  17.328   7.307 -0.0500  0.0876 -0.1104
  759POPS   CNO11935   0.974  19.776   4.890 -0.4569  0.3651 -0.2107
  759POPS   PO411936   1.155  19.591   5.187 -0.4781 -0.1600 -0.3098
  759POPS   GL111937   1.031  19.857   5.418  0.0599 -0.1184 -0.2549
  759POPS   GL211938   1.081  20.186   5.274 -0.0478 -0.2707  0.3570
  759POPS   C1A11939   1.104  20.033   5.843  0.0754  0.0119 -0.1014
  759POPS   D2A11940   1.142  20.032   6.219 -0.0932  0.2583 -0.2580
  759POPS   C3A11941   1.331  20.339   6.445 -0.1068 -0.2677 -0.0824
  759POPS   C4A11942   1.653  20.499   6.326  0.0217  0.0228  0.1978
  759POPS   C1B11943   1.591  20.396   5.395 -0.3673  0.2489 -0.2104
  759POPS   C2B11944   1.786  20.350   5.782 -0.0905 -0.0079  0.0062
  759POPS   C3B11945   2.025  20.305   6.058 -0.1314  0.0750  0.1096
  759POPS   C4B11946   2.351  20.017   6.217 -0.1594 -0.0325 -0.2178
  760POPS   CNO11947  11.882  16.815   5.657  0.0032 -0.0541 -0.0454
  760POPS   PO411948  11.603  16.940   5.274  0.4699  0.0003  0.3221
  760POPS   GL111949  11.433  17.089   5.611  0.2888 -0.2580 -0.2070
  760POPS   GL211950  11.534  17.216   5.935 -0.1448 -0.0860  0.1901
  760POPS   C1A11951  11.098  17.024   5.809 -0.0228 -0.1052 -0.0202
  760POPS   D2A11952  10.734  17.216   5.954  0.0493  0.3497 -0.1973
  760POPS   C3A11953  10.481  17.479   6.230 -0.1879 -0.0427  0.1017
  760POPS   C4A11954  10.437  17.750   6.639 -0.0453  0.1423  0.0640
  760POPS   C1B11955  11.429  16.965   6.212  0.4878 -0.0919 -0.0689
  760POPS   C2B11956  11.299  16.883   6.636  0.0636 -0.1470 -0.1506
  760POPS   C3B11957  11.394  17.152   7.012 -0.0818 -0.2607 -0.0529
  760POPS   C4B11958  11.102  17.527   7.053 -0.1938  0.2106 -0.3592
  761POPS   CNO11959   9.929   2.647   5.144 -0.2029 -0.0326  0.0476
  761POPS   PO411960  10.071   2.299   5.265  0.2546 -0.1235 -0.0333
  761POPS   GL111961  10.252   2.510   5.578  0.0900  0.0926  0.3252
  761POPS   GL211962  10.645   2.664   5.575 -0.2282 -0.1382 -0.2141
  761POPS   C1A11963  10.209   2.549   5.985 -0.4036 -0.0051  0.2755
  761POPS   D2A11964  10.214   2.789   6.409 -0.1775  0.1274  0.2931
  761POPS   C3A11965   9.963   2.844   6.795  0.0393 -0.2053  0.2610
  761POPS   C4A11966   9.869   3.020   7.158 -0.1357 -0.0927  0.3404
  761POPS   C1B11967  10.603   2.899   5.916 -0.2901 -0.3054  0.0946
  761POPS   C2B11968  10.375   3.301   6.118 -0.3891  0.3553  0.2281
  761POPS   C3B11969  10.226   3.422   6.542  0.0974 -0.0507 -0.2734
  761POPS   C4B11970  10.084   3.904   6.384 -0.2281  0.5835 -0.0757
  762POPS   CNO11971   5.400  18.481   5.415 -0.2995  0.1448 -0.1356
  762POPS   PO411972   5.402  18.062   5.263 -0.0329 -0.0823  0.1337
  762POPS   GL111973   5.191  18.036   5.646 -0.0799  0.1933  0.0122
  762POPS   GL211974   5.482  17.804   5.899 -0.0317 -0.0239  0.2552
  762POPS   C1A11975   5.131  18.249   6.056 -0.1315 -0.1601  0.2017
  762POPS   D2A11976   5.155  18.333   6.562  0.0827 -0.0840 -0.0231
  762POPS   C3A11977   5.481  18.501   6.820  0.1734 -0.1140  0.1184
  762POPS   C4A11978   5.859  18.566   7.014 -0.0415  0.2247  0.6653
  762POPS   C1B11979   5.256  17.828   6.209  0.1352  0.0942  0.0086
  762POPS   C2B11980   4.986  17.513   6.397  0.0618  0.0326 -0.1959
  762POPS   C3B11981   4.678  17.352   6.611 -0.0865  0.3737  0.0623
  762POPS   C4B11982   4.547  16.931   6.734 -0.0198 -0.2511  0.1517
  763POPS   CNO11983   5.715   7.132   4.650 -0.2090 -0.0328  0.1397
  763POPS   PO411984   5.508   7.080   5.069  0.1086 -0.0229  0.1867
  763POPS   GL111985   5.378   7.093   5.496  0.0215  0.0411 -0.1115
  763POPS   GL211986   5.702   6.911   5.585  0.1514 -0.0187  0.1663
  763POPS   C1A11987   5.298   7.056   5.964  0.0895  0.1269  0.1161
  763POPS   D2A11988   5.588   7.196   6.293  0.2341 -0.0363 -0.1852
  763POPS   C3A11989   5.687   6.922   6.608 -0.2001 -0.0899  0.1486
  763POPS   C4A11990   5.973   6.753   6.709 -0.1722 -0.3536 -0.0269
  763POPS   C1B11991   5.755   6.789   5.945  0.2136 -0.3938  0.2361
  763POPS   C2B11992   5.846   6.521   6.318  0.5229 -0.1096 -0.1585
  763POPS   C3B11993   6.067   6.268   6.525  0.1081 -0.1405 -0.1317
  763POPS   C4B11994   6.312   6.035   6.664  0.0079  0.2732 -0.1710
  764POPS   CNO11995   0.888  15.684   4.944  0.1215  0.3298 -0.2573
  764POPS   PO411996   0.944  15.312   5.037 -0.2394  0.1934  0.3173
  764POPS   GL111997   0.883  15.379   5.458 -0.0234 -0.0173 -0.0865
  764POPS   GL211998   0.512  15.529   5.485  0.2831  0.4297  0.0702
  764POPS   C1A11999   1.049  15.269   5.776 -0.2508 -0.0893  0.2321
  764POPS   D2A12000   1.313  15.360   6.052 -0.3713 -0.2491  0.2110
  764POPS   C3A12001   1.349  15.237   6.544  0.4151  0.1989  0.0835
  764POPS   C4A12002   1.496  15.474   6.962 -0.1802  0.1714  0.0789
  764POPS   C1B12003   0.523  15.180   5.747 -0.1703  0.2566  0.0082
  764POPS   C2B12004   0.385  14.861   5.802  0.0429 -0.2558  0.1920
  764POPS   C3B12005   0.282  14.645   6.233 -0.3134 -0.2255  0.2566
  764POPS   C4B12006   0.053  14.473   6.586 -0.2445  0.0843  0.0596
  765POPS   CNO12007  19.567   5.000   4.478  0.4649  0.0636 -0.0626
  765POPS   PO412008  19.387   5.049   4.983 -0.1625  0.0071  0.1618
  765POPS   GL112009  19.396   4.950   5.448  0.4259  0.0772 -0.1237
  765POPS   GL212010  19.599   4.927   5.574  0.1120  0.3650 -0.0412
  765POPS   C1A12011  19.080   4.841   5.791 -0.1731 -0.3321  0.3628
  765POPS   D2A12012  19.024   4.716   6.212  0.2658 -0.0904 -0.1799
  765POPS   C3A12013  19.162   4.987   6.448  0.1738 -0.2083  0.0428
  765POPS   C4A12014  19.198   4.911   6.882 -0.1919 -0.0449 -0.0783
  765POPS   C1B12015  19.484   5.235   5.821  0.0660  0.0292 -0.0337
  765POPS   C2B12016  19.263   5.424   6.015  0.2693  0.7214  0.1563
  765POPS   C3B12017  18.966   5.480   6.428 -0.1873  0.2071  0.2770
  765POPS   C4B12018  18.975   5.432   6.880  0.3529  0.1515 -0.1321
  766POPS   CNO12019   2.144  17.464   5.403 -0.0838  0.0975  0.3978
  766POPS   PO412020   1.933  17.850   5.334 -0.1141  0.0841 -0.2065
  766POPS   GL112021   1.961  17.631   5.854 -0.2287 -0.0877 -0.1408
  766POPS   GL212022   2.144  17.485   6.052 -0.1540 -0.0178 -0.0251
  766POPS   C1A12023   1.598  17.639   6.003 -0.1487 -0.3329 -0.1270
  766POPS   D2A12024   1.264  17.638   6.396 -0.1089  0.0858  0.0770
  766POPS   C3A12025   1.071  17.844   6.743  0.0694 -0.0495 -0.2136
  766POPS   C4A12026   0.776  17.626   7.108  0.1958  0.3473  0.2035
  766POPS   C1B12027   1.949  17.705   6.365  0.3243  0.1235 -0.0427
  766POPS   C2B12028   1.891  17.662   6.674 -0.3117  0.2052  0.2617
  766POPS   C3B12029   2.100  17.817   7.025 -0.3030  0.3474  0.0795
  766POPS   C4B12030   2.257  17.882   7.330 -0.0659  0.0428 -0.1195
  767POPS   CNO12031  17.557  10.699   4.723 -0.1688  0.3629  0.0514
  767POPS   PO412032  17.698  10.954   5.115 -0.1069  0.0693 -0.0635
  767POPS   GL112033  17.809  11.043   5.435 -0.0474 -0.2328 -0.0724
  767POPS   GL212034  17.771  11.419   5.401 -0.1710  0.4093 -0.0620
  767POPS   C1A12035  18.173  11.117   5.733 -0.3514 -0.0367 -0.1078
  767POPS   D2A12036  18.307  11.116   6.086 -0.1099 -0.1508 -0.2579
  767POPS   C3A12037  18.391  10.809   6.309  0.2406 -0.0952  0.0655
  767POPS   C4A12038  18.682  10.459   6.365  0.1250  0.0952  0.1395
  767POPS   C1B12039  17.739  11.460   5.858  0.0306  0.0015 -0.1357
  767POPS   C2B12040  17.551  11.518   6.251  0.1482 -0.0671 -0.0361
  767POPS   C3B12041  17.376  11.168   6.440  0.0544  0.4244 -0.2502
  767POPS   C4B12042  17.236  11.199   6.760 -0.3357 -0.0175 -0.2269
  768POPS   CNO12043  18.113  16.678   5.150  0.3025  0.1051  0.3312
  768POPS   PO412044  17.755  17.062   5.133  0.2467  0.2139 -0.0944
  768POPS   GL112045  17.612  17.098   5.497  0.2319 -0.0620 -0.0323
  768POPS   GL212046  17.866  17.212   5.617  0.0161  0.2104 -0.0894
  768POPS   C1A12047  17.315  17.410   5.754  0.0108 -0.1318  0.1074
  768POPS   D2A12048  17.272  17.865   5.750  0.2411  0.0680 -0.2209
  768POPS   C3A12049  17.665  18.017   5.481  0.2057  0.2339  0.0589
  768POPS   C4A12050  17.798  18.263   5.264  0.0974 -0.1843 -0.1691
  768POPS   C1B12051  17.727  17.581   5.896 -0.1459 -0.1616 -0.1568
  768POPS   C2B12052  17.907  17.970   6.005 -0.0943 -0.1074  0.2924
  768POPS   C3B12053  17.998  18.208   6.399  0.0633  0.0649  0.0113
  768POPS   C4B12054  17.727  18.461   6.601 -0.1647 -0.0366  0.1244
  769POPS   CNO12055   0.383   3.874   5.314 -0.0572 -0.0570  0.2381
  769POPS   PO412056   0.354   4.366   5.122 -0.2148 -0.1063 -0.1997
  769POPS   GL112057   0.472   4.326   5.500 -0.4223 -0.1521  0.2480
  769POPS   GL212058   0.639   4.592   5.529 -0.1242 -0.2470  0.0668
  769POPS   C1A12059   0.685   4.294   5.902  0.2894 -0.0474 -0.2270
  769POPS   D2A12060   0.711   4.493   6.276 -0.1658 -0.0078  0.4504
  769POPS   C3A12061   1.091   4.360   6.481  0.1315 -0.2221 -0.0341
  769POPS   C4A12062   1.384   4.074   6.715 -0.1243  0.0095 -0.3731
  769POPS   C1B12063   0.707   4.831   5.776 -0.3449  0.0349  0.1212
  769POPS   C2B12064   0.924   4.955   6.198  0.0141 -0.0387 -0.1458
  769POPS   C3B12065   1.220   4.817   6.553  0.1111  0.0270 -0.1309
  769POPS   C4B12066   1.331   4.929   6.970  0.0162 -0.0290 -0.1081
  770POPS   CNO12067   8.202   0.556   4.926 -0.1853  0.0030  0.1725
  770POPS   PO412068   8.162   0.178   4.870  0.0407 -0.5100 -0.0368
  770POPS   GL112069   7.930   0.307   5.299 -0.1624  0.4677  0.1534
  770POPS   GL212070   7.553   0.296   5.362  0.3170 -0.2750  0.0316
  770POPS   C1A12071   8.082   0.187   5.790  0.2794 -0.1113  0.0875
  770POPS   D2A12072   8.309  -0.194   5.843  0.0880  0.2189 -0.0837
  770POPS   C3A12073   8.049  -0.583   5.801  0.0040 -0.1867 -0.2584
  770POPS   C4A12074   7.747  -0.781   5.664  0.0109 -0.0434 -0.3220
  770POPS   C1B12075   7.464   0.524   5.826 -0.0544  0.2613 -0.1349
  770POPS   C2B12076   7.245   0.608   6.172 -0.2541  0.0842  0.1976
  770POPS   C3B12077   7.205   0.403   6.582 -0.4566  0.0299  0.4219
  770POPS   C4B12078   7.498   0.126   6.877 -0.1718  0.2231  0.0160
  771POPS   CNO12079  16.612   0.717   4.754  0.0773  0.2317 -0.0632
  771POPS   PO412080  16.591   0.376   5.096  0.2945 -0.1390 -0.1996
  771POPS   GL112081  16.538   0.245   5.479 -0.1343  0.1736 -0.0460
  771POPS   GL212082  16.672  -0.083   5.412  0.2273 -0.1563  0.3437
  771POPS   C1A12083  16.620   0.130   5.882  0.2608  0.3458  0.2120
  771POPS   D2A12084  16.833   0.035   6.242 -0.0751 -0.1162 -0.1608
  771POPS   C3A12085  16.817  -0.265   6.559 -0.1471  0.2982  0.2066
  771POPS   C4A12086  17.141  -0.434   6.852  0.1352  0.0566  0.1297
  771POPS   C1B12087  16.538  -0.333   5.691  0.3477 -0.0702  0.1517
  771POPS   C2B12088  16.486  -0.301   6.122  0.0515  0.0758  0.0317
  771POPS   C3B12089  16.296  -0.080   6.508  0.4363  0.3362 -0.3178
  771POPS   C4B12090  16.313  -0.167   6.873  0.0572  0.1405  0.1423
  772POPS   CNO12091   5.109   8.365   5.013  0.1396 -0.0052  0.0388
  772POPS   PO412092   5.477   8.089   5.040  0.1182 -0.2400  0.2540
  772POPS   GL112093   5.558   8.032   5.407 -0.0824 -0.2267 -0.4162
  772POPS   GL212094   5.821   8.210   5.514  0.0713 -0.4123 -0.3315
  772POPS   C1A12095   5.514   7.700   5.681 -0.0323 -0.0455  0.0738
  772POPS   D2A12096   5.362   7.518   5.960 -0.2233  0.1080 -0.1389
  772POPS   C3A12097   5.146   7.516   6.271  0.1156  0.2093  0.2299
  772POPS   C4A12098   5.009   7.760   6.553  0.1637 -0.0254  0.0653
  772POPS   C1B12099   5.621   8.478   5.797 -0.4195 -0.0151 -0.3940
  772POPS   C2B12100   5.517   8.932   5.828 -0.0675  0.1217  0.0827
  772POPS   C3B12101   5.629   9.204   6.295 -0.0385 -0.0815 -0.1760
  772POPS   C4B12102   5.746   9.083   6.770 -0.0047 -0.0105 -0.0312
  773POPS   CNO12103  16.794   7.213   4.836 -0.1656  0.2792  0.1760
  773POPS   PO412104  16.408   7.307   4.967 -0.2170 -0.3272  0.0142
  773POPS   GL112105  16.545   7.187   5.484 -0.2784 -0.0767  0.0080
  773POPS   GL212106  16.554   7.286   5.735  0.2648  0.0075 -0.3608
  773POPS   C1A12107  16.380   6.831   5.861 -0.1002 -0.3010 -0.2726
  773POPS   D2A12108  16.276   6.577   6.142 -0.0224  0.1652  0.0010
  773POPS   C3A12109  16.233   6.783   6.549  0.0250  0.0504 -0.2262
  773POPS   C4A12110  16.134   6.669   7.000  0.0147  0.3338 -0.0466
  773POPS   C1B12111  16.827   7.098   5.966 -0.1369  0.0966  0.0178
  773POPS   C2B12112  16.762   6.912   6.400  0.0695 -0.0097 -0.0495
  773POPS   C3B12113  16.706   6.806   6.880 -0.1293 -0.2134  0.2018
  773POPS   C4B12114  16.594   6.393   7.071 -0.3300 -0.0602 -0.1103
  774POPS   CNO12115   3.364  11.348   4.841 -0.2381  0.1744 -0.2241
  774POPS   PO412116   3.471  11.115   5.205 -0.0617 -0.2998  0.2912
  774POPS   GL112117   3.500  11.019   5.676 -0.0999  0.1445 -0.1172
  774POPS   GL212118   3.147  11.069   5.920  0.1255 -0.0033  0.1934
  774POPS   C1A12119   3.942  10.979   5.955  0.1905 -0.0537 -0.1487
  774POPS   D2A12120   4.057  10.877   6.347  0.3284  0.0250 -0.0545
  774POPS   C3A12121   3.855  10.736   6.691 -0.0465  0.0594  0.1035
  774POPS   C4A12122   3.440  10.531   6.617  0.3403 -0.2308 -0.0852
  774POPS   C1B12123   2.918  11.069   6.288  0.0010 -0.1693  0.2627
  774POPS   C2B12124   2.658  11.218   6.567  0.0009 -0.0037 -0.1435
  774POPS   C3B12125   2.342  11.274   7.006  0.0323  0.2710  0.0430
  774POPS   C4B12126   2.585  11.514   7.373 -0.1197  0.1536  0.1744
  775POPS   CNO12127   8.463  16.103   5.023 -0.1914 -0.3275 -0.0290
  775POPS   PO412128   8.773  15.945   5.231 -0.1740 -0.1095 -0.2263
  775POPS   GL112129   8.974  15.876   5.632 -0.0666 -0.1224 -0.2319
  775POPS   GL212130   9.288  15.748   5.447 -0.0161  0.1267  0.0134
  775POPS   C1A12131   8.744  15.720   6.038  0.1468 -0.1558 -0.0961
  775POPS   D2A12132   8.488  15.394   6.345 -0.0718  0.5004 -0.2639
  775POPS   C3A12133   8.439  15.253   6.682  0.3309  0.1226  0.1493
  775POPS   C4A12134   8.169  15.283   7.128  0.0028 -0.0788  0.1931
  775POPS   C1B12135   9.129  15.328   5.716 -0.0368 -0.0972  0.1228
  775POPS   C2B12136   9.035  15.305   6.137  0.1133  0.2454 -0.3976
  775POPS   C3B12137   8.982  15.322   6.580  0.2279  0.2944 -0.1512
  775POPS   C4B12138   8.705  15.641   6.743 -0.1882  0.0458  0.0856
  776POPS   CNO12139   0.860   3.264   4.799 -0.0439  0.4483  0.0952
  776POPS   PO412140   0.891   3.620   5.077 -0.0357  0.1384 -0.2050
  776POPS   GL112141   1.070   3.508   5.496  0.0365 -0.0136 -0.1555
  776POPS   GL212142   1.284   3.540   5.680  0.0451 -0.1179 -0.1364
  776POPS   C1A12143   0.778   3.495   5.840 -0.3770  0.0373 -0.0417
  776POPS   D2A12144   0.380   3.356   6.031 -0.0750 -0.2061  0.1475
  776POPS   C3A12145   0.121   3.553   6.268 -0.1830  0.1257 -0.0307
  776POPS   C4A12146  -0.006   3.791   6.618 -0.3567 -0.0244 -0.0477
  776POPS   C1B12147   1.312   3.838   6.007  0.1124  0.2345  0.3753
  776POPS   C2B12148   1.718   3.838   6.189  0.0528  0.0208 -0.1511
  776POPS   C3B12149   2.129   3.833   6.252  0.4715 -0.3561  0.2683
  776POPS   C4B12150   2.518   3.759   6.321 -0.0551 -0.1540  0.0416
  777POPS   CNO12151  15.179   0.382   5.127  0.0966  0.1257  0.3105
  777POPS   PO412152  15.117   0.735   4.913  0.2492  0.1577  0.0598
  777POPS   GL112153  14.954   0.972   5.281  0.2139  0.2160 -0.0295
  777POPS   GL212154  14.721   1.075   5.302  0.0400 -0.1683 -0.0484
  777POPS   C1A12155  14.714   0.800   5.726 -0.3359  0.0910  0.1508
  777POPS   D2A12156  14.799   0.972   6.107  0.0748  0.0109  0.5898
  777POPS   C3A12157  14.729   0.778   6.525 -0.0882 -0.2650 -0.0714
  777POPS   C4A12158  14.868   0.906   6.895  0.1656 -0.4177 -0.1711
  777POPS   C1B12159  14.784   1.323   5.710  0.0286  0.1562  0.0040
  777POPS   C2B12160  14.921   1.474   6.082 -0.0342 -0.0926  0.2856
  777POPS   C3B12161  15.043   1.506   6.534  0.0142  0.1476  0.1966
  777POPS   C4B12162  15.316   1.404   6.884  0.0049  0.0543 -0.0338
  778POPS   CNO12163  17.445   3.006   5.152  0.0828  0.2170 -0.1819
  778POPS   PO412164  17.103   2.797   4.840  0.0445  0.2613  0.1635
  778POPS   GL112165  16.901   2.607   5.245 -0.0324 -0.1303 -0.3293
  778POPS   GL212166  16.936   2.964   5.342  0.0738  0.3574 -0.1429
  778POPS   C1A12167  16.839   2.467   5.672  0.2034  0.0092 -0.2167
  778POPS   D2A12168  16.637   2.270   6.012  0.0745  0.1889 -0.0783
  778POPS   C3A12169  16.751   2.484   6.427 -0.0892  0.0894 -0.3260
  778POPS   C4A12170  17.091   2.434   6.794 -0.1712 -0.3020 -0.1118
  778POPS   C1B12171  16.748   2.986   5.784 -0.0754  0.0402  0.0243
  778POPS   C2B12172  16.985   2.902   6.162  0.0635 -0.0306 -0.1047
  778POPS   C3B12173  17.181   2.740   6.419  0.0259  0.0888 -0.1229
  778POPS   C4B12174  17.490   2.456   6.450 -0.0956  0.0119  0.4616
  779POPS   CNO12175   2.763  15.011   5.258  0.0005  0.0306  0.1774
  779POPS   PO412176   2.312  15.140   5.105  0.0311 -0.1148  0.1886
  779POPS   GL112177   1.899  15.255   5.349  0.2868  0.1610  0.1065
  779POPS   GL212178   1.583  15.001   5.336  0.0699  0.1629 -0.1636
  779POPS   C1A12179   1.494  15.428   5.527 -0.2302 -0.0116  0.0025
  779POPS   D2A12180   1.278  15.696   5.626 -0.2293 -0.1900 -0.4160
  779POPS   C3A12181   1.582  15.895   5.831 -0.3115 -0.1971  0.0038
  779POPS   C4A12182   1.962  16.194   5.938  0.0140 -0.0738 -0.2222
  779POPS   C1B12183   1.524  14.976   5.693 -0.1447 -0.0103  0.1457
  779POPS   C2B12184   1.386  14.900   6.079 -0.2131  0.2413  0.0887
  779POPS   C3B12185   1.365  14.603   6.385 -0.3734  0.0058 -0.4725
  779POPS   C4B12186   1.465  14.356   6.780 -0.0202 -0.1221  0.0713
  780POPS   CNO12187  19.775  18.409   4.753  0.0725  0.0722 -0.3750
  780POPS   PO412188  19.497  18.609   5.097 -0.2786 -0.1686 -0.0793
  780POPS   GL112189  19.736  18.559   5.495 -0.1832  0.0765 -0.1253
  780POPS   GL212190  20.029  18.397   5.560  0.0760 -0.3630 -0.1790
  780POPS   C1A12191  19.505  18.291   5.841 -0.1795  0.1371  0.3763
  780POPS   D2A12192  19.404  18.223   6.362 -0.1317 -0.1599 -0.1629
  780POPS   C3A12193  19.405  17.789   6.569  0.0912  0.2477 -0.1005
  780POPS   C4A12194  19.278  17.343   6.809 -0.1327  0.1084 -0.2135
  780POPS   C1B12195  19.984  18.166   5.924 -0.0706 -0.0087 -0.0025
  780POPS   C2B12196  20.196  17.987   6.294 -0.1076  0.0784 -0.1730
  780POPS   C3B12197  19.972  17.999   6.697 -0.2079 -0.2572  0.0001
  780POPS   C4B12198  19.741  18.095   7.023  0.0117 -0.0927 -0.3791
  781POPS   CNO12199   4.832   7.465   4.809 -0.2493  0.2173  0.0779
  781POPS   PO412200   4.566   7.200   5.036 -0.0562  0.1116 -0.0704
  781POPS   GL112201   4.508   7.047   5.452 -0.1636 -0.0630 -0.2400
  781POPS   GL212202   4.815   6.813   5.476  0.0806 -0.2616 -0.1180
  781POPS   C1A12203   4.435   7.198   5.784  0.2395  0.1488  0.2126
  781POPS   D2A12204   4.284   7.126   6.107  0.1389  0.2082 -0.0598
  781POPS   C3A12205   4.292   7.027   6.579  0.1465 -0.0153 -0.0557
  781POPS   C4A12206   4.098   6.747   6.766  0.1458  0.3617  0.0888
  781POPS   C1B12207   4.854   6.892   5.829  0.2180  0.0263 -0.2118
  781POPS   C2B12208   4.801   7.181   6.110  0.3963 -0.0131 -0.0459
  781POPS   C3B12209   4.637   7.380   6.388  0.0799  0.3466  0.0534
  781POPS   C4B12210   4.597   7.596   6.807  0.0873  0.0577  0.0718
  782POPS   CNO12211  18.963   4.251   4.731  0.2914  0.2816  0.0163
  782POPS   PO412212  19.282   4.141   5.003 -0.0723 -0.0716 -0.2936
  782POPS   GL112213  19.208   4.072   5.393 -0.3746  0.0032 -0.2406
  782POPS   GL212214  18.949   4.289   5.545  0.0258  0.0289 -0.1512
  782POPS   C1A12215  19.117   4.116   6.017 -0.2328 -0.1990 -0.0396
  782POPS   D2A12216  19.109   4.010   6.465  0.0940  0.1045 -0.1388
  782POPS   C3A12217  18.961   4.409   6.810 -0.0673  0.1469 -0.1727
  782POPS   C4A12218  18.769   4.809   7.081 -0.0156  0.0627  0.2718
  782POPS   C1B12219  18.717   4.525   5.846  0.0553 -0.0995 -0.0209
  782POPS   C2B12220  18.448   4.687   6.086  0.0535 -0.0534  0.1885
  782POPS   C3B12221  18.173   4.934   6.421 -0.0827  0.0280  0.2325
  782POPS   C4B12222  18.234   5.021   6.891  0.2731  0.1460 -0.2475
  783POPS   CNO12223  11.460   3.286   4.595 -0.1541  0.0858  0.2302
  783POPS   PO412224  11.426   3.286   5.004  0.2549 -0.2824 -0.1106
  783POPS   GL112225  10.959   3.180   5.141 -0.1697 -0.0267 -0.1968
  783POPS   GL212226  10.918   2.824   5.191 -0.0326  0.2374 -0.1699
  783POPS   C1A12227  10.518   3.296   5.405 -0.2737  0.2504 -0.1647
  783POPS   D2A12228  10.091   3.426   5.596  0.0284  0.3473 -0.0799
  783POPS   C3A12229   9.645   3.151   5.658 -0.3643  0.0257 -0.0106
  783POPS   C4A12230   9.362   2.979   6.023 -0.0227 -0.2490 -0.2212
  783POPS   C1B12231  10.979   3.012   5.617 -0.2146  0.4383  0.1325
  783POPS   C2B12232  10.844   3.369   5.878 -0.0632 -0.2739  0.0801
  783POPS   C3B12233  10.998   3.228   6.307  0.0856 -0.0351 -0.1228
  783POPS   C4B12234  11.277   3.018   6.561 -0.3657  0.3064 -0.1829
  784POPS   CNO12235  12.667   6.567   4.820 -0.2785 -0.0281  0.2982
  784POPS   PO412236  12.395   6.321   5.145 -0.0260  0.1337  0.1657
  784POPS   GL112237  12.444   6.229   5.481 -0.1488  0.1362 -0.0188
  784POPS   GL212238  12.439   5.924   5.558  0.1442  0.0248 -0.1903
  784POPS   C1A12239  12.415   6.502   5.906 -0.2481 -0.2837  0.1456
  784POPS   D2A12240  12.706   6.595   6.231 -0.2915 -0.0659 -0.0577
  784POPS   C3A12241  12.905   6.892   6.525  0.0086  0.1725 -0.2884
  784POPS   C4A12242  13.024   7.007   6.913  0.0060  0.1834  0.3383
  784POPS   C1B12243  12.437   5.640   5.837 -0.1312  0.2808  0.1119
  784POPS   C2B12244  12.120   5.481   6.135 -0.0713  0.1651  0.0215
  784POPS   C3B12245  11.777   5.398   6.339  0.0061 -0.3846  0.2053
  784POPS   C4B12246  11.259   5.385   6.466 -0.0298 -0.0434 -0.0027
  785POPS   CNO12247  17.536  12.335   4.909 -0.4381  0.0119 -0.1437
  785POPS   PO412248  17.968  12.476   5.069 -0.0692 -0.0026 -0.0989
  785POPS   GL112249  17.702  12.679   5.350 -0.1149  0.0215  0.1001
  785POPS   GL212250  17.866  12.920   5.312 -0.1216 -0.1250 -0.0033
  785POPS   C1A12251  17.666  12.561   5.766  0.0573 -0.0357 -0.1078
  785POPS   D2A12252  17.838  12.416   6.181  0.0704  0.1223 -0.1506
  785POPS   C3A12253  17.994  12.748   6.462  0.0721 -0.1597 -0.2101
  785POPS   C4A12254  18.190  12.856   6.950 -0.1550 -0.0688 -0.1552
  785POPS   C1B12255  18.103  12.783   5.722  0.3012  0.3100 -0.1313
  785POPS   C2B12256  18.331  12.715   6.060 -0.2714 -0.3884  0.2462
  785POPS   C3B12257  18.532  12.591   6.552 -0.2306  0.0815 -0.1891
  785POPS   C4B12258  18.918  12.403   6.802  0.1760 -0.0592  0.3405
  786POPS   CNO12259   0.693   0.483   4.373 -0.1785  0.0247  0.2226
  786POPS   PO412260   0.713   0.450   4.793  0.3352  0.0654 -0.2363
  786POPS   GL112261   0.873   0.784   5.067 -0.1775  0.1950 -0.2159
  786POPS   GL212262   1.170   0.890   5.323 -0.1106 -0.3374 -0.0708
  786POPS   C1A12263   0.655   1.134   5.360 -0.0201  0.0127  0.2984
  786POPS   D2A12264   0.603   1.256   5.835  0.0405  0.0776 -0.2262
  786POPS   C3A12265   0.665   1.231   6.214 -0.0723  0.0463  0.1544
  786POPS   C4A12266   0.748   1.168   6.626 -0.0762 -0.1810 -0.4336
  786POPS   C1B12267   1.118   1.143   5.739 -0.1627 -0.0653  0.0341
  786POPS   C2B12268   1.154   1.049   6.125 -0.1285  0.1379 -0.1558
  786POPS   C3B12269   1.283   1.019   6.403  0.1060 -0.2611  0.3665
  786POPS   C4B12270   1.170   0.794   6.774  0.5176 -0.2003 -0.0434
  787POPS   CNO12271   0.072   5.803   5.244  0.1075 -0.1508 -0.2587
  787POPS   PO412272   0.426   6.000   5.188 -0.2850  0.0519  0.0127
  787POPS   GL112273   0.487   6.077   5.580 -0.2069  0.1462 -0.2874
  787POPS   GL212274   0.199   6.058   5.759 -0.2379 -0.1128  0.2993
  787POPS   C1A12275   0.772   5.742   5.740 -0.0715  0.3236 -0.2026
  787POPS   D2A12276   0.910   5.396   6.019  0.2392 -0.1843 -0.0510
  787POPS   C3A12277   1.154   5.407   6.444  0.0208  0.0822  0.0605
  787POPS   C4A12278   1.057   5.509   6.909 -0.2472  0.0096 -0.1271
  787POPS   C1B12279   0.355   5.813   6.034  0.1984 -0.0748 -0.0147
  787POPS   C2B12280   0.695   5.718   6.358  0.0098  0.2122  0.2662
  787POPS   C3B12281   0.592   5.589   6.766 -0.0130  0.2290  0.1794
  787POPS   C4B12282   0.742   5.691   7.192  0.1111 -0.1608 -0.2078
  788POPS   CNO12283  17.962   3.183   5.339  0.4319  0.0242  0.2446
  788POPS   PO412284  17.654   3.446   5.146 -0.2233 -0.0217  0.1304
  788POPS   GL112285  17.620   3.630   5.562 -0.0613 -0.1425  0.0866
  788POPS   GL212286  17.928   3.454   5.736 -0.0031 -0.1722  0.2078
  788POPS   C1A12287  17.612   3.761   5.955 -0.3239 -0.1551 -0.2909
  788POPS   D2A12288  17.726   4.024   6.178 -0.1072  0.0371 -0.0643
  788POPS   C3A12289  17.644   3.996   6.665 -0.1297  0.4279  0.1043
  788POPS   C4A12290  17.297   4.174   6.811  0.3329  0.0811 -0.1020
  788POPS   C1B12291  17.780   3.191   6.114 -0.2568 -0.0350 -0.3363
  788POPS   C2B12292  17.898   2.950   6.480 -0.1324 -0.1127 -0.1035
  788POPS   C3B12293  17.952   2.460   6.548  0.1743  0.2234 -0.1107
  788POPS   C4B12294  18.068   2.105   6.668 -0.4665  0.0924 -0.1595
  789POPS   CNO12295  15.014   3.795   4.777 -0.1903 -0.0768 -0.0348
  789POPS   PO412296  15.324   3.825   5.076  0.1189  0.1787  0.2224
  789POPS   GL112297  15.053   3.814   5.300  0.1295  0.2129 -0.1834
  789POPS   GL212298  14.934   3.461   5.410  0.2919 -0.0119 -0.0100
  789POPS   C1A12299  14.802   3.943   5.698  0.3847  0.1645  0.2456
  789POPS   D2A12300  14.377   3.837   5.934 -0.1258  0.0126 -0.1499
  789POPS   C3A12301  14.292   4.006   6.390 -0.0260 -0.1132  0.0782
  789POPS   C4A12302  14.176   4.201   6.745 -0.0918  0.2305  0.0861
  789POPS   C1B12303  14.817   3.455   5.842 -0.2222  0.2869 -0.3557
  789POPS   C2B12304  14.769   3.334   6.285 -0.3004  0.0895 -0.0809
  789POPS   C3B12305  14.351   3.310   6.572  0.1074  0.2828  0.0389
  789POPS   C4B12306  14.045   3.256   6.897  0.0071 -0.1921 -0.2289
  790POPS   CNO12307   3.734   3.259   5.172 -0.1392  0.0879 -0.3715
  790POPS   PO412308   4.133   3.223   5.077 -0.0383 -0.0371  0.1287
  790POPS   GL112309   4.162   3.499   5.463  0.0077 -0.2230  0.0655
  790POPS   GL212310   3.842   3.733   5.395 -0.1067 -0.0587  0.0089
  790POPS   C1A12311   4.382   3.696   5.835 -0.0312 -0.1042 -0.2652
  790POPS   D2A12312   4.463   4.102   5.925 -0.1909 -0.1447 -0.0154
  790POPS   C3A12313   4.159   4.277   6.190 -0.0974 -0.0788 -0.2106
  790POPS   C4A12314   3.807   4.399   6.446  0.1876 -0.0334 -0.4929
  790POPS   C1B12315   3.970   4.001   5.729  0.1138  0.1598 -0.0727
  790POPS   C2B12316   3.832   4.432   5.849 -0.1999 -0.0092 -0.0421
  790POPS   C3B12317   3.590   4.841   5.910 -0.3993  0.0236 -0.1999
  790POPS   C4B12318   3.640   5.282   6.009  0.0089  0.5803 -0.0786
  791POPS   CNO12319  18.848   1.976   4.756  0.0883 -0.2594 -0.3894
  791POPS   PO412320  18.882   2.294   4.996  0.0923 -0.1812 -0.0559
  791POPS   GL112321  18.886   1.983   5.318  0.1211  0.1172 -0.0352
  791POPS   GL212322  18.920   1.673   5.282 -0.3601 -0.4601 -0.0135
  791POPS   C1A12323  19.075   1.954   5.662  0.0015 -0.0859 -0.1464
  791POPS   D2A12324  19.035   1.921   6.029  0.1828 -0.0493  0.0473
  791POPS   C3A12325  19.182   1.524   6.410  0.4429 -0.0493 -0.1679
  791POPS   C4A12326  19.284   1.226   6.637 -0.1921  0.0006 -0.0825
  791POPS   C1B12327  18.637   1.799   5.694 -0.0259  0.0286 -0.1168
  791POPS   C2B12328  18.536   2.045   5.977  0.3370  0.1692 -0.0636
  791POPS   C3B12329  18.513   2.053   6.396 -0.0370 -0.0346  0.0474
  791POPS   C4B12330  18.867   1.897   6.628  0.2724  0.0158 -0.1843
  792POPS   CNO12331  13.227   3.984   4.911 -0.0857  0.1883 -0.1246
  792POPS   PO412332  13.128   3.596   4.647 -0.0502 -0.1217  0.0262
  792POPS   GL112333  12.860   3.590   5.086  0.0116 -0.0948 -0.1241
  792POPS   GL212334  12.888   3.812   5.252  0.1393  0.2372  0.0735
  792POPS   C1A12335  12.973   3.289   5.392  0.1877 -0.1527  0.0912
  792POPS   D2A12336  13.306   3.130   5.761  0.0132  0.0151 -0.1192
  792POPS   C3A12337  13.052   2.923   6.032 -0.0991  0.0612  0.0012
  792POPS   C4A12338  12.673   2.797   6.198  0.1657 -0.0565 -0.0702
  792POPS   C1B12339  12.669   3.804   5.669  0.1959  0.0406  0.2190
  792POPS   C2B12340  12.930   3.910   6.053  0.0231  0.0098 -0.1719
  792POPS   C3B12341  13.056   3.808   6.469  0.3545  0.1205 -0.2313
  792POPS   C4B12342  12.858   3.984   6.936 -0.0957 -0.0469 -0.2040
  793POPS   CNO12343   0.853   7.714   5.003 -0.1519  0.0568 -0.1557
  793POPS   PO412344   1.077   7.366   5.279  0.1820  0.0809  0.0907
  793POPS   GL112345   1.024   7.680   5.556 -0.2344 -0.0905  0.0748
  793POPS   GL212346   0.862   7.927   5.427  0.0225  0.3169 -0.0411
  793POPS   C1A12347   1.314   8.006   5.804 -0.0385 -0.3679  0.1037
  793POPS   D2A12348   1.754   8.108   6.040 -0.0470 -0.1642  0.0024
  793POPS   C3A12349   1.658   8.225   6.478 -0.0049 -0.1399 -0.0428
  793POPS   C4A12350   1.678   8.380   6.951 -0.1180 -0.0143 -0.0064
  793POPS   C1B12351   0.570   7.842   5.807 -0.1938 -0.2452 -0.1020
  793POPS   C2B12352   0.263   7.632   6.105 -0.0052  0.0372 -0.0064
  793POPS   C3B12353   0.013   7.816   6.331  0.0095  0.0484 -0.0348
  793POPS   C4B12354  -0.174   7.833   6.709  0.0366 -0.3166 -0.1626
  794POPS   CNO12355   4.647  12.428   5.133 -0.0857 -0.0811  0.1053
  794POPS   PO412356   4.477  12.094   5.310 -0.3591  0.0901 -0.0502
  794POPS   GL112357   4.691  12.121   5.712  0.0455 -0.0264  0.0871
  794POPS   GL212358   4.983  11.950   5.728 -0.0022 -0.0300 -0.1664
  794POPS   C1A12359   4.777  12.099   6.200  0.0864  0.2159  0.2314
  794POPS   D2A12360   4.926  11.931   6.554  0.2586 -0.0383 -0.2480
  794POPS   C3A12361   4.871  12.171   7.045 -0.0964  0.1228 -0.0346
  794POPS   C4A12362   4.702  12.413   7.369 -0.2120 -0.0556  0.1659
  794POPS   C1B12363   5.094  11.697   6.125 -0.1317  0.0258  0.0311
  794POPS   C2B12364   5.344  11.929   6.381  0.2093  0.1104  0.2025
  794POPS   C3B12365   5.706  11.951   6.657 -0.0080 -0.1446 -0.1154
  794POPS   C4B12366   5.970  12.311   6.809  0.0705  0.1799 -0.0416
  795POPS   CNO12367   6.547  11.801   4.837  0.0700 -0.1278  0.0369
  795POPS   PO412368   6.652  11.967   5.172 -0.4001 -0.3862 -0.2939
  795POPS   GL112369   6.497  11.786   5.559  0.0746 -0.0174 -0.1124
  795POPS   GL212370   6.484  12.128   5.713 -0.1872 -0.5506  0.3855
  795POPS   C1A12371   6.212  11.685   5.930 -0.1042  0.1281  0.3307
  795POPS   D2A12372   5.756  11.619   6.216  0.0969 -0.0351  0.3070
  795POPS   C3A12373   5.862  11.404   6.624 -0.1308 -0.0050 -0.2101
  795POPS   C4A12374   5.879  10.935   6.887 -0.0812 -0.0466 -0.0633
  795POPS   C1B12375   6.773  12.133   6.018  0.2037 -0.1626  0.2257
  795POPS   C2B12376   6.934  12.267   6.411 -0.0961  0.0398 -0.3005
  795POPS   C3B12377   7.041  12.242   6.774 -0.2394 -0.1915 -0.1677
  795POPS   C4B12378   7.328  11.997   7.020 -0.0890 -0.1119  0.3790
  796POPS   CNO12379  10.520   1.547   5.204  0.1261  0.3716  0.2332
  796POPS   PO412380  10.195   1.597   5.170  0.0061 -0.1482  0.2535
  796POPS   GL112381  10.174   1.640   5.570 -0.0034 -0.0690 -0.3302
  796POPS   GL212382   9.968   1.941   5.582 -0.0836 -0.2575  0.0801
  796POPS   C1A12383  10.167   1.626   5.997  0.3399 -0.1629  0.1260
  796POPS   D2A12384  10.145   1.818   6.411 -0.0655  0.2314  0.4572
  796POPS   C3A12385  10.507   1.804   6.653  0.0497  0.3638 -0.3000
  796POPS   C4A12386  10.630   1.894   7.084 -0.5593  0.0392  0.1774
  796POPS   C1B12387   9.970   2.071   5.910  0.0694 -0.2437 -0.2250
  796POPS   C2B12388   9.950   2.253   6.306  0.1789 -0.1636  0.1444
  796POPS   C3B12389   9.919   2.359   6.621  0.1846  0.0699  0.3067
  796POPS   C4B12390   9.574   2.282   6.798  0.2727 -0.0243 -0.3730
  797POPS   CNO12391  14.308  17.668   5.208 -0.2422 -0.1799 -0.0727
  797POPS   PO412392  14.183  18.090   5.261  0.1652  0.0217  0.1156
  797POPS   GL112393  14.321  18.224   5.598  0.0754  0.1285  0.1036
  797POPS   GL212394  14.250  18.625   5.507  0.1732  0.0027  0.2399
  797POPS   C1A12395  14.369  18.292   6.041  0.2226  0.0487 -0.1510
  797POPS   D2A12396  14.543  18.305   6.449 -0.0036 -0.3722 -0.2427
  797POPS   C3A12397  14.455  18.472   6.913  0.0902 -0.0440  0.0706
  797POPS   C4A12398  14.042  18.509   7.084  0.4889  0.0048 -0.3787
  797POPS   C1B12399  13.966  18.777   5.874 -0.1366 -0.2224 -0.1206
  797POPS   C2B12400  13.871  18.973   6.297 -0.0505  0.1964  0.0219
  797POPS   C3B12401  13.712  19.076   6.735 -0.0263  0.0049  0.1221
  797POPS   C4B12402  13.786  19.375   7.137  0.1398  0.1397 -0.0085
  798POPS   CNO12403  11.651  16.094   4.800 -0.0850 -0.0552  0.2685
  798POPS   PO412404  11.870  16.153   5.159  0.0826 -0.4085  0.2938
  798POPS   GL112405  11.712  16.321   5.629  0.1977 -0.0678 -0.2841
  798POPS   GL212406  11.342  16.394   5.689 -0.1210 -0.0662 -0.2825
  798POPS   C1A12407  11.678  16.592   6.007  0.0754  0.3306 -0.2784
  798POPS   D2A12408  11.828  16.612   6.324  0.0966  0.0086 -0.0756
  798POPS   C3A12409  11.845  16.895   6.662 -0.0607  0.1189  0.1779
  798POPS   C4A12410  12.007  17.308   6.778  0.1376  0.0373 -0.1237
  798POPS   C1B12411  11.218  16.386   6.140 -0.0815  0.1614  0.1995
  798POPS   C2B12412  11.197  16.409   6.516  0.0994 -0.2723 -0.1320
  798POPS   C3B12413  11.283  16.311   7.007  0.3217  0.0912 -0.3545
  798POPS   C4B12414  11.457  16.412   7.415 -0.2915 -0.0217 -0.1927
  799POPS   CNO12415   4.231  17.496   5.102  0.0084  0.4786  0.1769
  799POPS   PO412416   3.812  17.639   4.907  0.0861  0.1732 -0.4991
  799POPS   GL112417   3.894  17.779   5.357 -0.1594 -0.0820 -0.0346
  799POPS   GL212418   3.895  18.104   5.355 -0.1268 -0.2234  0.0544
  799POPS   C1A12419   3.855  17.636   5.789 -0.2146 -0.3337  0.1856
  799POPS   D2A12420   4.033  17.449   6.059 -0.0646 -0.0540  0.1271
  799POPS   C3A12421   4.471  17.365   6.041  0.2268  0.1624  0.2333
  799POPS   C4A12422   4.704  17.005   6.222  0.2468 -0.2031 -0.0129
  799POPS   C1B12423   4.115  18.087   5.793  0.0728 -0.0683  0.0335
  799POPS   C2B12424   4.295  17.882   6.013  0.1076  0.1024  0.1455
  799POPS   C3B12425   4.290  17.779   6.466 -0.3910 -0.2600 -0.2754
  799POPS   C4B12426   4.333  18.139   6.732 -0.1542 -0.3112  0.1864
  800POPS   CNO12427  17.017  19.471   4.748  0.3569 -0.2348  0.1095
  800POPS   PO412428  17.460  19.539   4.899  0.3188  0.0274  0.0848
  800POPS   GL112429  17.412  19.527   5.302  0.0615  0.1075 -0.1888
  800POPS   GL212430  17.147  19.649   5.303 -0.1476 -0.2118  0.2500
  800POPS   C1A12431  17.587  19.790   5.689  0.3897 -0.0216 -0.0768
  800POPS   D2A12432  17.814  19.898   5.942 -0.4136  0.1631 -0.0619
  800POPS   C3A12433  17.864  19.704   6.380 -0.2519 -0.3337  0.0360
  800POPS   C4A12434  17.593  19.424   6.609 -0.0583  0.0025  0.3543
  800POPS   C1B12435  17.085  19.769   5.711  0.0409  0.1420 -0.2073
  800POPS   C2B12436  17.302  19.951   6.086  0.2333  0.0859  0.1746
  800POPS   C3B12437  17.265  19.813   6.466 -0.1165 -0.1583  0.2237
  800POPS   C4B12438  17.198  20.011   6.803  0.0595 -0.1558 -0.0594
  801POPS   CNO12439   4.655  15.039   5.497  0.0385 -0.1391 -0.1073
  801POPS   PO412440   4.356  15.423   5.313  0.1320  0.1707  0.1193
  801POPS   GL112441   4.258  15.281   5.695 -0.1260  0.0394 -0.0032
  801POPS   GL212442   3.903  15.253   5.731 -0.0871 -0.0261 -0.0767
  801POPS   C1A12443   4.515  15.130   5.975 -0.1339  0.0484  0.1707
  801POPS   D2A12444   4.552  14.968   6.388 -0.0383  0.1854 -0.0110
  801POPS   C3A12445   4.570  15.126   6.826 -0.1296 -0.0980  0.2105
  801POPS   C4A12446   4.429  15.496   6.969 -0.1350 -0.3782 -0.0664
  801POPS   C1B12447   4.141  15.350   6.139 -0.1145 -0.0183  0.1631
  801POPS   C2B12448   4.227  15.370   6.526  0.1645 -0.2343  0.2515
  801POPS   C3B12449   3.991  15.202   6.856 -0.1865  0.2760  0.1753
  801POPS   C4B12450   3.801  15.267   7.218 -0.0593 -0.0147 -0.1508
  802POPS   CNO12451  19.869  14.845   4.648  0.0388 -0.2416  0.0802
  802POPS   PO412452  19.686  14.899   4.937  0.0624  0.1944 -0.0533
  802POPS   GL112453  19.466  14.841   5.243 -0.3332  0.0858  0.1512
  802POPS   GL212454  19.505  14.586   5.514 -0.0909  0.0214 -0.1757
  802POPS   C1A12455  19.154  14.869   5.635  0.1535  0.5029  0.0309
  802POPS   D2A12456  19.277  14.911   5.961 -0.1216  0.0075  0.1228
  802POPS   C3A12457  18.991  15.011   6.291  0.3213  0.1353  0.2469
  802POPS   C4A12458  18.611  15.174   6.494  0.0296 -0.2390 -0.1313
  802POPS   C1B12459  19.534  14.471   5.881  0.0229 -0.0452  0.3114
  802POPS   C2B12460  19.435  14.611   6.315  0.1359  0.0517 -0.0032
  802POPS   C3B12461  19.555  14.745   6.719 -0.0763  0.2525  0.3947
  802POPS   C4B12462  19.817  14.706   7.096 -0.0554  0.0989 -0.1112
  803POPS   CNO12463   1.058  19.104   4.919  0.1876  0.2548  0.0103
  803POPS   PO412464   0.727  18.828   4.961 -0.0084 -0.1292 -0.1591
  803POPS   GL112465   0.585  18.734   5.422  0.1358  0.2954 -0.0438
  803POPS   GL212466   0.499  19.028   5.517 -0.1383  0.1182  0.0457
  803POPS   C1A12467   0.781  18.618   5.822 -0.2081  0.0196 -0.1087
  803POPS   D2A12468   1.011  18.396   6.238 -0.0039  0.2071 -0.0047
  803POPS   C3A12469   1.071  18.426   6.638 -0.1336 -0.3214  0.2659
  803POPS   C4A12470   0.865  18.304   6.918 -0.0234 -0.2433  0.0829
  803POPS   C1B12471   0.524  19.044   6.018 -0.0163  0.0947 -0.0084
  803POPS   C2B12472   0.405  19.068   6.520  0.0380 -0.2669  0.0713
  803POPS   C3B12473   0.480  19.103   6.969  0.1877 -0.3070  0.0484
  803POPS   C4B12474   0.878  19.212   7.222 -0.0052  0.1430  0.0949
  804POPS   CNO12475  15.459   4.521   4.747 -0.3495  0.1279 -0.2150
  804POPS   PO412476  15.532   4.915   4.801 -0.2400 -0.2571 -0.1579
  804POPS   GL112477  15.494   4.829   5.297  0.0737  0.2585 -0.2823
  804POPS   GL212478  15.275   4.721   5.438 -0.0236 -0.1582  0.0485
  804POPS   C1A12479  15.665   4.694   5.741  0.2141  0.0598 -0.1295
  804POPS   D2A12480  15.828   4.502   6.084  0.2543  0.0553  0.0739
  804POPS   C3A12481  15.892   4.575   6.343 -0.0497 -0.4431  0.0345
  804POPS   C4A12482  15.795   4.335   6.713  0.0035 -0.2402  0.0969
  804POPS   C1B12483  15.388   5.117   5.721  0.1406 -0.0267  0.3112
  804POPS   C2B12484  15.557   5.017   6.101 -0.3468  0.2991  0.0276
  804POPS   C3B12485  15.661   5.020   6.510  0.2983 -0.1322 -0.0244
  804POPS   C4B12486  15.665   4.776   6.911 -0.2867  0.1232 -0.1846
  805POPS   CNO12487   3.343  12.458   5.503 -0.1891 -0.0479 -0.0339
  805POPS   PO412488   3.421  12.163   5.207  0.0575 -0.1441  0.0666
  805POPS   GL112489   3.572  11.933   5.517  0.1400 -0.0679  0.1288
  805POPS   GL212490   3.586  11.597   5.477  0.2649  0.1408 -0.0280
  805POPS   C1A12491   3.232  11.801   5.836  0.0743 -0.0753  0.0524
  805POPS   D2A12492   3.234  11.472   6.213  0.1663 -0.0441 -0.0414
  805POPS   C3A12493   3.063  11.535   6.704 -0.1594 -0.0676 -0.0884
  805POPS   C4A12494   2.753  11.773   6.920  0.1867  0.2021  0.2265
  805POPS   C1B12495   3.630  11.477   5.910  0.0152  0.0564 -0.1269
  805POPS   C2B12496   3.633  11.716   6.233  0.2579  0.2118  0.0232
  805POPS   C3B12497   3.712  12.069   6.412  0.2877 -0.1050 -0.0317
  805POPS   C4B12498   3.528  12.493   6.430 -0.0303  0.1969 -0.4701
  806POPS   CNO12499   8.635  13.106   5.048 -0.3647 -0.1160 -0.0465
  806POPS   PO412500   8.385  13.095   5.404  0.2448 -0.0857  0.3426
  806POPS   GL112501   8.220  13.324   5.727  0.2357  0.3247 -0.0204
  806POPS   GL212502   7.897  13.508   5.795 -0.0135  0.0945 -0.2636
  806POPS   C1A12503   8.308  13.600   6.108 -0.1655 -0.2644 -0.2446
  806POPS   D2A12504   8.604  13.791   6.381 -0.0478  0.0660 -0.0697
  806POPS   C3A12505   8.895  14.113   6.176 -0.1074  0.0121 -0.0812
  806POPS   C4A12506   8.948  14.392   5.847  0.4985 -0.3803  0.1327
  806POPS   C1B12507   7.920  13.153   6.089 -0.1224 -0.4542 -0.0777
  806POPS   C2B12508   8.145  12.889   6.089  0.1953 -0.2871 -0.0544
  806POPS   C3B12509   8.292  12.557   6.338 -0.1611 -0.1404  0.2566
  806POPS   C4B12510   8.533  12.199   6.369 -0.0737 -0.2207  0.2694
  807POPS   CNO12511  13.233  17.729   5.025 -0.1930  0.0162 -0.0630
  807POPS   PO412512  13.058  17.347   5.216 -0.1434  0.1861  0.3010
  807POPS   GL112513  13.302  17.261   5.640 -0.0702  0.0716  0.1220
  807POPS   GL212514  13.305  16.859   5.748  0.0503 -0.3033  0.2082
  807POPS   C1A12515  13.207  17.098   6.131  0.0593 -0.0516  0.1925
  807POPS   D2A12516  13.195  16.701   6.475 -0.0661 -0.3041 -0.4688
  807POPS   C3A12517  12.815  16.838   6.606  0.0780 -0.1456 -0.0815
  807POPS   C4A12518  12.387  17.027   6.576  0.1799 -0.3183 -0.2045
  807POPS   C1B12519  13.010  16.626   5.912  0.1603 -0.0905  0.0428
  807POPS   C2B12520  12.690  16.787   6.157 -0.0507 -0.1309 -0.0596
  807POPS   C3B12521  12.247  16.789   6.106  0.2234 -0.2950 -0.4062
  807POPS   C4B12522  11.974  17.139   6.279 -0.1231  0.0782  0.0996
  808POPS   CNO12523   2.242  12.268   4.721 -0.3294  0.0215 -0.0228
  808POPS   PO412524   2.090  12.474   5.120  0.0037 -0.2074  0.1824
  808POPS   GL112525   1.927  12.326   5.553 -0.0256 -0.1805 -0.0537
  808POPS   GL212526   1.970  11.973   5.630  0.2638  0.0474 -0.1801
  808POPS   C1A12527   1.713  12.475   5.963 -0.0586  0.1006  0.2272
  808POPS   D2A12528   1.692  12.860   6.249  0.1336 -0.0797  0.1144
  808POPS   C3A12529   1.889  12.989   6.634  0.0655 -0.1138  0.4247
  808POPS   C4A12530   2.116  13.219   6.950  0.1264  0.2122 -0.1419
  808POPS   C1B12531   1.634  11.956   5.972 -0.0152  0.0197  0.5435
  808POPS   C2B12532   1.530  11.795   6.335  0.1329  0.2050 -0.2123
  808POPS   C3B12533   1.426  12.007   6.789 -0.0869 -0.0476 -0.0016
  808POPS   C4B12534   1.669  11.885   7.135  0.1330 -0.0215 -0.1274
  809POPS   CNO12535   3.223  18.562   4.793 -0.1238 -0.2369 -0.1936
  809POPS   PO412536   3.100  18.533   5.172 -0.2352  0.4224 -0.0342
  809POPS   GL112537   3.200  18.753   5.531  0.0723  0.1315 -0.0357
  809POPS   GL212538   3.145  19.124   5.506 -0.1013  0.0820 -0.2726
  809POPS   C1A12539   3.385  18.746   5.957 -0.1789  0.1440  0.0365
  809POPS   D2A12540   3.446  18.923   6.364  0.0392  0.0947  0.1273
  809POPS   C3A12541   3.697  18.682   6.551 -0.1617  0.4529 -0.0597
  809POPS   C4A12542   3.919  18.386   6.850  0.3797  0.0251  0.1990
  809POPS   C1B12543   3.519  19.360   5.870  0.0300  0.1404 -0.1409
  809POPS   C2B12544   3.490  19.422   6.340 -0.0332  0.0974 -0.0447
  809POPS   C3B12545   3.315  19.620   6.684  0.1976  0.1654 -0.1280
  809POPS   C4B12546   3.446  20.075   6.739  0.0908 -0.3264  0.1853
  810POPS   CNO12547   6.600  15.840   4.778 -0.1478  0.2324  0.1595
  810POPS   PO412548   6.470  15.437   4.942  0.3020 -0.0790 -0.2942
  810POPS   GL112549   6.122  15.425   5.359  0.0817 -0.2068  0.0106
  810POPS   GL212550   5.841  15.664   5.303  0.0539  0.0006  0.4183
  810POPS   C1A12551   6.171  15.262   5.843  0.3350  0.0949 -0.0991
  810POPS   D2A12552   6.027  15.353   6.140 -0.2533  0.0839  0.0362
  810POPS   C3A12553   5.748  15.736   5.950 -0.0143 -0.2628 -0.1347
  810POPS   C4A12554   5.852  16.053   5.624  0.1098  0.2386  0.0147
  810POPS   C1B12555   6.251  15.751   5.676 -0.1200 -0.1227 -0.1297
  810POPS   C2B12556   6.241  15.772   6.151 -0.0458  0.0051  0.1530
  810POPS   C3B12557   6.445  15.791   6.558  0.2170  0.4170 -0.0907
  810POPS   C4B12558   6.609  15.715   6.855 -0.2857 -0.1844 -0.1609
  811POPS   CNO12559   9.391  12.700   5.403 -0.0199 -0.2318  0.0029
  811POPS   PO412560   9.115  13.000   5.119  0.0746 -0.1787  0.1252
  811POPS   GL112561   8.872  12.983   5.565 -0.0118  0.0862 -0.0119
  811POPS   GL212562   9.074  12.969   5.831 -0.0349 -0.1689  0.0766
  811POPS   C1A12563   8.654  13.190   5.997 -0.3695  0.1215  0.2360
  811POPS   D2A12564   8.382  13.157   6.398 -0.0876  0.0511  0.0934
  811POPS   C3A12565   8.115  12.998   6.776 -0.0634 -0.0166  0.2321
  811POPS   C4A12566   7.989  13.065   7.191  0.0137 -0.0640 -0.2071
  811POPS   C1B12567   8.953  12.749   6.220 -0.2168  0.2208 -0.0590
  811POPS   C2B12568   8.712  12.836   6.619  0.1936  0.1628  0.1537
  811POPS   C3B12569   8.482  12.566   6.917  0.3250 -0.0441  0.0065
  811POPS   C4B12570   8.372  12.397   7.226 -0.5146  0.2371 -0.1956
  812POPS   CNO12571   7.798  16.721   4.876 -0.1534  0.2529  0.1494
  812POPS   PO412572   7.397  16.909   4.787 -0.0640  0.0944  0.1923
  812POPS   GL112573   7.454  16.801   5.268 -0.1034 -0.1040 -0.1058
  812POPS   GL212574   7.196  17.038   5.585 -0.2241  0.2014 -0.0762
  812POPS   C1A12575   7.394  16.557   5.655  0.3685 -0.1289 -0.1766
  812POPS   D2A12576   7.464  16.422   6.155  0.2808  0.3246 -0.0711
  812POPS   C3A12577   7.315  16.094   6.353 -0.1283  0.0174  0.3401
  812POPS   C4A12578   7.236  15.792   6.250  0.0250  0.0354 -0.1009
  812POPS   C1B12579   7.275  16.986   5.965 -0.2313  0.1111  0.1475
  812POPS   C2B12580   7.399  16.884   6.395 -0.1349 -0.0549  0.1750
  812POPS   C3B12581   7.438  16.590   6.656 -0.0538 -0.0815 -0.1624
  812POPS   C4B12582   7.305  16.311   6.961  0.0621 -0.1451  0.1688
  813POPS   CNO12583   2.273   9.673   5.155 -0.0701 -0.0492 -0.1823
  813POPS   PO412584   2.050   9.420   5.117 -0.2687  0.2119 -0.0083
  813POPS   GL112585   1.612   9.222   5.278  0.4684  0.2363 -0.1134
  813POPS   GL212586   1.491   9.458   5.234  0.1621  0.2991  0.0235
  813POPS   C1A12587   1.561   9.082   5.681 -0.0394 -0.2516  0.0706
  813POPS   D2A12588   1.389   9.039   5.960 -0.1049  0.0100  0.2311
  813POPS   C3A12589   1.317   8.894   6.373 -0.1565 -0.3072  0.2184
  813POPS   C4A12590   1.255   8.448   6.496 -0.0617 -0.4825  0.2653
  813POPS   C1B12591   1.325   9.556   5.553 -0.1751 -0.1297 -0.4331
  813POPS   C2B12592   1.384   9.588   6.001 -0.0324  0.2829 -0.2089
  813POPS   C3B12593   1.462   9.387   6.390 -0.3318  0.2089  0.1134
  813POPS   C4B12594   1.606   9.316   6.831  0.0710 -0.1484 -0.1029
  814YOPS   CNO12595   5.454  11.116   5.194  0.1367  0.0507 -0.0586
  814YOPS   PO412596   5.602  11.024   5.485 -0.0546 -0.0393  0.0479
  814YOPS   GL112597   5.225  11.146   5.631 -0.1425 -0.2335  0.0572
  814YOPS   GL212598   5.372  11.512   5.754 -0.3608  0.0376 -0.1265
  814YOPS   C1A12599   4.888  11.214   6.006  0.1931 -0.0605 -0.5723
  814YOPS   D2A12600   4.819  11.414   6.407  0.1966  0.1140 -0.1072
  814YOPS   C3A12601   4.491  11.326   6.696  0.0434  0.2877  0.2324
  814YOPS   C4A12602   4.375  11.316   7.182 -0.1231  0.0037 -0.0533
  814YOPS   C1B12603   5.377  11.312   6.111  0.2248 -0.1680 -0.0745
  814YOPS   C2B12604   5.362  11.374   6.546  0.2776 -0.1829 -0.1368
  814YOPS   D3B12605   5.156  11.545   6.876  0.0545  0.1813  0.4205
  814YOPS   C4B12606   4.880  11.258   7.056  0.1064 -0.0599  0.0805
  815YOPS   CNO12607  12.756  19.224   5.213 -0.0748  0.1386  0.1782
  815YOPS   PO412608  12.903  19.619   4.971 -0.1140 -0.2183  0.2234
  815YOPS   GL112609  12.885  19.753   5.434  0.1495 -0.2306 -0.0415
  815YOPS   GL212610  12.854  20.019   5.554 -0.0628  0.0819 -0.1164
  815YOPS   C1A12611  13.129  19.594   5.831  0.2279 -0.1362  0.1655
  815YOPS   D2A12612  13.266  19.670   6.280  0.0061 -0.1034 -0.3077
  815YOPS   C3A12613  13.435  19.629   6.687 -0.2646 -0.0399 -0.0034
  815YOPS   C4A12614  13.518  20.042   6.784 -0.2762  0.2386 -0.0605
  815YOPS   C1B12615  12.344  20.032   5.726 -0.1320  0.5162 -0.3607
  815YOPS   C2B12616  12.102  20.232   6.032 -0.2591  0.1691 -0.0255
  815YOPS   D3B12617  11.842  20.316   6.351  0.0734  0.1820 -0.1315
  815YOPS   C4B12618  11.489  20.072   6.070 -0.0268  0.2120  0.2359
  816YOPS   CNO12619   5.631  10.207   5.310 -0.2147 -0.4190  0.0410
  816YOPS   PO412620   5.566   9.959   5.658 -0.0285  0.3813 -0.0151
  816YOPS   GL112621   5.443  10.269   6.006 -0.2500  0.1590  0.2630
  816YOPS   GL212622   5.643  10.559   5.807 -0.0099  0.1974 -0.1821
  816YOPS   C1A12623   5.378  10.279   6.471 -0.0890 -0.1047 -0.0862
  816YOPS   D2A12624   5.060  10.269   6.821 -0.1109  0.0806 -0.1791
  816YOPS   C3A12625   4.798  10.158   6.977 -0.1733  0.0814  0.0886
  816YOPS   C4A12626   4.545  10.221   7.333 -0.3345  0.2185 -0.3494
  816YOPS   C1B12627   5.639  10.869   6.169 -0.0130  0.2243 -0.3350
  816YOPS   C2B12628   5.552  10.897   6.551  0.0539 -0.1321  0.1892
  816YOPS   D3B12629   5.415  11.057   6.939 -0.0304 -0.1666  0.0898
  816YOPS   C4B12630   5.572  10.902   7.294  0.0809  0.2646 -0.3633
  817YOPS   CNO12631   2.304   6.020   4.951  0.3280  0.1924 -0.2281
  817YOPS   PO412632   2.624   6.084   5.242 -0.2429  0.1755  0.0707
  817YOPS   GL112633   2.683   6.093   5.649  0.1374  0.3567 -0.1541
  817YOPS   GL212634   3.024   6.189   5.704  0.2419 -0.2521 -0.1798
  817YOPS   C1A12635   2.677   5.858   6.012  0.3867 -0.1976  0.0945
  817YOPS   D2A12636   2.632   5.753   6.409 -0.4329 -0.0564 -0.0364
  817YOPS   C3A12637   2.898   5.653   6.761 -0.1387 -0.3672 -0.1606
  817YOPS   C4A12638   3.063   5.801   7.080  0.0808 -0.1063  0.1227
  817YOPS   C1B12639   2.902   6.237   6.082 -0.4357 -0.4880 -0.1394
  817YOPS   C2B12640   2.942   6.131   6.464  0.4579 -0.2626 -0.0580
  817YOPS   D3B12641   2.713   6.140   6.917  0.0955 -0.1082 -0.0353
  817YOPS   C4B12642   2.583   5.883   7.251  0.2681  0.1157 -0.0439
  818YOPS   CNO12643  12.908  13.640   5.237 -0.1507 -0.1757  0.1379
  818YOPS   PO412644  12.603  13.456   5.489  0.2636 -0.0381 -0.1961
  818YOPS   GL112645  12.910  13.616   5.754 -0.1267 -0.0098  0.2836
  818YOPS   GL212646  13.129  13.452   5.716 -0.2622 -0.3359 -0.0123
  818YOPS   C1A12647  12.930  13.366   6.161 -0.3209  0.1218 -0.2232
  818YOPS   D2A12648  13.040  13.047   6.378  0.1429 -0.0319  0.0153
  818YOPS   C3A12649  13.235  12.917   6.785  0.0101  0.0847  0.0111
  818YOPS   C4A12650  13.722  12.909   6.842  0.0602  0.3371 -0.0629
  818YOPS   C1B12651  13.420  13.269   6.142 -0.1814 -0.4081 -0.2524
  818YOPS   C2B12652  13.544  12.859   6.252 -0.0413 -0.1038 -0.2393
  818YOPS   D3B12653  13.705  12.393   6.407 -0.2153  0.0249 -0.2002
  818YOPS   C4B12654  13.902  12.429   6.725  0.1188 -0.0526  0.0783
  819YOPS   CNO12655   9.009  18.204   5.386  0.0298  0.0155 -0.1844
  819YOPS   PO412656   8.601  18.064   5.301 -0.0296  0.1968 -0.2236
  819YOPS   GL112657   8.494  18.362   5.637  0.4072  0.1425 -0.2059
  819YOPS   GL212658   8.712  18.617   5.561 -0.0642  0.0502 -0.1816
  819YOPS   C1A12659   8.587  18.690   6.098 -0.0374  0.0556 -0.2168
  819YOPS   D2A12660   8.460  18.797   6.468 -0.2457 -0.1906 -0.1486
  819YOPS   C3A12661   8.539  18.630   6.859 -0.0027  0.0906  0.2325
  819YOPS   C4A12662   8.748  18.120   7.000  0.2185  0.1004  0.1402
  819YOPS   C1B12663   9.037  18.613   5.762 -0.2796  0.0701  0.1505
  819YOPS   C2B12664   9.459  18.543   5.680  0.2512  0.2684  0.1314
  819YOPS   D3B12665   9.842  18.229   5.693 -0.1977  0.0857 -0.0064
  819YOPS   C4B12666  10.213  18.245   5.462  0.0582  0.1635  0.3598
  820YOPS   CNO12667  19.091   3.564   5.047  0.0074  0.1851  0.0159
  820YOPS   PO412668  18.976   3.157   5.225 -0.1270  0.3899 -0.2581
  820YOPS   GL112669  19.254   3.367   5.509  0.0253  0.4800 -0.1934
  820YOPS   GL212670  19.553   3.363   5.443 -0.2182 -0.1414 -0.3145
  820YOPS   C1A12671  19.374   3.315   5.974 -0.3036 -0.3005  0.3152
  820YOPS   D2A12672  19.495   3.275   6.336 -0.0475  0.1318 -0.2850
  820YOPS   C3A12673  19.577   3.225   6.665  0.0419  0.1530  0.1044
  820YOPS   C4A12674  19.916   2.922   6.825  0.1478 -0.0880 -0.1102
  820YOPS   C1B12675  19.796   3.073   5.791  0.0604 -0.3043  0.2063
  820YOPS   C2B12676  19.967   2.988   6.254 -0.1349  0.0409 -0.2938
  820YOPS   D3B12677  20.232   3.183   6.533 -0.1590 -0.1079  0.1120
  820YOPS   C4B12678  20.517   3.512   6.385 -0.0698 -0.1406  0.0792
  821YOPS   CNO12679  11.287  18.058   4.750 -0.0934  0.1027  0.0862
  821YOPS   PO412680  11.029  17.658   4.982  0.0966 -0.0557 -0.3248
  821YOPS   GL112681  10.907  17.796   5.343 -0.0676  0.2511 -0.1884
  821YOPS   GL212682  10.661  18.036   5.355  0.3018 -0.1108  0.0285
  821YOPS   C1A12683  10.709  17.750   5.781 -0.2311 -0.3557  0.1015
  821YOPS   D2A12684  10.647  17.972   6.146  0.1668 -0.1050 -0.2202
  821YOPS   C3A12685  10.895  18.090   6.448 -0.1852 -0.0767 -0.2786
  821YOPS   C4A12686  11.309  18.347   6.638 -0.0362 -0.0324 -0.0210
  821YOPS   C1B12687  10.561  18.318   5.761  0.1961  0.0038 -0.0376
  821YOPS   C2B12688  10.317  18.422   6.132 -0.0062 -0.1970  0.0921
  821YOPS   D3B12689  10.355  18.292   6.583 -0.2631  0.0931 -0.2964
  821YOPS   C4B12690  10.144  18.510   7.014  0.0144 -0.1606 -0.1506
  822YOPS   CNO12691  18.059   4.175   4.824  0.0978 -0.1127  0.0244
  822YOPS   PO412692  17.724   4.533   4.953  0.0291 -0.0426  0.0546
  822YOPS   GL112693  17.501   4.635   5.245 -0.0144  0.0894  0.0190
  822YOPS   GL212694  17.344   4.931   5.163  0.2398 -0.1639  0.3319
  822YOPS   C1A12695  17.510   4.847   5.709  0.0545 -0.1760  0.1172
  822YOPS   D2A12696  17.191   4.940   6.086 -0.0461 -0.0485 -0.0552
  822YOPS   C3A12697  17.117   5.254   6.496  0.1006 -0.0670 -0.1396
  822YOPS   C4A12698  17.194   5.643   6.343  0.1681 -0.0599 -0.0795
  822YOPS   C1B12699  17.277   5.175   5.479 -0.2021  0.2463  0.2845
  822YOPS   C2B12700  17.240   5.440   5.863  0.2380  0.0763  0.2618
  822YOPS   D3B12701  16.911   5.828   5.792 -0.2880  0.1436  0.0981
  822YOPS   C4B12702  16.985   6.291   5.624 -0.2609 -0.2140 -0.2350
  823YOPS   CNO12703  17.593  15.190   4.316 -0.1299 -0.4028  0.1359
  823YOPS   PO412704  17.674  15.370   4.772  0.0966 -0.3794 -0.1394
  823YOPS   GL112705  17.692  15.463   5.187  0.0295  0.2987 -0.3803
  823YOPS   GL212706  17.667  15.194   5.383  0.0530 -0.1663 -0.1808
  823YOPS   C1A12707  17.437  15.662   5.582  0.1031 -0.1234  0.2047
  823YOPS   D2A12708  17.205  15.654   6.002  0.1051 -0.2804 -0.0534
  823YOPS   C3A12709  16.806  15.577   6.282 -0.0261 -0.1046 -0.2164
  823YOPS   C4A12710  16.739  15.821   6.628 -0.0570  0.0982 -0.3176
  823YOPS   C1B12711  17.505  15.220   5.813 -0.1443  0.1318  0.3066
  823YOPS   C2B12712  17.282  15.227   6.228  0.3935  0.2106 -0.1554
  823YOPS   D3B12713  17.057  15.155   6.582  0.1828  0.1572  0.1929
  823YOPS   C4B12714  16.717  15.392   6.823  0.0047 -0.0576 -0.2207
  824YOPS   CNO12715  12.585  13.219   4.996  0.1005 -0.0319 -0.4368
  824YOPS   PO412716  12.386  12.896   5.023  0.1496  0.3888 -0.0594
  824YOPS   GL112717  12.408  12.846   5.425  0.0508 -0.2267 -0.1094
  824YOPS   GL212718  12.544  12.929   5.635 -0.5905  0.0861 -0.0661
  824YOPS   C1A12719  12.080  13.134   5.749  0.0224  0.3689 -0.1296
  824YOPS   D2A12720  11.805  13.380   5.660 -0.2179 -0.0605  0.0530
  824YOPS   C3A12721  11.779  13.721   5.919 -0.0808  0.1345 -0.1678
  824YOPS   C4A12722  12.072  14.050   5.957 -0.1161 -0.1404  0.1693
  824YOPS   C1B12723  12.674  12.733   5.977 -0.3010  0.1659  0.0989
  824YOPS   C2B12724  12.652  12.345   6.244  0.3635 -0.1873 -0.1826
  824YOPS   D3B12725  13.023  12.314   6.458 -0.2904 -0.0244  0.1178
  824YOPS   C4B12726  13.042  11.978   6.765 -0.0750 -0.0179 -0.1646
  825YOPS   CNO12727  12.719  11.129   4.270  0.2035  0.0768  0.1896
  825YOPS   PO412728  12.786  10.887   4.676 -0.1219 -0.1048  0.2259
  825YOPS   GL112729  12.832  11.021   5.127 -0.0593 -0.0844 -0.1874
  825YOPS   GL212730  12.965  10.764   5.203 -0.0221  0.0091  0.2107
  825YOPS   C1A12731  12.804  11.285   5.594 -0.0477  0.0886  0.0864
  825YOPS   D2A12732  12.841  11.142   5.963 -0.5219 -0.1029 -0.1082
  825YOPS   C3A12733  13.138  11.032   6.310 -0.0173 -0.0376 -0.0594
  825YOPS   C4A12734  12.844  11.272   6.645 -0.0236  0.0494 -0.2099
  825YOPS   C1B12735  12.905  10.746   5.580  0.1754 -0.2992 -0.1163
  825YOPS   C2B12736  12.851  10.641   6.032  0.0667  0.0415  0.0916
  825YOPS   D3B12737  13.065  10.422   6.407 -0.0036  0.0567 -0.1692
  825YOPS   C4B12738  12.946   9.990   6.313  0.0496 -0.0634  0.2172
  826YOPS   CNO12739  16.445  18.442   5.251 -0.0290 -0.0522  0.1394
  826YOPS   PO412740  16.213  18.132   5.114  0.2829 -0.1190  0.0031
  826YOPS   GL112741  16.020  18.261   5.496  0.0968  0.2516  0.1495
  826YOPS   GL212742  16.126  18.541   5.620 -0.2164 -0.1110 -0.2991
  826YOPS   C1A12743  15.908  18.168   5.969 -0.0170 -0.0999  0.1683
  826YOPS   D2A12744  15.983  18.089   6.376  0.2056 -0.0890  0.2558
  826YOPS   C3A12745  16.072  18.324   6.679 -0.1303  0.2055  0.2590
  826YOPS   C4A12746  16.068  18.124   7.152  0.0923 -0.1645  0.0962
  826YOPS   C1B12747  15.983  18.717   6.006 -0.0744  0.1131 -0.2250
  826YOPS   C2B12748  15.823  18.552   6.350  0.1059  0.0483  0.0456
  826YOPS   D3B12749  15.559  18.510   6.658 -0.0758  0.2363  0.0875
  826YOPS   C4B12750  15.572  18.102   6.880 -0.0058 -0.2731 -0.0369
  827YOPS   CNO12751  11.123   2.345   4.544  0.0672 -0.2720 -0.2071
  827YOPS   PO412752  11.135   2.462   5.005 -0.0950 -0.0159  0.0335
  827YOPS   GL112753  11.127   2.487   5.437 -0.0467  0.4930 -0.2503
  827YOPS   GL212754  10.999   2.200   5.473  0.2203  0.3411  0.0286
  827YOPS   C1A12755  11.174   2.657   5.880 -0.0855 -0.0766 -0.1067
  827YOPS   D2A12756  10.962   2.727   6.186 -0.2346  0.4861  0.0956
  827YOPS   C3A12757  10.956   2.658   6.639  0.2106 -0.1615  0.2105
  827YOPS   C4A12758  10.846   2.333   6.898  0.0872 -0.0828 -0.0413
  827YOPS   C1B12759  11.133   2.193   5.956  0.0568 -0.1376 -0.0305
  827YOPS   C2B12760  11.216   2.296   6.438 -0.1512  0.0655  0.2471
  827YOPS   D3B12761  11.363   2.203   6.837  0.2637  0.1799 -0.0747
  827YOPS   C4B12762  11.206   2.079   7.246  0.3752 -0.0713  0.0843
  828YOPS   CNO12763  19.192   0.890   5.351 -0.0581  0.0651 -0.0567
  828YOPS   PO412764  18.923   1.171   5.216 -0.1507  0.2232 -0.1806
  828YOPS   GL112765  18.701   0.870   5.468  0.1939 -0.0865 -0.0786
  828YOPS   GL212766  18.465   1.042   5.712 -0.3317 -0.0012  0.1447
  828YOPS   C1A12767  18.597   0.549   5.884  0.1778  0.2953 -0.1898
  828YOPS   D2A12768  18.749   0.112   6.084  0.0966  0.2210 -0.2643
  828YOPS   C3A12769  19.036  -0.157   6.414  0.1623  0.2063  0.0831
  828YOPS   C4A12770  18.986  -0.490   6.671 -0.1210 -0.2162 -0.4845
  828YOPS   C1B12771  18.770   1.077   6.063  0.1618 -0.2769  0.0714
  828YOPS   C2B12772  18.852   1.129   6.446 -0.0220 -0.1166  0.0242
  828YOPS   D3B12773  18.887   1.293   6.929 -0.3327 -0.0210  0.4075
  828YOPS   C4B12774  18.672   1.017   7.221 -0.0153 -0.0203 -0.2114
  829YOPS   CNO12775  13.136   5.669   4.950  0.4050  0.1085 -0.1866
  829YOPS   PO412776  13.327   6.096   5.067  0.0727  0.2130 -0.0538
  829YOPS   GL112777  13.452   6.138   5.504 -0.0525  0.0909 -0.2037
  829YOPS   GL212778  13.400   6.434   5.578  0.0420 -0.2378  0.4665
  829YOPS   C1A12779  13.448   6.063   5.900 -0.0212  0.1939  0.0027
  829YOPS   D2A12780  13.365   5.924   6.302 -0.0674 -0.0758  0.0190
  829YOPS   C3A12781  13.306   5.642   6.729  0.2623  0.0910 -0.0974
  829YOPS   C4A12782  13.498   5.375   7.074 -0.0086  0.1947 -0.2796
  829YOPS   C1B12783  13.823   6.389   5.776  0.1201 -0.0969 -0.1030
  829YOPS   C2B12784  14.133   6.575   6.138  0.2684 -0.2073 -0.4682
  829YOPS   D3B12785  14.189   6.504   6.519 -0.0243  0.0116  0.1217
  829YOPS   C4B12786  14.398   6.815   6.605  0.2374 -0.2739  0.3659
  830YOPS   CNO12787  11.033   0.403   4.707  0.2391 -0.0116  0.1845
  830YOPS   PO412788  10.962   0.079   5.081 -0.0317  0.0488  0.2279
  830YOPS   GL112789  10.875   0.298   5.450  0.5443  0.1499 -0.1038
  830YOPS   GL212790  10.662   0.094   5.545  0.1787  0.0390 -0.3460
  830YOPS   C1A12791  11.007   0.436   5.805  0.2043 -0.0430  0.0151
  830YOPS   D2A12792  11.394   0.690   5.831  0.0261 -0.2561 -0.0028
  830YOPS   C3A12793  11.754   0.730   5.734  0.0876  0.0421  0.1127
  830YOPS   C4A12794  12.011   0.794   6.038  0.1327 -0.1340  0.1858
  830YOPS   C1B12795  10.644   0.084   6.050  0.1849 -0.2157 -0.0496
  830YOPS   C2B12796  10.876   0.176   6.356  0.2320  0.0339 -0.1979
  830YOPS   D3B12797  10.719   0.299   6.719 -0.0455  0.0680  0.0177
  830YOPS   C4B12798  10.571   0.107   7.028  0.0060  0.0587  0.0478
  831YOPS   CNO12799   1.544  14.153   5.173 -0.4699 -0.3376 -0.3664
  831YOPS   PO412800   1.507  14.571   5.213  0.0380  0.1407 -0.0932
  831YOPS   GL112801   1.733  14.367   5.587  0.1897  0.1317 -0.1404
  831YOPS   GL212802   1.898  14.604   5.739 -0.1545  0.4541 -0.0057
  831YOPS   C1A12803   1.922  14.057   5.941  0.1541  0.2945  0.4410
  831YOPS   D2A12804   2.078  13.648   5.820  0.0023  0.4032 -0.4013
  831YOPS   C3A12805   2.104  13.121   5.991 -0.2045 -0.0525 -0.1915
  831YOPS   C4A12806   2.546  13.078   5.803  0.1770  0.1150 -0.1563
  831YOPS   C1B12807   1.720  14.445   6.066  0.2399  0.2350 -0.0839
  831YOPS   C2B12808   1.861  14.194   6.429  0.0569 -0.0614 -0.1822
  831YOPS   D3B12809   1.963  14.097   6.837 -0.1771 -0.1275 -0.0375
  831YOPS   C4B12810   2.337  14.013   7.012 -0.0768 -0.1620  0.1443
  832YOPS   CNO12811   7.273   0.713   5.254 -0.0875 -0.3057  0.4251
  832YOPS   PO412812   7.271   0.421   4.971 -0.0283 -0.1912  0.0976
  832YOPS   GL112813   7.062   0.262   5.294 -0.0342  0.1623 -0.1526
  832YOPS   GL212814   7.132  -0.169   5.253 -0.2800 -0.1433 -0.0512
  832YOPS   C1A12815   6.934   0.297   5.770 -0.0452  0.1527 -0.1641
  832YOPS   D2A12816   6.839   0.312   6.287  0.3831  0.1526  0.1048
  832YOPS   C3A12817   6.737   0.300   6.693  0.0872  0.6142 -0.0729
  832YOPS   C4A12818   6.220   0.503   6.683 -0.1503 -0.1497 -0.1804
  832YOPS   C1B12819   7.126  -0.318   5.678 -0.0154 -0.0096  0.2202
  832YOPS   C2B12820   7.253  -0.554   5.886 -0.1757 -0.5025 -0.0935
  832YOPS   D3B12821   7.244  -0.404   6.232 -0.2203  0.0818  0.2768
  832YOPS   C4B12822   7.186  -0.003   6.161  0.1554 -0.1645 -0.1756
  833YOPS   CNO12823  12.452  18.642   5.304  0.1548  0.0928  0.0038
  833YOPS   PO412824  12.207  18.304   5.391 -0.1104 -0.0762 -0.0209
  833YOPS   GL112825  12.139  18.591   5.709 -0.2326 -0.2739  0.3080
  833YOPS   GL212826  12.082  18.301   5.916  0.0640 -0.3304  0.0767
  833YOPS   C1A12827  11.883  18.879   5.878 -0.2127 -0.2017 -0.1161
  833YOPS   D2A12828  11.730  18.809   6.266 -0.1747 -0.5820  0.0021
  833YOPS   C3A12829  11.347  18.989   6.308 -0.1540  0.1930 -0.1565
  833YOPS   C4A12830  11.248  18.840   6.759  0.0702  0.1036 -0.1205
  833YOPS   C1B12831  12.054  18.398   6.361 -0.0465 -0.1588 -0.0287
  833YOPS   C2B12832  11.835  18.527   6.747  0.3889 -0.1008  0.3033
  833YOPS   D3B12833  11.527  18.590   7.076  0.1286 -0.0405 -0.0804
  833YOPS   C4B12834  11.139  18.408   7.110  0.0997 -0.1233  0.0968
  834YOPS   CNO12835  10.342  10.214   5.182  0.1587  0.1730  0.0717
  834YOPS   PO412836  10.169  10.702   5.103 -0.4077  0.0561 -0.0294
  834YOPS   GL112837  10.454  10.730   5.389  0.3919  0.0742 -0.1692
  834YOPS   GL212838  10.541  10.456   5.566  0.1334 -0.1106 -0.2012
  834YOPS   C1A12839  10.597  10.885   5.753 -0.0183 -0.1190 -0.1281
  834YOPS   D2A12840  10.426  11.056   6.174 -0.2139  0.2220 -0.1813
  834YOPS   C3A12841  10.102  11.404   6.249  0.0697 -0.2944  0.0204
  834YOPS   C4A12842   9.868  11.320   6.421  0.2127 -0.0322  0.0158
  834YOPS   C1B12843  10.744  10.498   5.977  0.3320 -0.1188 -0.0129
  834YOPS   C2B12844  10.707  10.690   6.340  0.0882  0.0326 -0.0179
  834YOPS   D3B12845  10.662  11.022   6.680 -0.0684 -0.1428  0.4762
  834YOPS   C4B12846  10.228  11.027   6.936  0.1632 -0.1133 -0.2671
  835YOPS   CNO12847  13.843  13.851   5.125 -0.0634  0.0121  0.0289
  835YOPS   PO412848  14.209  14.142   5.264 -0.0031  0.1342  0.1335
  835YOPS   GL112849  14.181  14.099   5.623 -0.0366 -0.0779  0.0739
  835YOPS   GL212850  14.187  13.734   5.677  0.0612 -0.0605  0.2656
  835YOPS   C1A12851  13.924  14.178   6.036 -0.2180 -0.0671  0.2191
  835YOPS   D2A12852  13.476  14.176   6.378  0.0586  0.0834 -0.3059
  835YOPS   C3A12853  13.272  14.201   6.772  0.1093 -0.1194 -0.0458
  835YOPS   C4A12854  13.030  14.512   6.948  0.2374  0.0807  0.3491
  835YOPS   C1B12855  13.891  13.667   6.018  0.0897  0.0840  0.0321
  835YOPS   C2B12856  13.825  13.818   6.404  0.0853  0.1685  0.1599
  835YOPS   D3B12857  13.910  14.201   6.682 -0.4108  0.1156  0.1685
  835YOPS   C4B12858  13.651  14.496   6.922 -0.2792  0.2482 -0.0111
  836YOPS   CNO12859  11.202  18.229   5.238 -0.2118 -0.1383  0.1237
  836YOPS   PO412860  11.087  18.508   4.941  0.1023  0.1360  0.4642
  836YOPS   GL112861  10.824  18.513   5.304 -0.0298 -0.3078 -0.0439
  836YOPS   GL212862  11.014  18.594   5.482 -0.1981 -0.6167 -0.2613
  836YOPS   C1A12863  10.546  18.822   5.540 -0.1242 -0.2048  0.0793
  836YOPS   D2A12864  10.427  19.003   5.871  0.3860  0.1571 -0.1690
  836YOPS   C3A12865  10.511  18.909   6.102  0.0665  0.0053 -0.0478
  836YOPS   C4A12866  10.834  18.593   6.075  0.3660 -0.0174 -0.3204
  836YOPS   C1B12867  11.057  18.201   5.708  0.1338  0.1080 -0.2169
  836YOPS   C2B12868  11.236  18.036   6.044  0.2717 -0.3341  0.0921
  836YOPS   D3B12869  11.267  17.850   6.584  0.1311  0.0761  0.1190
  836YOPS   C4B12870  10.808  17.941   6.914 -0.4576  0.2610 -0.1715
  837YOPS   CNO12871  19.015   6.720   5.309  0.3044  0.0009 -0.0949
  837YOPS   PO412872  19.087   7.096   5.208 -0.0375  0.1781  0.0809
  837YOPS   GL112873  19.214   7.089   5.570 -0.2457  0.6228 -0.2426
  837YOPS   GL212874  18.924   7.180   5.671 -0.0176  0.0743 -0.3509
  837YOPS   C1A12875  19.501   7.188   5.856 -0.1806  0.0050  0.0306
  837YOPS   D2A12876  19.717   6.904   6.080  0.0750 -0.1496  0.2540
  837YOPS   C3A12877  19.767   6.506   5.865 -0.2737  0.2103 -0.2003
  837YOPS   C4A12878  19.415   6.316   6.136 -0.0594  0.2934 -0.2189
  837YOPS   C1B12879  18.544   7.560   5.786 -0.0974  0.1476 -0.3457
  837YOPS   C2B12880  18.166   7.603   5.975 -0.0041  0.1937  0.1006
  837YOPS   D3B12881  18.080   7.454   6.434  0.0334  0.1357 -0.1590
  837YOPS   C4B12882  18.457   7.349   6.713  0.0990  0.0308  0.1282
  838YOPS   CNO12883   7.777   7.886   4.852 -0.3679 -0.0831 -0.0634
  838YOPS   PO412884   7.517   7.535   4.841 -0.4523 -0.2204 -0.1323
  838YOPS   GL112885   7.532   7.678   5.335 -0.2340 -0.0497  0.1151
  838YOPS   GL212886   7.782   7.912   5.358 -0.1202  0.2007 -0.1266
  838YOPS   C1A12887   7.528   7.691   5.735 -0.2089 -0.0869 -0.1174
  838YOPS   D2A12888   7.766   7.809   6.031  0.0873  0.1658 -0.1831
  838YOPS   C3A12889   7.800   7.933   6.374 -0.1361 -0.1502  0.1251
  838YOPS   C4A12890   7.757   7.979   6.788 -0.1875  0.0466  0.2069
  838YOPS   C1B12891   7.839   8.257   5.796 -0.1543 -0.0639 -0.0639
  838YOPS   C2B12892   7.698   8.427   6.087  0.0592  0.0542 -0.3631
  838YOPS   D3B12893   7.555   8.498   6.530  0.1984 -0.2289  0.1791
  838YOPS   C4B12894   7.215   8.335   6.630 -0.0794  0.0051  0.1378
  839YOPS   CNO12895   8.983   8.342   4.422 -0.1811  0.1314  0.3250
  839YOPS   PO412896   8.860   8.598   4.815 -0.0951  0.1134 -0.0871
  839YOPS   GL112897   8.707   8.491   5.191  0.2255  0.5442 -0.0816
  839YOPS   GL212898   8.593   8.216   5.330  0.2470 -0.1278 -0.4654
  839YOPS   C1A12899   8.798   8.496   5.700  0.0985 -0.1005 -0.0829
  839YOPS   D2A12900   8.958   8.540   6.106  0.0013 -0.3344 -0.0412
  839YOPS   C3A12901   9.220   8.440   6.563  0.0268 -0.1819 -0.0061
  839YOPS   C4A12902   9.398   8.800   6.830 -0.1270 -0.4864  0.2912
  839YOPS   C1B12903   8.394   8.053   5.671  0.2436 -0.4030 -0.2404
  839YOPS   C2B12904   8.160   8.136   6.103 -0.0198  0.2244  0.2314
  839YOPS   D3B12905   8.069   8.405   6.573  0.0706  0.0144  0.0274
  839YOPS   C4B12906   7.965   8.391   6.997 -0.0640  0.0516  0.0856
  840YOPS   CNO12907   2.492  14.296   4.787  0.1392 -0.0838 -0.0854
  840YOPS   PO412908   2.484  14.598   5.051 -0.0164  0.3656  0.0576
  840YOPS   GL112909   2.330  14.568   5.447 -0.1563 -0.0775 -0.0223
  840YOPS   GL212910   2.279  14.956   5.642  0.0699  0.1658  0.3309
  840YOPS   C1A12911   2.464  14.447   5.807  0.4519 -0.1494  0.1052
  840YOPS   D2A12912   2.248  14.475   6.166 -0.0736 -0.3369 -0.0335
  840YOPS   C3A12913   2.309  14.489   6.611 -0.0970  0.1494 -0.1441
  840YOPS   C4A12914   2.659  14.357   6.877 -0.1377 -0.2783  0.4258
  840YOPS   C1B12915   2.417  14.913   5.980 -0.1377 -0.2493  0.0179
  840YOPS   C2B12916   2.399  14.909   6.398  0.2580  0.1599  0.0312
  840YOPS   D3B12917   2.730  15.152   6.577  0.3455  0.2039 -0.0002
  840YOPS   C4B12918   2.995  14.878   6.780 -0.0231  0.1243 -0.3129
  841YOPS   CNO12919  17.070  10.692   4.535 -0.2010  0.0215 -0.2890
  841YOPS   PO412920  17.129  10.371   4.715 -0.4986  0.0942  0.0876
  841YOPS   GL112921  17.190  10.616   5.112  0.1661  0.0217  0.3028
  841YOPS   GL212922  16.916  10.714   5.342  0.0997  0.0824  0.0391
  841YOPS   C1A12923  17.355  10.402   5.472 -0.1791 -0.1013  0.0959
  841YOPS   D2A12924  17.483  10.035   5.570  0.0495 -0.1155 -0.1510
  841YOPS   C3A12925  17.674   9.833   5.883  0.2230 -0.0275  0.3499
  841YOPS   C4A12926  17.484   9.897   6.255 -0.0511  0.1091  0.1520
  841YOPS   C1B12927  16.994  10.590   5.706 -0.0811  0.4189 -0.0659
  841YOPS   C2B12928  17.286  10.416   5.956  0.3656 -0.1540 -0.5195
  841YOPS   D3B12929  17.248  10.322   6.381  0.0720  0.2594 -0.0397
  841YOPS   C4B12930  16.998  10.057   6.153 -0.0751 -0.2135 -0.1972
  842YOPS   CNO12931   3.718   3.911   4.907 -0.2225 -0.1751 -0.0777
  842YOPS   PO412932   3.280   4.059   5.013 -0.3463  0.0892  0.0929
  842YOPS   GL112933   3.463   4.167   5.365  0.0265  0.0452 -0.1218
  842YOPS   GL212934   3.275   4.431   5.571  0.3174 -0.3708 -0.1250
  842YOPS   C1A12935   3.490   4.006   5.722 -0.0983 -0.3758 -0.2246
  842YOPS   D2A12936   3.546   3.955   6.172  0.1890 -0.3703 -0.1019
  842YOPS   C3A12937   3.391   3.786   6.641  0.1655  0.1175 -0.1701
  842YOPS   C4A12938   3.575   3.370   6.823  0.0206 -0.2065 -0.1327
  842YOPS   C1B12939   3.224   4.487   6.070 -0.0520 -0.2112 -0.4073
  842YOPS   C2B12940   3.324   4.872   6.424 -0.0182  0.1177 -0.2150
  842YOPS   D3B12941   3.310   5.270   6.526 -0.1649  0.1454  0.1441
  842YOPS   C4B12942   3.433   5.340   6.933 -0.0186  0.0121  0.2478
  843YOPS   CNO12943   6.358   5.285   4.754  0.0395 -0.1510 -0.1021
  843YOPS   PO412944   6.075   4.904   4.875  0.0376 -0.2799  0.0921
  843YOPS   GL112945   6.180   5.077   5.274  0.3957  0.3088  0.1922
  843YOPS   GL212946   6.242   5.407   5.337 -0.1586 -0.0896  0.2320
  843YOPS   C1A12947   6.110   4.817   5.659  0.1113 -0.1393 -0.0189
  843YOPS   D2A12948   5.889   4.570   6.070  0.4088  0.0545 -0.2014
  843YOPS   C3A12949   6.043   4.433   6.438 -0.1973  0.1261  0.2275
  843YOPS   C4A12950   6.494   4.264   6.323 -0.0598  0.0643  0.2651
  843YOPS   C1B12951   6.181   5.306   5.736 -0.0418  0.0090 -0.2709
  843YOPS   C2B12952   6.124   5.047   6.128 -0.2116  0.0080  0.2177
  843YOPS   D3B12953   5.897   4.902   6.497  0.2413 -0.1269 -0.1638
  843YOPS   C4B12954   5.715   5.234   6.769 -0.1057 -0.1989 -0.0945
  844POPE   NH312955  13.828  17.042   5.611 -0.2605  0.0665 -0.1915
  844POPE   PO412956  14.057  17.283   5.283  0.2282 -0.1704 -0.1493
  844POPE   GL112957  14.130  17.419   5.703  0.3053 -0.0148  0.1228
  844POPE   GL212958  14.408  17.652   5.767  0.3258 -0.1430 -0.1798
  844POPE   C1A12959  14.153  17.447   6.204 -0.1667 -0.0363 -0.2127
  844POPE   D2A12960  14.043  17.295   6.588  0.3961 -0.2086 -0.1701
  844POPE   C3A12961  14.285  17.259   6.889  0.0877  0.0233  0.1324
  844POPE   C4A12962  14.663  17.248   6.953  0.0238  0.2739  0.0398
  844POPE   C1B12963  14.437  17.823   6.221 -0.2136 -0.2605  0.0482
  844POPE   C2B12964  14.362  17.764   6.553 -0.2025 -0.2998  0.1159
  844POPE   C3B12965  14.436  17.974   6.891 -0.1083  0.1934 -0.0571
  844POPE   C4B12966  14.202  18.053   7.214 -0.2736 -0.2202 -0.0587
  845POPE   NH312967  13.197  15.019   5.102  0.0389  0.5001  0.0216
  845POPE   PO412968  13.504  14.783   5.376  0.3411 -0.0815 -0.0004
  845POPE   GL112969  13.590  14.958   5.771 -0.1388 -0.2319 -0.2886
  845POPE   GL212970  13.298  15.016   5.852 -0.1245  0.1408 -0.2392
  845POPE   C1A12971  13.582  15.202   6.227 -0.1284 -0.4278 -0.0845
  845POPE   D2A12972  13.732  15.476   6.611  0.0465  0.0759 -0.1879
  845POPE   C3A12973  13.433  15.555   6.895 -0.0359 -0.0174 -0.4176
  845POPE   C4A12974  12.975  15.456   7.058 -0.3438 -0.0459 -0.3051
  845POPE   C1B12975  13.140  14.964   6.223 -0.0434 -0.2487 -0.1251
  845POPE   C2B12976  12.902  14.959   6.603 -0.1098  0.1347 -0.0882
  845POPE   C3B12977  12.654  15.093   6.836 -0.1469  0.1120  0.3101
  845POPE   C4B12978  12.309  14.917   6.931  0.0400 -0.0996 -0.5121
  846POPE   NH312979   5.227  14.081   5.364 -0.0452  0.2125 -0.1053
  846POPE   PO412980   5.544  14.326   5.748  0.2068  0.1394 -0.0432
  846POPE   GL112981   5.565  14.067   6.037  0.1809 -0.0254 -0.0433
  846POPE   GL212982   5.835  14.100   6.052 -0.1425  0.3875 -0.1035
  846POPE   C1A12983   5.590  14.152   6.448 -0.0825  0.1094  0.1152
  846POPE   D2A12984   5.519  13.909   6.796  0.2575 -0.4087 -0.1922
  846POPE   C3A12985   5.464  14.049   7.164 -0.0831 -0.2815 -0.1230
  846POPE   C4A12986   5.446  13.983   7.619 -0.1158  0.2630  0.4026
  846POPE   C1B12987   6.002  14.407   6.249 -0.1361 -0.1799  0.0107
  846POPE   C2B12988   5.916  14.542   6.597 -0.1770  0.0158  0.0257
  846POPE   C3B12989   6.084  14.773   6.981  0.0965 -0.2102 -0.0077
  846POPE   C4B12990   6.172  15.191   7.232 -0.4752  0.0303  0.3673
  847POPE   NH312991   0.568   0.101   5.162 -0.2235  0.0801  0.0129
  847POPE   PO412992   0.194   0.303   5.272  0.0813 -0.1194  0.2729
  847POPE   GL112993   0.406   0.108   5.637 -0.1853  0.0989 -0.0032
  847POPE   GL212994   0.617   0.208   5.864 -0.0648 -0.1871  0.1745
  847POPE   C1A12995   0.713  -0.265   5.794 -0.0510  0.1805 -0.0250
  847POPE   D2A12996   0.576  -0.338   6.290  0.0288 -0.3800  0.3653
  847POPE   C3A12997   0.866  -0.502   6.651  0.2279 -0.0857 -0.1918
  847POPE   C4A12998   1.252  -0.559   6.876  0.2599  0.1530  0.1544
  847POPE   C1B12999   0.625   0.204   6.263 -0.1232  0.3723 -0.0336
  847POPE   C2B13000   0.667   0.075   6.813 -0.2383 -0.1272 -0.1010
  847POPE   C3B13001   0.583  -0.178   7.150 -0.3310  0.0901  0.4508
  847POPE   C4B13002   0.738  -0.323   7.535 -0.1473 -0.0909  0.3433
  848POPE   NH313003  11.539   8.202   4.626 -0.0340  0.2788  0.0392
  848POPE   PO413004  11.109   8.202   4.663  0.2671 -0.1220 -0.0200
  848POPE   GL113005  11.245   8.370   5.001  0.1408  0.0183 -0.0175
  848POPE   GL213006  11.414   8.650   4.953 -0.1497 -0.2055 -0.0381
  848POPE   C1A13007  11.303   8.288   5.388  0.0430  0.1979 -0.1795
  848POPE   D2A13008  11.137   8.333   5.784  0.0794 -0.1780  0.1638
  848POPE   C3A13009  11.410   7.976   6.015  0.0546  0.0470  0.2253
  848POPE   C4A13010  11.606   7.561   6.215  0.2281  0.0022 -0.1886
  848POPE   C1B13011  11.473   8.733   5.399  0.3102 -0.1187  0.0419
  848POPE   C2B13012  11.545   8.773   5.759  0.2442  0.0397  0.4641
  848POPE   C3B13013  11.511   8.481   6.062 -0.0935  0.1005 -0.1768
  848POPE   C4B13014  11.302   8.502   6.493 -0.0915  0.0476  0.0773
  849POPE   NH313015  15.397  17.125   5.375  0.1621  0.0702  0.1467
  849POPE   PO413016  15.777  17.420   5.294 -0.2125  0.2334 -0.1322
  849POPE   GL113017  16.170  17.234   5.618 -0.3166 -0.0064  0.0776
  849POPE   GL213018  16.167  16.973   5.528 -0.2565 -0.0515 -0.1208
  849POPE   C1A13019  16.239  17.472   5.919  0.0271 -0.2995 -0.2620
  849POPE   D2A13020  16.013  17.615   6.285  0.0562 -0.2111 -0.0706
  849POPE   C3A13021  15.589  17.402   6.367  0.2629  0.2011 -0.1863
  849POPE   C4A13022  15.274  17.557   6.161 -0.3091  0.3641 -0.0642
  849POPE   C1B13023  16.061  16.616   5.693  0.0802 -0.0928  0.4881
  849POPE   C2B13024  16.219  16.387   6.022  0.0519 -0.2539  0.1996
  849POPE   C3B13025  16.448  16.168   6.415 -0.0059  0.2626 -0.1066
  849POPE   C4B13026  16.584  16.274   6.839 -0.0596  0.1069 -0.1893
  850POPE   NH313027  14.780  16.761   5.240 -0.0319  0.0010  0.0439
  850POPE   PO413028  14.542  16.409   5.348  0.2081 -0.1993 -0.0950
  850POPE   GL113029  14.742  16.497   5.718  0.2727  0.1481  0.1217
  850POPE   GL213030  14.859  16.771   5.764 -0.1002 -0.0396 -0.1862
  850POPE   C1A13031  15.075  16.261   5.982 -0.4711  0.1524  0.0569
  850POPE   D2A13032  15.136  16.029   6.251  0.0022 -0.1528 -0.2787
  850POPE   C3A13033  15.541  16.275   6.429  0.1490 -0.0373  0.1880
  850POPE   C4A13034  15.519  16.549   6.736  0.3298 -0.0059 -0.5159
  850POPE   C1B13035  14.775  16.648   6.225  0.0377 -0.1196  0.2278
  850POPE   C2B13036  14.603  16.723   6.701  0.0464 -0.2128 -0.0060
  850POPE   C3B13037  14.370  16.770   7.194  0.0403 -0.0185 -0.2430
  850POPE   C4B13038  14.365  17.167   7.356 -0.1801 -0.0127 -0.1582
  851POPE   NH313039   5.997   7.124   5.139  0.1345  0.1251  0.2677
  851POPE   PO413040   6.502   7.129   5.029  0.2370 -0.0424  0.1410
  851POPE   GL113041   6.590   7.369   5.451  0.3520 -0.3754 -0.2527
  851POPE   GL213042   6.959   7.336   5.426 -0.1494  0.3626 -0.0236
  851POPE   C1A13043   6.458   7.484   5.866 -0.0406  0.0953 -0.4365
  851POPE   D2A13044   6.513   7.226   6.231 -0.1966 -0.2802 -0.1135
  851POPE   C3A13045   6.303   7.177   6.625  0.0054  0.0388  0.0235
  851POPE   C4A13046   6.450   7.332   6.950  0.0280 -0.0718  0.1245
  851POPE   C1B13047   7.201   7.303   5.851 -0.2663  0.1637  0.0183
  851POPE   C2B13048   7.402   7.502   6.155  0.0882  0.0128  0.0842
  851POPE   C3B13049   7.448   7.353   6.522 -0.0707  0.1292 -0.1899
  851POPE   C4B13050   7.262   7.151   6.879  0.0837  0.2791  0.1951
  852POPE   NH313051  17.056   0.854   4.549 -0.2694  0.2290  0.2702
  852POPE   PO413052  17.150   1.094   4.947  0.1967 -0.0455  0.1351
  852POPE   GL113053  16.897   1.054   5.321 -0.3075  0.1839 -0.0633
  852POPE   GL213054  16.815   0.787   5.261  0.0837  0.2277  0.1435
  852POPE   C1A13055  16.976   0.934   5.746 -0.2934  0.1607  0.0927
  852POPE   D2A13056  17.179   0.956   6.204 -0.0949  0.0132 -0.0762
  852POPE   C3A13057  17.440   1.140   6.524  0.2740  0.2503 -0.2037
  852POPE   C4A13058  17.776   1.312   6.522  0.0745  0.0481  0.1345
  852POPE   C1B13059  16.586   0.633   5.730  0.1706  0.2025 -0.0848
  852POPE   C2B13060  16.859   0.516   6.015 -0.2462 -0.0659  0.1189
  852POPE   C3B13061  17.042   0.484   6.387  0.2079  0.4137 -0.0064
  852POPE   C4B13062  17.402   0.566   6.678  0.1519 -0.0443  0.2384
  853POPE   NH313063   9.938  11.889   5.200 -0.0733  0.1334  0.0141
  853POPE   PO413064  10.396  11.674   5.185 -0.0146  0.0269 -0.3494
  853POPE   GL113065  10.353  11.613   5.568 -0.2340 -0.0074  0.2048
  853POPE   GL213066  10.119  11.788   5.694  0.3358 -0.1158 -0.2102
  853POPE   C1A13067  10.534  11.635   5.977 -0.1207 -0.0127  0.2147
  853POPE   D2A13068  10.629  11.459   6.385 -0.2209  0.1212 -0.4531
  853POPE   C3A13069  10.673  11.729   6.719 -0.0795 -0.0240  0.2057
  853POPE   C4A13070  10.905  12.169   6.944 -0.1704 -0.0673  0.2703
  853POPE   C1B13071   9.833  11.506   5.759 -0.0703  0.1446  0.1868
  853POPE   C2B13072   9.728  11.154   5.771  0.2395 -0.2897 -0.1548
  853POPE   C3B13073   9.661  11.010   6.139  0.0598 -0.2155  0.0938
  853POPE   C4B13074   9.261  10.854   6.175 -0.3278 -0.0397  0.0338
  854POPE   NH313075   3.281  17.730   4.935  0.0137  0.1553  0.1090
  854POPE   PO413076   3.040  17.611   5.192  0.0398 -0.0815  0.2940
  854POPE   GL113077   2.822  17.902   5.452  0.0779  0.1158 -0.1518
  854POPE   GL213078   2.894  18.284   5.600  0.1260  0.1912  0.0062
  854POPE   C1A13079   2.812  17.866   5.917  0.0475  0.0082  0.0752
  854POPE   D2A13080   3.190  17.864   6.269 -0.0043  0.0435 -0.0539
  854POPE   C3A13081   3.556  18.012   6.120 -0.0227  0.1619  0.1621
  854POPE   C4A13082   3.998  18.165   6.296 -0.1073  0.3251  0.0678
  854POPE   C1B13083   3.070  18.388   6.006  0.1496  0.5500  0.0087
  854POPE   C2B13084   3.266  18.380   6.338 -0.2808  0.2217  0.1095
  854POPE   C3B13085   3.509  18.074   6.599  0.1728  0.1929 -0.2222
  854POPE   C4B13086   3.839  17.859   6.636  0.2006 -0.0188 -0.1357
  855POPE   NH313087  18.725  10.994   5.152 -0.3053  0.0988  0.0654
  855POPE   PO413088  18.602  10.503   5.152 -0.0302 -0.1187 -0.0683
  855POPE   GL113089  18.581  10.543   5.571  0.0861  0.1323  0.0649
  855POPE   GL213090  18.603  10.875   5.695  0.0278 -0.1406  0.0367
  855POPE   C1A13091  18.480  10.271   5.945  0.0114 -0.1209  0.0327
  855POPE   D2A13092  18.142   9.895   5.873 -0.0339 -0.2582 -0.4201
  855POPE   C3A13093  17.974   9.830   6.273 -0.2995 -0.1857 -0.2749
  855POPE   C4A13094  17.775  10.015   6.601  0.0524  0.0294 -0.1619
  855POPE   C1B13095  19.031  10.717   5.880 -0.2125 -0.0370 -0.1285
  855POPE   C2B13096  19.193  10.602   6.331 -0.0559  0.0934  0.1751
  855POPE   C3B13097  19.408  10.290   6.648 -0.0004 -0.1949  0.1854
  855POPE   C4B13098  19.292   9.890   6.924  0.1359  0.1470  0.0952
  856POPE   NH313099  14.457  14.527   5.128  0.0281 -0.0764  0.1757
  856POPE   PO413100  14.926  14.548   5.185  0.0377 -0.1000  0.1043
  856POPE   GL113101  15.201  14.478   5.443 -0.1455 -0.0270 -0.0778
  856POPE   GL213102  15.177  14.026   5.476 -0.0815  0.0188 -0.1898
  856POPE   C1A13103  15.100  14.425   5.821  0.1502  0.1742  0.0152
  856POPE   D2A13104  15.188  14.337   6.252  0.1088 -0.4979  0.0808
  856POPE   C3A13105  15.425  14.483   6.561 -0.2052 -0.1773  0.5087
  856POPE   C4A13106  15.791  14.545   6.453  0.0869 -0.0841  0.0334
  856POPE   C1B13107  15.330  13.998   5.895  0.0059 -0.1995 -0.0606
  856POPE   C2B13108  15.660  14.132   6.178  0.0752  0.0784 -0.0888
  856POPE   C3B13109  15.889  14.043   6.561  0.1286 -0.0147  0.0558
  856POPE   C4B13110  16.175  13.695   6.424 -0.0776 -0.2377 -0.1097
  857POPE   NH313111   6.244   8.957   5.194  0.1186  0.0129 -0.1778
  857POPE   PO413112   6.640   9.021   5.110 -0.0193  0.0989  0.1514
  857POPE   GL113113   7.004   8.934   5.376 -0.0706  0.3036 -0.1099
  857POPE   GL213114   7.098   9.083   5.621  0.1841  0.1644  0.0719
  857POPE   C1A13115   6.965   8.590   5.682 -0.1242  0.0716 -0.1925
  857POPE   D2A13116   6.732   8.318   5.815  0.2734 -0.3201  0.1085
  857POPE   C3A13117   6.625   8.005   6.123  0.0704 -0.1231  0.2234
  857POPE   C4A13118   6.386   7.691   6.405 -0.1616  0.1443 -0.0363
  857POPE   C1B13119   7.141   9.277   6.048  0.2006  0.1570  0.1128
  857POPE   C2B13120   7.112   9.479   6.499 -0.0563  0.0947 -0.0389
  857POPE   C3B13121   7.355   9.299   6.942 -0.2580  0.1424  0.0109
  857POPE   C4B13122   7.590   9.567   7.415 -0.0888 -0.0813  0.0031
  858POPE   NH313123   6.432  13.412   5.615 -0.0172  0.0031  0.0863
  858POPE   PO413124   6.090  13.151   5.625  0.0240 -0.0952  0.2290
  858POPE   GL113125   5.911  13.151   6.032 -0.1774 -0.0138 -0.2063
  858POPE   GL213126   6.252  13.303   6.104  0.0981 -0.3194 -0.0125
  858POPE   C1A13127   5.748  13.150   6.399 -0.2090 -0.1322 -0.1015
  858POPE   D2A13128   5.781  13.446   6.699 -0.1466 -0.0978  0.1128
  858POPE   C3A13129   5.818  13.486   7.128  0.1744  0.1112 -0.1870
  858POPE   C4A13130   5.899  13.255   7.507 -0.0258 -0.4048  0.2772
  858POPE   C1B13131   6.269  13.381   6.553 -0.0705 -0.4166  0.1036
  858POPE   C2B13132   6.231  13.506   6.912 -0.1417 -0.0385  0.1392
  858POPE   C3B13133   6.458  13.444   7.235 -0.1317 -0.3957  0.1163
  858POPE   C4B13134   6.448  13.181   7.638 -0.1189 -0.0199  0.2874
  859POPE   NH313135   5.930   8.056   5.066  0.2538  0.1256  0.1293
  859POPE   PO413136   6.236   8.092   4.871 -0.0677 -0.0230  0.1100
  859POPE   GL113137   6.469   8.105   5.164 -0.1493  0.0213  0.2618
  859POPE   GL213138   6.365   8.323   5.408  0.0827 -0.3928  0.1720
  859POPE   C1A13139   6.542   7.906   5.630 -0.2301 -0.1115  0.2802
  859POPE   D2A13140   6.913   7.703   5.763  0.0218  0.0871 -0.4210
  859POPE   C3A13141   6.941   7.543   6.217 -0.1164 -0.0443  0.1515
  859POPE   C4A13142   6.869   7.436   6.621  0.0393  0.2996  0.1006
  859POPE   C1B13143   6.206   8.332   5.871  0.0849  0.1046  0.1261
  859POPE   C2B13144   6.317   8.534   6.219 -0.0097 -0.1390  0.0920
  859POPE   C3B13145   6.327   8.676   6.640  0.1206  0.0067  0.2019
  859POPE   C4B13146   6.010   8.716   6.960  0.2358  0.0211 -0.0218
  860POPE   NH313147   3.942   0.423   5.043  0.0424 -0.1965  0.0581
  860POPE   PO413148   3.942   0.036   4.691 -0.3220  0.1527  0.1541
  860POPE   GL113149   3.980  -0.172   5.034 -0.0203 -0.1034 -0.1826
  860POPE   GL213150   4.362  -0.215   5.254  0.0508 -0.1327  0.2626
  860POPE   C1A13151   3.826  -0.248   5.440 -0.0082  0.0137 -0.2186
  860POPE   D2A13152   4.164  -0.319   5.774  0.1065 -0.1021 -0.2324
  860POPE   C3A13153   4.419  -0.604   5.826 -0.1989 -0.0309  0.1577
  860POPE   C4A13154   4.508  -0.957   6.115 -0.2549  0.0918 -0.1278
  860POPE   C1B13155   4.640  -0.162   5.597 -0.0624 -0.2141 -0.0497
  860POPE   C2B13156   4.747  -0.231   5.958 -0.0225 -0.3201  0.0101
  860POPE   C3B13157   4.815  -0.195   6.416 -0.0486  0.0767 -0.2291
  860POPE   C4B13158   4.720  -0.031   6.854  0.1490  0.0554  0.1005
  861POPE   NH313159  18.718   2.740   5.332 -0.0458 -0.2507 -0.5633
  861POPE   PO413160  18.448   2.507   4.952 -0.2319 -0.0910 -0.0603
  861POPE   GL113161  18.478   2.291   5.384 -0.0437 -0.1234 -0.1222
  861POPE   GL213162  18.199   2.530   5.613  0.3715  0.0306 -0.0918
  861POPE   C1A13163  18.737   2.467   5.846  0.0619 -0.3820  0.0449
  861POPE   D2A13164  18.901   2.400   6.268 -0.1797 -0.0054 -0.3025
  861POPE   C3A13165  18.922   2.606   6.723 -0.1602  0.4149 -0.1092
  861POPE   C4A13166  18.869   2.837   7.096  0.0268  0.0898  0.2242
  861POPE   C1B13167  18.320   2.746   5.914 -0.0896 -0.0534 -0.1164
  861POPE   C2B13168  18.374   2.710   6.401 -0.1380  0.0169  0.1092
  861POPE   C3B13169  18.453   2.443   6.785 -0.1195  0.0735 -0.0135
  861POPE   C4B13170  18.421   2.000   7.064  0.0766  0.1572  0.0770
  862POPE   NH313171  12.229  11.746   4.936 -0.1682 -0.2449  0.0848
  862POPE   PO413172  12.044  11.338   4.860 -0.1349 -0.3396  0.0436
  862POPE   GL113173  11.925  11.451   5.226  0.4963 -0.2967  0.0600
  862POPE   GL213174  11.961  11.734   5.313  0.1186  0.1758 -0.0603
  862POPE   C1A13175  11.756  11.195   5.499  0.1191  0.1493  0.0474
  862POPE   D2A13176  11.683  10.838   5.769  0.1048 -0.0579  0.0818
  862POPE   C3A13177  11.607  10.875   6.129  0.1867 -0.1685  0.0192
  862POPE   C4A13178  11.729  10.931   6.592  0.2089 -0.0428 -0.1072
  862POPE   C1B13179  11.687  11.654   5.694  0.5058  0.1311 -0.1754
  862POPE   C2B13180  11.498  11.814   6.074 -0.1034  0.0973 -0.3329
  862POPE   C3B13181  11.304  12.132   6.311 -0.0302  0.1279  0.0120
  862POPE   C4B13182  11.352  11.994   6.680 -0.2362 -0.3386  0.0676
  863POPE   NH313183  16.615   2.957   4.966  0.0548  0.1945  0.0603
  863POPE   PO413184  16.158   2.666   5.018 -0.0897  0.0479 -0.3229
  863POPE   GL113185  16.387   2.668   5.415  0.0286  0.1073  0.0469
  863POPE   GL213186  16.439   3.006   5.417  0.0722  0.1172 -0.2134
  863POPE   C1A13187  16.268   2.674   5.825  0.0428 -0.0204  0.0609
  863POPE   D2A13188  16.401   2.765   6.233  0.0124  0.1432  0.1574
  863POPE   C3A13189  16.216   3.056   6.524  0.2524 -0.0922  0.1333
  863POPE   C4A13190  16.429   3.304   6.887 -0.2031  0.3331  0.2067
  863POPE   C1B13191  16.248   3.146   5.789 -0.2469 -0.2728  0.2615
  863POPE   C2B13192  16.186   3.515   6.055 -0.0924  0.0698  0.0640
  863POPE   C3B13193  16.223   3.583   6.435 -0.1796  0.2640 -0.1981
  863POPE   C4B13194  16.338   3.866   6.837 -0.0156 -0.1893 -0.3185
  864POPE   NH313195  19.785  10.426   5.292 -0.2756 -0.2017 -0.1776
  864POPE   PO413196  20.096  10.264   4.928  0.0769  0.1542  0.1246
  864POPE   GL113197  20.229  10.017   5.340 -0.1990 -0.3809 -0.1122
  864POPE   GL213198  20.505  10.028   5.452  0.1342 -0.1029  0.3105
  864POPE   C1A13199  20.128   9.859   5.768  0.1085 -0.1229  0.1592
  864POPE   D2A13200  20.245   9.896   6.182 -0.2103  0.0948  0.1944
  864POPE   C3A13201  20.378   9.631   6.514 -0.0497  0.1689  0.4385
  864POPE   C4A13202  20.596   9.589   6.774  0.0418  0.1924 -0.2229
  864POPE   C1B13203  20.533  10.219   5.913 -0.1308 -0.1094 -0.2752
  864POPE   C2B13204  20.282  10.473   6.209 -0.2164  0.1838  0.1626
  864POPE   C3B13205  20.224  10.656   6.681  0.0041  0.3140  0.3892
  864POPE   C4B13206  20.484  10.962   6.898 -0.0832  0.1637  0.0928
  865POPE   NH313207  12.256  10.954   4.562 -0.2720  0.0486 -0.0245
  865POPE   PO413208  11.983  10.810   4.826 -0.1110 -0.0471  0.0515
  865POPE   GL113209  11.753  10.676   5.245  0.0735  0.2908 -0.0285
  865POPE   GL213210  11.503  10.494   5.367  0.0883 -0.1315 -0.0952
  865POPE   C1A13211  12.076  10.433   5.560 -0.2245 -0.1190 -0.2762
  865POPE   D2A13212  12.435  10.358   5.703 -0.0855 -0.0694  0.0555
  865POPE   C3A13213  12.503  10.244   6.097  0.3769  0.2254  0.1263
  865POPE   C4A13214  12.619  10.337   6.476  0.0014 -0.0018  0.3051
  865POPE   C1B13215  11.610  10.270   5.727 -0.0589  0.0170  0.3783
  865POPE   C2B13216  11.916  10.383   6.087 -0.2781 -0.2160  0.2967
  865POPE   C3B13217  12.030  10.182   6.475 -0.1619 -0.0933  0.2270
  865POPE   C4B13218  11.950   9.885   6.743 -0.5897  0.0611  0.4378
  866POPE   NH313219   3.002  10.925   5.327  0.0567  0.0122  0.2313
  866POPE   PO413220   3.088  10.550   5.572  0.2119 -0.0827 -0.2203
  866POPE   GL113221   2.979  10.229   5.581 -0.1259 -0.0914 -0.0113
  866POPE   GL213222   2.730  10.197   5.492  0.1807  0.1427 -0.1204
  866POPE   C1A13223   2.845   9.960   5.971  0.1345  0.1665  0.1595
  866POPE   D2A13224   2.748   9.748   6.380 -0.2889 -0.3974  0.0245
  866POPE   C3A13225   3.007   9.585   6.659  0.1472 -0.1879 -0.0616
  866POPE   C4A13226   3.115   9.560   7.080  0.0794 -0.0838  0.0015
  866POPE   C1B13227   2.521  10.355   5.919 -0.1380 -0.3610  0.0766
  866POPE   C2B13228   2.567  10.242   6.296  0.2878  0.3086 -0.1127
  866POPE   C3B13229   2.917  10.266   6.541  0.1221 -0.0070  0.0086
  866POPE   C4B13230   2.945  10.586   6.896  0.1006  0.1204 -0.1851
  867POPE   NH313231  17.949  12.201   4.634 -0.0370 -0.2654  0.1437
  867POPE   PO413232  17.880  12.007   5.035 -0.0934  0.1319 -0.2941
  867POPE   GL113233  17.605  12.110   5.377 -0.3299 -0.0593 -0.2060
  867POPE   GL213234  17.423  11.793   5.393 -0.1638  0.3834 -0.1273
  867POPE   C1A13235  17.647  12.037   5.811 -0.0440  0.0958 -0.0219
  867POPE   D2A13236  17.813  11.910   6.299  0.0691  0.1640 -0.0373
  867POPE   C3A13237  17.949  12.191   6.634  0.0738 -0.0644 -0.0260
  867POPE   C4A13238  18.172  12.277   6.893 -0.1629 -0.3555 -0.4019
  867POPE   C1B13239  17.282  11.637   5.855  0.1211  0.0136 -0.2357
  867POPE   C2B13240  17.272  11.211   5.995 -0.1936 -0.1515  0.1739
  867POPE   C3B13241  17.077  10.815   6.220 -0.1565  0.1264  0.1229
  867POPE   C4B13242  16.838  10.894   6.644 -0.4236 -0.0889 -0.1318
  868POPE   NH313243  14.651  17.325   5.490  0.2387 -0.1852  0.0255
  868POPE   PO413244  14.976  17.194   5.600 -0.4621 -0.0231  0.0972
  868POPE   GL113245  15.213  17.051   5.934  0.4346 -0.0862 -0.0114
  868POPE   GL213246  14.958  17.132   6.199 -0.1045 -0.1675 -0.0712
  868POPE   C1A13247  15.270  16.767   6.326 -0.2328  0.0273 -0.0245
  868POPE   D2A13248  15.051  16.400   6.549  0.2386  0.0271 -0.1206
  868POPE   C3A13249  14.741  16.235   6.897  0.2430 -0.0282 -0.0557
  868POPE   C4A13250  14.328  16.231   7.012 -0.2055 -0.0888 -0.1511
  868POPE   C1B13251  15.042  17.116   6.606  0.0379 -0.3758 -0.1352
  868POPE   C2B13252  15.398  17.018   6.785  0.1606 -0.1154  0.0112
  868POPE   C3B13253  15.715  17.197   7.029 -0.2211  0.0321 -0.3221
  868POPE   C4B13254  15.819  17.508   6.805  0.0147  0.2631  0.0156
  869POPE   NH313255   5.879  19.139   5.229 -0.0011  0.1528 -0.2227
  869POPE   PO413256   6.403  19.158   5.125  0.3214  0.0594 -0.0223
  869POPE   GL113257   6.179  19.463   5.415 -0.1356  0.2349  0.0107
  869POPE   GL213258   5.959  19.333   5.672 -0.2869  0.3684  0.3025
  869POPE   C1A13259   6.192  19.819   5.599 -0.0477  0.1390  0.3251
  869POPE   D2A13260   6.260  19.775   5.994 -0.2503 -0.0602 -0.1583
  869POPE   C3A13261   6.185  19.438   6.290 -0.2372 -0.1335  0.2403
  869POPE   C4A13262   6.316  19.314   6.693 -0.0885 -0.3884  0.0064
  869POPE   C1B13263   5.438  19.329   5.801 -0.2502  0.3407  0.0565
  869POPE   C2B13264   4.984  19.208   5.953  0.1828 -0.1102 -0.1377
  869POPE   C3B13265   4.939  19.155   6.387 -0.0526 -0.1169  0.2870
  869POPE   C4B13266   4.832  18.778   6.499  0.0047 -0.3299  0.0976
  870POPE   NH313267   8.072   9.964   5.368 -0.1622 -0.2721 -0.0161
  870POPE   PO413268   8.435   9.951   5.073  0.1749  0.0057 -0.0655
  870POPE   GL113269   8.727  10.036   5.385 -0.1171  0.2608 -0.0658
  870POPE   GL213270   8.429  10.240   5.619  0.0035 -0.2642  0.0898
  870POPE   C1A13271   8.921  10.076   5.883 -0.2906  0.1214  0.0697
  870POPE   D2A13272   8.837   9.862   6.249  0.4234  0.1859  0.0537
  870POPE   C3A13273   8.713   9.532   6.605 -0.3113  0.0514 -0.3174
  870POPE   C4A13274   8.691   9.287   6.943  0.0341  0.0880 -0.0590
  870POPE   C1B13275   8.491   9.842   5.858  0.1486  0.3394  0.1040
  870POPE   C2B13276   8.563   9.500   6.155  0.0756  0.1827 -0.1099
  870POPE   C3B13277   8.475   9.086   6.331  0.4362 -0.0208 -0.0270
  870POPE   C4B13278   8.472   8.604   6.285  0.3178  0.2105  0.3260
  871POPE   NH313279  16.182  19.380   4.978  0.0410 -0.2012  0.0198
  871POPE   PO413280  15.976  19.669   5.097 -0.1346  0.1352  0.3035
  871POPE   GL113281  16.114  19.913   5.337  0.1392  0.0453  0.0702
  871POPE   GL213282  15.974  20.250   5.358 -0.1053  0.1139  0.0449
  871POPE   C1A13283  16.118  19.901   5.765  0.2834 -0.0484  0.3155
  871POPE   D2A13284  15.907  19.798   6.177 -0.0429  0.0580 -0.0518
  871POPE   C3A13285  15.804  19.934   6.565 -0.0294 -0.0535 -0.0590
  871POPE   C4A13286  15.427  20.163   6.805  0.0554  0.0154  0.1917
  871POPE   C1B13287  16.077  20.621   5.602 -0.0976  0.0133 -0.2754
  871POPE   C2B13288  16.138  20.800   5.935  0.0023 -0.4491 -0.2216
  871POPE   C3B13289  16.060  20.694   6.433 -0.4560 -0.0536 -0.0821
  871POPE   C4B13290  16.111  20.311   6.706 -0.1564  0.2513 -0.1436
  872POPE   NH313291   0.000  19.439   4.689  0.1121 -0.0093 -0.3331
  872POPE   PO413292  -0.221  19.051   4.833 -0.2073  0.2261 -0.2889
  872POPE   GL113293  -0.188  19.026   5.343 -0.2304 -0.1912 -0.0803
  872POPE   GL213294  -0.487  18.932   5.555 -0.1622 -0.0797  0.2167
  872POPE   C1A13295   0.076  19.083   5.720  0.0291 -0.1610 -0.2241
  872POPE   D2A13296   0.063  18.728   5.970  0.2187 -0.0595 -0.2189
  872POPE   C3A13297  -0.001  18.425   6.360  0.5210  0.0463 -0.3249
  872POPE   C4A13298  -0.225  18.563   6.685  0.1753 -0.0632  0.0012
  872POPE   C1B13299  -0.405  19.050   5.997 -0.0603 -0.0239 -0.1502
  872POPE   C2B13300  -0.509  19.318   6.361 -0.1931  0.0715  0.0603
  872POPE   C3B13301  -0.440  19.161   6.776  0.0822 -0.1371  0.0593
  872POPE   C4B13302  -0.013  19.008   7.014 -0.0643  0.2120  0.1439
  873POPE   NH313303  18.546  12.869   4.681  0.1254 -0.1437  0.3821
  873POPE   PO413304  18.636  13.238   4.978  0.0378  0.1366 -0.0157
  873POPE   GL113305  18.621  13.582   5.256 -0.1898  0.3779 -0.1542
  873POPE   GL213306  18.403  13.804   5.229 -0.1482  0.4306  0.1075
  873POPE   C1A13307  18.869  13.362   5.630 -0.1838 -0.0582 -0.0263
  873POPE   D2A13308  18.951  13.116   6.013 -0.1940 -0.1012  0.1369
  873POPE   C3A13309  18.661  12.998   6.304 -0.0119 -0.4326  0.0398
  873POPE   C4A13310  18.651  13.103   6.736 -0.2126 -0.1581  0.3674
  873POPE   C1B13311  18.221  13.870   5.539 -0.0904 -0.0253 -0.1063
  873POPE   C2B13312  18.082  13.903   5.866 -0.0417 -0.0853  0.0544
  873POPE   C3B13313  17.848  13.641   6.270 -0.0087  0.0484 -0.3807
  873POPE   C4B13314  17.714  13.288   6.470  0.1989  0.1424  0.0367
  874YOPE   NH313315   6.705  17.570   4.501 -0.0456  0.0349  0.0928
  874YOPE   PO413316   6.983  17.530   4.901  0.0314 -0.1009 -0.4002
  874YOPE   GL113317   6.817  17.660   5.280  0.0148  0.1726  0.2606
  874YOPE   GL213318   6.880  17.481   5.548 -0.3277  0.2144  0.0743
  874YOPE   C1A13319   6.613  17.873   5.685 -0.3025  0.2475 -0.2944
  874YOPE   D2A13320   6.821  17.983   6.053  0.2533 -0.1275 -0.1958
  874YOPE   C3A13321   6.545  18.295   6.216  0.0523 -0.1664  0.1660
  874YOPE   C4A13322   6.233  18.561   6.378 -0.1890  0.1952 -0.0796
  874YOPE   C1B13323   6.977  17.557   5.902 -0.2051 -0.2947 -0.1091
  874YOPE   C2B13324   7.205  17.461   6.141 -0.1822  0.2700 -0.1370
  874YOPE   D3B13325   7.416  17.446   6.475 -0.4040 -0.2970 -0.1211
  874YOPE   C4B13326   7.485  17.335   6.892 -0.0638  0.0518 -0.0918
  875YOPE   NH313327   7.451   4.684   4.677  0.0047 -0.2038  0.2578
  875YOPE   PO413328   7.400   5.147   4.665 -0.3192  0.2538 -0.0326
  875YOPE   GL113329   7.545   5.153   5.132  0.4255  0.1479 -0.2582
  875YOPE   GL213330   7.763   4.815   5.303  0.0320  0.2590 -0.1745
  875YOPE   C1A13331   7.585   5.227   5.549  0.0424  0.1101  0.0764
  875YOPE   D2A13332   7.595   5.427   5.997  0.2155  0.2402 -0.1940
  875YOPE   C3A13333   7.495   5.854   5.922  0.1251  0.3411 -0.1402
  875YOPE   C4A13334   7.166   6.046   5.759 -0.1059  0.2408 -0.1568
  875YOPE   C1B13335   7.986   4.658   5.587  0.1687 -0.1036 -0.4102
  875YOPE   C2B13336   8.314   4.480   5.882 -0.0015  0.0744  0.0284
  875YOPE   D3B13337   8.647   4.575   6.138 -0.1274 -0.0558  0.3140
  875YOPE   C4B13338   9.063   4.555   6.346  0.2162 -0.1371  0.1511
  876YOPE   NH313339   0.951  12.509   5.499 -0.2326 -0.0430  0.0067
  876YOPE   PO413340   0.680  12.929   5.529  0.3945  0.4254  0.0762
  876YOPE   GL113341   0.648  12.688   5.863 -0.0206  0.0157  0.0518
  876YOPE   GL213342   0.313  12.701   5.872 -0.2085  0.1431 -0.1131
  876YOPE   C1A13343   0.741  12.550   6.281  0.1748 -0.2289 -0.1169
  876YOPE   D2A13344   0.848  12.343   6.577 -0.0249  0.0281 -0.2140
  876YOPE   C3A13345   1.058  12.413   6.879 -0.0093  0.3352 -0.4262
  876YOPE   C4A13346   1.022  12.528   7.271 -0.0664  0.1218 -0.0883
  876YOPE   C1B13347  -0.089  12.673   5.970  0.0559  0.3707  0.3579
  876YOPE   C2B13348  -0.409  12.472   6.193  0.3121 -0.0318  0.1109
  876YOPE   D3B13349  -0.488  12.543   6.608  0.0768  0.1538  0.2761
  876YOPE   C4B13350  -0.266  12.788   6.878  0.2471 -0.1235  0.2131
  877YOPE   NH313351  15.043  18.560   4.968 -0.2668 -0.0277  0.1323
  877YOPE   PO413352  15.068  19.066   4.950 -0.0203  0.2201 -0.0611
  877YOPE   GL113353  14.909  18.861   5.344 -0.2274  0.1950 -0.0334
  877YOPE   GL213354  15.119  18.649   5.579 -0.0664 -0.1541  0.0030
  877YOPE   C1A13355  14.678  18.731   5.778  0.2889 -0.0824 -0.1785
  877YOPE   D2A13356  14.451  18.784   6.091 -0.1556  0.1828 -0.0171
  877YOPE   C3A13357  14.129  18.592   6.430 -0.1261  0.4228  0.0451
  877YOPE   C4A13358  13.877  18.597   6.653 -0.0430 -0.0078  0.1183
  877YOPE   C1B13359  15.382  18.651   5.892  0.4863 -0.2848  0.2274
  877YOPE   C2B13360  15.340  18.380   6.259 -0.0550 -0.2691 -0.0853
  877YOPE   D3B13361  15.126  18.256   6.618 -0.1388 -0.3050 -0.0059
  877YOPE   C4B13362  14.892  18.247   6.946 -0.0817  0.0823  0.1133
  878YOPE   NH313363   4.479  14.553   5.412 -0.1066 -0.1009  0.3385
  878YOPE   PO413364   4.993  14.543   5.462  0.1327  0.0888 -0.2060
  878YOPE   GL113365   4.850  14.520   5.814  0.1452 -0.2502 -0.0527
  878YOPE   GL213366   4.543  14.543   5.946  0.6650 -0.3091  0.0998
  878YOPE   C1A13367   4.900  14.632   6.234  0.1060  0.0489  0.3226
  878YOPE   D2A13368   4.994  14.702   6.643 -0.1436  0.1526  0.0124
  878YOPE   C3A13369   5.054  14.935   7.034 -0.3219 -0.0681  0.0269
  878YOPE   C4A13370   4.959  15.175   7.450  0.0771  0.0526 -0.0229
  878YOPE   C1B13371   4.470  14.502   6.388 -0.0833 -0.1744 -0.0455
  878YOPE   C2B13372   4.364  14.270   6.763 -0.1145 -0.2517 -0.0006
  878YOPE   D3B13373   4.442  14.164   7.224 -0.0844  0.0362 -0.0379
  878YOPE   C4B13374   4.839  14.072   7.520 -0.4027 -0.1276 -0.0007
  879YOPE   NH313375  12.007  17.896   5.494  0.2377  0.1695 -0.6303
  879YOPE   PO413376  12.413  17.804   5.471 -0.2580  0.3608 -0.1042
  879YOPE   GL113377  12.485  18.058   5.778  0.5665 -0.0386 -0.0209
  879YOPE   GL213378  12.736  18.187   5.655 -0.2627 -0.0319 -0.3752
  879YOPE   C1A13379  12.433  18.083   6.208 -0.0136 -0.4663 -0.2465
  879YOPE   D2A13380  12.584  18.240   6.501  0.2752 -0.1602 -0.0900
  879YOPE   C3A13381  12.513  18.560   6.800  0.0323  0.1786 -0.0031
  879YOPE   C4A13382  12.576  19.073   6.830 -0.1397 -0.1917 -0.0347
  879YOPE   C1B13383  12.578  18.567   5.933 -0.1676  0.0882 -0.3579
  879YOPE   C2B13384  12.358  18.794   6.274  0.0368  0.2825  0.0750
  879YOPE   D3B13385  12.102  18.937   6.640  0.3199 -0.0818 -0.0507
  879YOPE   C4B13386  11.694  19.099   6.794 -0.0317  0.1623 -0.3179
  880YOPE   NH313387  16.114   7.536   5.271 -0.0676  0.0878 -0.2589
  880YOPE   PO413388  15.687   7.344   4.985  0.0384  0.1869 -0.0334
  880YOPE   GL113389  15.762   7.148   5.324  0.1780  0.0786  0.0086
  880YOPE   GL213390  16.000   7.157   5.613 -0.4777  0.2520 -0.2384
  880YOPE   C1A13391  15.557   6.938   5.630 -0.3158  0.0013  0.1540
  880YOPE   D2A13392  15.560   6.951   6.150 -0.0463 -0.0071  0.1878
  880YOPE   C3A13393  15.699   6.756   6.507  0.3004  0.2930 -0.1398
  880YOPE   C4A13394  15.844   6.323   6.822 -0.0576  0.2786 -0.1128
  880YOPE   C1B13395  15.711   7.377   5.931  0.1023 -0.0287  0.0095
  880YOPE   C2B13396  15.539   7.676   6.036  0.0114 -0.1930  0.0480
  880YOPE   D3B13397  15.511   7.821   6.424  0.0989 -0.3390 -0.3370
  880YOPE   C4B13398  15.681   7.919   6.838 -0.0638  0.5303 -0.0792
  881YOPE   NH313399   0.225   9.231   5.117 -0.2265  0.0093 -0.0883
  881YOPE   PO413400   0.444   9.454   5.022  0.0644 -0.0944 -0.2738
  881YOPE   GL113401   0.514   9.533   5.461 -0.4193  0.1221  0.2428
  881YOPE   GL213402   0.444   9.302   5.567 -0.0906  0.0119 -0.1056
  881YOPE   C1A13403   0.871   9.672   5.796 -0.1381  0.2931  0.0046
  881YOPE   D2A13404   0.993   9.946   6.164  0.1370  0.2440 -0.2614
  881YOPE   C3A13405   1.208   9.805   6.448  0.1211 -0.0995 -0.0919
  881YOPE   C4A13406   1.195   9.592   6.854  0.0811 -0.2048 -0.0402
  881YOPE   C1B13407   0.560   9.326   6.054  0.1537  0.4507 -0.2597
  881YOPE   C2B13408   0.951   9.384   6.369 -0.1033  0.1897  0.1030
  881YOPE   D3B13409   1.066   9.143   6.747 -0.3638 -0.3310 -0.1325
  881YOPE   C4B13410   1.262   8.906   6.887  0.2692  0.0432  0.0078
  882YOPE   NH313411  11.876   2.940   4.905 -0.0383  0.4642  0.1272
  882YOPE   PO413412  11.961   3.262   5.166 -0.2019  0.2032  0.0791
  882YOPE   GL113413  11.831   3.079   5.491 -0.1160  0.0547  0.0108
  882YOPE   GL213414  11.560   3.199   5.577  0.0514  0.0575  0.2104
  882YOPE   C1A13415  11.950   3.271   5.890 -0.0217  0.2070  0.0384
  882YOPE   D2A13416  11.982   3.498   6.300 -0.2148 -0.3167 -0.1145
  882YOPE   C3A13417  11.933   3.933   6.406 -0.5123  0.0345 -0.0737
  882YOPE   C4A13418  11.558   4.059   6.403 -0.0092  0.1321  0.0170
  882YOPE   C1B13419  11.304   3.174   5.940 -0.2067  0.1347 -0.0338
  882YOPE   C2B13420  11.575   3.300   6.171  0.0602  0.0466  0.0163
  882YOPE   D3B13421  11.943   3.075   6.546 -0.2916 -0.1614 -0.0769
  882YOPE   C4B13422  12.368   3.161   6.496  0.1798 -0.3168 -0.1069
  883YOPE   NH313423   5.041   2.799   4.700  0.5653 -0.2856  0.0221
  883YOPE   PO413424   5.378   2.612   4.930  0.0817  0.1567  0.0759
  883YOPE   GL113425   5.484   2.689   5.288  0.1136  0.3121 -0.0403
  883YOPE   GL213426   5.273   2.841   5.442 -0.3124  0.2601  0.0252
  883YOPE   C1A13427   5.796   2.611   5.677  0.0043  0.2681 -0.0397
  883YOPE   D2A13428   5.637   2.628   6.046 -0.0066 -0.1383  0.0195
  883YOPE   C3A13429   5.713   2.192   6.341  0.0293 -0.1804 -0.2960
  883YOPE   C4A13430   5.609   1.966   6.721  0.0266  0.0958 -0.2939
  883YOPE   C1B13431   5.265   2.893   5.791 -0.3061 -0.2151 -0.1412
  883YOPE   C2B13432   5.273   2.793   6.306 -0.2670  0.1733  0.0291
  883YOPE   D3B13433   5.311   2.475   6.538 -0.0229 -0.0073 -0.0758
  883YOPE   C4B13434   5.635   2.483   6.841 -0.1229  0.0068 -0.0565
  884YOPE   NH313435  17.988  10.264   4.772 -0.1798  0.0379 -0.1162
  884YOPE   PO413436  18.188  10.550   4.877 -0.1498 -0.2225 -0.0531
  884YOPE   GL113437  17.978  10.490   5.235  0.0603 -0.2320 -0.2177
  884YOPE   GL213438  18.089  10.610   5.491 -0.0853 -0.0377 -0.0671
  884YOPE   C1A13439  17.801  10.350   5.722  0.3139  0.5680 -0.3744
  884YOPE   D2A13440  17.754  10.343   6.172  0.1090 -0.3653 -0.0433
  884YOPE   C3A13441  17.862  10.455   6.612 -0.1080 -0.2446 -0.3618
  884YOPE   C4A13442  17.962  10.198   6.973 -0.0301 -0.3297 -0.0608
  884YOPE   C1B13443  18.146  10.659   5.912 -0.0461  0.0840  0.0045
  884YOPE   C2B13444  18.223  10.291   6.316 -0.3676 -0.3382  0.3461
  884YOPE   D3B13445  18.289  10.014   6.608  0.3104 -0.0217  0.0459
  884YOPE   C4B13446  18.330   9.917   7.126  0.2581  0.0042 -0.0238
  885YOPE   NH313447   7.329   2.330   4.824  0.3466  0.0639  0.2355
  885YOPE   PO413448   7.106   1.976   4.900  0.3346 -0.1344  0.2701
  885YOPE   GL113449   6.866   1.846   5.199 -0.1283  0.1994 -0.0428
  885YOPE   GL213450   6.566   1.770   5.185  0.0953  0.4782  0.1318
  885YOPE   C1A13451   6.942   1.636   5.558  0.2123  0.2576  0.0207
  885YOPE   D2A13452   6.894   1.431   5.881  0.1838  0.2453 -0.2049
  885YOPE   C3A13453   6.946   1.518   6.355 -0.0865 -0.1686 -0.2151
  885YOPE   C4A13454   6.801   1.489   6.730 -0.1746 -0.2171  0.4015
  885YOPE   C1B13455   6.569   1.955   5.595  0.0789  0.2357  0.0721
  885YOPE   C2B13456   6.399   1.962   6.068 -0.0948  0.0406 -0.1022
  885YOPE   D3B13457   6.416   2.333   6.328  0.0381  0.0180 -0.1891
  885YOPE   C4B13458   6.617   2.435   6.745 -0.1039 -0.0646  0.2909
  886YOPE   NH313459  14.300  13.620   5.209  0.4446 -0.0372 -0.2921
  886YOPE   PO413460  14.708  13.801   5.385 -0.2660 -0.4070 -0.0286
  886YOPE   GL113461  14.660  13.901   5.802 -0.0026 -0.1971 -0.0512
  886YOPE   GL213462  14.881  13.885   6.026  0.0071  0.0376 -0.0027
  886YOPE   C1A13463  14.367  13.954   6.154  0.2412 -0.1038 -0.0097
  886YOPE   D2A13464  14.370  13.691   6.576 -0.3718 -0.1282 -0.0464
  886YOPE   C3A13465  14.070  13.592   6.789 -0.0102  0.1929  0.2191
  886YOPE   C4A13466  13.928  13.340   7.084 -0.2020  0.0937 -0.0252
  886YOPE   C1B13467  14.974  13.912   6.417 -0.1674  0.0364  0.6183
  886YOPE   C2B13468  15.299  14.005   6.679  0.2720 -0.0996 -0.3482
  886YOPE   D3B13469  15.298  14.132   7.073 -0.0459 -0.2414 -0.3607
  886YOPE   C4B13470  15.226  14.400   7.373  0.1306  0.0880 -0.2131
  887YOPE   NH313471   4.311  11.787   4.951 -0.1049  0.1826 -0.4756
  887YOPE   PO413472   4.346  11.382   5.211 -0.1689  0.0344 -0.1702
  887YOPE   GL113473   4.158  11.397   5.627  0.0517  0.1127 -0.3388
  887YOPE   GL213474   4.113  11.552   5.785  0.0668  0.0095  0.1057
  887YOPE   C1A13475   4.417  11.178   6.019 -0.0217 -0.0059  0.2077
  887YOPE   D2A13476   4.528  10.961   6.368 -0.1083 -0.3324  0.0807
  887YOPE   C3A13477   4.466  10.603   6.589  0.4761 -0.0277 -0.2360
  887YOPE   C4A13478   4.218  10.407   7.012  0.1328 -0.3171  0.0692
  887YOPE   C1B13479   4.020  11.398   6.283  0.1395 -0.2479  0.0380
  887YOPE   C2B13480   3.731  11.320   6.653 -0.0272  0.3456 -0.2887
  887YOPE   D3B13481   3.370  11.282   7.083  0.2268  0.4464  0.0644
  887YOPE   C4B13482   2.876  11.099   7.078  0.3449 -0.3007 -0.0832
  888YOPE   NH313483   0.993   2.153   5.355 -0.0712 -0.1681  0.3575
  888YOPE   PO413484   0.503   2.233   5.316 -0.0569  0.1031  0.1846
  888YOPE   GL113485   0.635   2.164   5.695  0.3105  0.3690 -0.0159
  888YOPE   GL213486   0.502   2.441   5.733  0.3513  0.0399 -0.0180
  888YOPE   C1A13487   0.656   2.235   6.173 -0.1362 -0.1634 -0.2260
  888YOPE   D2A13488   0.584   2.212   6.552  0.0763  0.0784  0.2440
  888YOPE   C3A13489   0.306   2.310   6.940  0.1646  0.1243 -0.0159
  888YOPE   C4A13490  -0.015   2.090   7.282 -0.1764 -0.0358 -0.1393
  888YOPE   C1B13491   0.158   2.570   5.999  0.1396 -0.0176 -0.4189
  888YOPE   C2B13492   0.089   2.477   6.502 -0.2757  0.1908 -0.0888
  888YOPE   D3B13493  -0.185   2.277   6.865 -0.2843 -0.0596 -0.1376
  888YOPE   C4B13494  -0.444   2.415   7.238 -0.0105  0.1014  0.3196
  889YOPE   NH313495  15.919   5.044   5.098 -0.1382  0.0115 -0.2225
  889YOPE   PO413496  16.356   5.049   5.017 -0.3016  0.0441 -0.0605
  889YOPE   GL113497  16.390   5.025   5.442 -0.0054 -0.0443 -0.1462
  889YOPE   GL213498  16.131   4.882   5.508 -0.1440 -0.0068 -0.2184
  889YOPE   C1A13499  16.352   5.201   5.868 -0.0636  0.0862 -0.1405
  889YOPE   D2A13500  16.065   4.953   6.021 -0.2979 -0.1876  0.1984
  889YOPE   C3A13501  16.167   4.941   6.490 -0.0605  0.0853 -0.2093
  889YOPE   C4A13502  16.211   4.897   6.894  0.1234  0.0245  0.0782
  889YOPE   C1B13503  15.869   5.259   5.702  0.1236  0.2056 -0.1542
  889YOPE   C2B13504  15.977   5.447   6.188  0.2607  0.2477 -0.0946
  889YOPE   D3B13505  16.055   5.396   6.580 -0.0924 -0.1212  0.0197
  889YOPE   C4B13506  15.889   5.318   6.897  0.0483  0.3773 -0.0785
  890YOPE   NH313507   3.403  16.773   5.265 -0.2316  0.2740  0.2743
  890YOPE   PO413508   3.066  17.001   5.315 -0.0162 -0.3680  0.0930
  890YOPE   GL113509   3.130  17.317   5.660 -0.0841 -0.0813 -0.1565
  890YOPE   GL213510   2.928  17.344   5.789  0.0603  0.3746  0.2429
  890YOPE   C1A13511   3.413  17.476   5.971  0.1277 -0.2624 -0.1846
  890YOPE   D2A13512   3.578  17.544   6.322  0.0204 -0.1676  0.0014
  890YOPE   C3A13513   3.306  17.603   6.672 -0.1132 -0.0771  0.0301
  890YOPE   C4A13514   3.282  17.362   7.124 -0.0427  0.0170 -0.2584
  890YOPE   C1B13515   3.019  17.301   6.294  0.2538 -0.0511 -0.2397
  890YOPE   C2B13516   2.888  17.294   6.710  0.0237  0.3638 -0.3349
  890YOPE   D3B13517   2.810  17.197   7.108  0.3678  0.6381 -0.0067
  890YOPE   C4B13518   2.618  16.970   7.508 -0.2327 -0.1384  0.2312
  891YOPE   NH313519  16.879   6.598   4.730 -0.2695 -0.2083  0.0908
  891YOPE   PO413520  17.006   6.212   4.817  0.1702 -0.0329  0.2319
  891YOPE   GL113521  17.297   6.187   5.144  0.1717 -0.4733 -0.1632
  891YOPE   GL213522  17.424   5.969   5.206  0.1546 -0.3329 -0.2350
  891YOPE   C1A13523  17.495   6.276   5.625  0.3442  0.1750 -0.0840
  891YOPE   D2A13524  17.426   6.038   5.953  0.3058  0.1197  0.0395
  891YOPE   C3A13525  17.453   6.174   6.426  0.0823  0.4903 -0.0967
  891YOPE   C4A13526  17.437   6.135   6.830 -0.2499  0.1931  0.0395
  891YOPE   C1B13527  17.541   5.735   5.544  0.2500  0.4051 -0.0954
  891YOPE   C2B13528  17.769   5.633   5.948  0.0779  0.0038 -0.4241
  891YOPE   D3B13529  17.789   5.803   6.379  0.2084 -0.0859  0.3026
  891YOPE   C4B13530  18.149   5.880   6.662  0.0955 -0.1030 -0.0235
  892YOPE   NH313531  18.857  10.088   5.364 -0.0965  0.5079 -0.3102
  892YOPE   PO413532  18.676   9.723   5.151  0.0716 -0.1105  0.3599
  892YOPE   GL113533  18.850   9.604   5.546 -0.3306  0.2892 -0.1164
  892YOPE   GL213534  18.803   9.835   5.813  0.0658  0.1255 -0.1765
  892YOPE   C1A13535  18.911   9.298   5.939 -0.3084  0.0505  0.1130
  892YOPE   D2A13536  19.129   9.036   6.258 -0.1797  0.0187  0.1315
  892YOPE   C3A13537  19.265   8.790   6.617  0.1980  0.0028  0.2598
  892YOPE   C4A13538  18.982   8.691   6.914 -0.2373 -0.3289  0.0058
  892YOPE   C1B13539  18.576   9.836   6.206  0.1752  0.0342 -0.0495
  892YOPE   C2B13540  18.710   9.641   6.493  0.1950  0.0744  0.4237
  892YOPE   D3B13541  18.760   9.663   6.909  0.2804 -0.1259  0.0882
  892YOPE   C4B13542  18.857  10.017   7.260  0.1277  0.1809 -0.0565
  893YOPE   NH313543  15.377  16.039   4.593 -0.0265  0.0979 -0.2097
  893YOPE   PO413544  15.319  15.742   5.035  0.3847 -0.2865  0.0392
  893YOPE   GL113545  15.188  15.673   5.498  0.1057 -0.2241  0.2789
  893YOPE   GL213546  15.333  15.466   5.746 -0.1478 -0.0573 -0.0906
  893YOPE   C1A13547  14.889  15.811   5.878 -0.0784 -0.3249  0.1404
  893YOPE   D2A13548  14.641  15.592   5.998 -0.0579  0.3465  0.1215
  893YOPE   C3A13549  14.847  15.476   6.371 -0.0306  0.3280 -0.1839
  893YOPE   C4A13550  14.989  15.253   6.637  0.1199 -0.0704  0.1546
  893YOPE   C1B13551  15.331  15.546   6.179 -0.0756  0.0496  0.0087
  893YOPE   C2B13552  15.728  15.606   6.460  0.2349 -0.0335  0.2099
  893YOPE   D3B13553  15.761  15.971   6.779 -0.0512  0.2434  0.1413
  893YOPE   C4B13554  16.107  16.107   6.958 -0.1559  0.2245 -0.5729
  894YOPE   NH313555   6.487   0.302   4.884 -0.1520 -0.0642 -0.0441
  894YOPE   PO413556   6.671  -0.050   5.104 -0.1038  0.1151  0.0652
  894YOPE   GL113557   6.550   0.160   5.395 -0.1865 -0.0280 -0.1999
  894YOPE   GL213558   6.390   0.447   5.382  0.2056  0.0158  0.1429
  894YOPE   C1A13559   6.448   0.256   5.818  0.2970  0.0737 -0.0324
  894YOPE   D2A13560   6.258   0.456   6.155  0.2027  0.2578  0.1934
  894YOPE   C3A13561   6.362   0.178   6.367  0.0160  0.1699 -0.1134
  894YOPE   C4A13562   6.307  -0.014   6.713  0.1648 -0.1030 -0.1893
  894YOPE   C1B13563   6.016   0.395   5.617  0.0557 -0.1143  0.1681
  894YOPE   C2B13564   5.669   0.420   5.959 -0.0530 -0.2324 -0.0511
  894YOPE   D3B13565   5.792   0.487   6.341 -0.2523  0.2019 -0.0936
  894YOPE   C4B13566   5.741   0.691   6.689 -0.1310  0.2826  0.0295
  895YOPE   NH313567   7.490   9.936   5.186 -0.0517  0.4494  0.0394
  895YOPE   PO413568   7.093  10.049   4.954  0.0280  0.1602 -0.1288
  895YOPE   GL113569   7.040   9.900   5.382  0.2786  0.1073 -0.0245
  895YOPE   GL213570   7.034   9.620   5.569  0.2596  0.0953 -0.0482
  895YOPE   C1A13571   6.776  10.051   5.765 -0.1317 -0.1246  0.0585
  895YOPE   D2A13572   6.543  10.162   6.184  0.0029 -0.1068  0.2685
  895YOPE   C3A13573   6.116  10.018   6.322 -0.0139  0.0624 -0.1408
  895YOPE   C4A13574   5.657   9.897   6.377 -0.0826 -0.3547 -0.3024
  895YOPE   C1B13575   7.080   9.802   6.023 -0.2185  0.0260 -0.0292
  895YOPE   C2B13576   6.882   9.923   6.425 -0.1445 -0.1122 -0.0522
  895YOPE   D3B13577   6.973  10.058   6.848 -0.0962 -0.1908  0.1772
  895YOPE   C4B13578   6.777  10.284   7.179  0.3055  0.1301 -0.0021
  896YOPE   NH313579  15.678   3.343   5.187 -0.2118  0.2158 -0.1754
  896YOPE   PO413580  15.839   3.009   5.307  0.2126  0.0439 -0.1715
  896YOPE   GL113581  15.760   3.359   5.713  0.2576  0.1649 -0.1027
  896YOPE   GL213582  15.438   3.586   5.512  0.3806 -0.0634  0.1948
  896YOPE   C1A13583  15.632   3.241   6.103  0.0496 -0.1162 -0.2133
  896YOPE   D2A13584  15.615   3.124   6.521  0.1659 -0.1975  0.0427
  896YOPE   C3A13585  15.816   3.315   6.872 -0.0230 -0.3894  0.2520
  896YOPE   C4A13586  16.038   3.399   7.218 -0.0344  0.3848 -0.0437
  896YOPE   C1B13587  15.305   3.872   5.885  0.2561  0.2414 -0.1897
  896YOPE   C2B13588  15.034   3.967   6.243  0.3715  0.0348  0.1535
  896YOPE   D3B13589  14.888   4.239   6.560 -0.0207 -0.2701  0.0323
  896YOPE   C4B13590  14.564   4.502   6.846 -0.0392 -0.1973  0.2176
  897YOPE   NH313591   5.307   6.144   5.368 -0.3902 -0.1419 -0.3088
  897YOPE   PO413592   4.899   6.370   5.286 -0.0865  0.2400  0.2735
  897YOPE   GL113593   4.829   6.347   5.728 -0.0495  0.1408  0.0585
  897YOPE   GL213594   4.473   6.290   5.594  0.1243  0.1046  0.3054
  897YOPE   C1A13595   4.776   6.263   6.162  0.0010  0.3643  0.1325
  897YOPE   D2A13596   4.964   6.130   6.543  0.0720  0.0714  0.0971
  897YOPE   C3A13597   4.834   5.713   6.722  0.3468  0.3101  0.0530
  897YOPE   C4A13598   4.876   5.242   6.651  0.0543  0.0627 -0.2047
  897YOPE   C1B13599   4.403   6.630   5.803  0.0086  0.1745  0.1463
  897YOPE   C2B13600   4.579   6.714   6.270 -0.0431 -0.0971 -0.1708
  897YOPE   D3B13601   4.616   6.579   6.667 -0.0392 -0.0067  0.1012
  897YOPE   C4B13602   4.751   6.632   6.988  0.1214 -0.1484 -0.1356
  898YOPE   NH313603  16.680  15.530   5.083 -0.2580  0.0474  0.0765
  898YOPE   PO413604  17.000  15.815   4.961 -0.5213  0.3577 -0.3491
  898YOPE   GL113605  17.046  15.902   5.331 -0.0288 -0.2850 -0.3771
  898YOPE   GL213606  16.943  15.597   5.524 -0.1034 -0.4582 -0.1146
  898YOPE   C1A13607  17.013  16.019   5.740  0.0818  0.0447 -0.0778
  898YOPE   D2A13608  17.037  16.024   6.206 -0.0654  0.4897 -0.1409
  898YOPE   C3A13609  17.305  16.208   6.531  0.1516  0.2144  0.0854
  898YOPE   C4A13610  17.334  16.504   6.877  0.0715 -0.0531 -0.0107
  898YOPE   C1B13611  16.784  15.222   5.857 -0.0546  0.1885  0.1269
  898YOPE   C2B13612  16.656  14.951   6.261  0.1874 -0.1187  0.0373
  898YOPE   D3B13613  16.290  14.683   6.351 -0.1558 -0.0089  0.0394
  898YOPE   C4B13614  16.208  14.532   6.845  0.3420  0.2193  0.1471
  899YOPE   NH313615   5.450  12.629   5.245  0.0419  0.2295  0.1816
  899YOPE   PO413616   5.675  12.309   5.308  0.0183  0.2108 -0.0815
  899YOPE   GL113617   5.655  12.365   5.760 -0.0081 -0.0818 -0.0265
  899YOPE   GL213618   5.580  12.023   5.892 -0.0580  0.3971 -0.0064
  899YOPE   C1A13619   5.177  12.399   6.097 -0.1631  0.1260  0.2138
  899YOPE   D2A13620   4.922  12.409   6.510 -0.0855  0.0248  0.0744
  899YOPE   C3A13621   5.019  12.605   6.946 -0.2087  0.1731  0.0899
  899YOPE   C4A13622   5.273  12.512   7.291 -0.1245 -0.0969  0.1660
  899YOPE   C1B13623   5.914  12.128   6.094  0.0621 -0.0054 -0.4142
  899YOPE   C2B13624   6.362  12.181   6.286  0.0520 -0.0919  0.1763
  899YOPE   D3B13625   6.426  12.185   6.643  0.1161 -0.4434 -0.1452
  899YOPE   C4B13626   6.576  12.059   6.925 -0.4019 -0.0579 -0.2850
  900YOPE   NH313627  14.522   8.846   4.825 -0.2523 -0.0541 -0.4826
  900YOPE   PO413628  14.869   8.507   4.802  0.0683 -0.0016 -0.0927
  900YOPE   GL113629  14.559   8.449   5.159  0.0204 -0.1709 -0.2649
  900YOPE   GL213630  14.531   8.208   5.226  0.0094 -0.2464  0.2904
  900YOPE   C1A13631  14.369   8.647   5.473 -0.2022 -0.2539 -0.1014
  900YOPE   D2A13632  14.093   9.043   5.518  0.3674 -0.0555  0.0138
  900YOPE   C3A13633  14.086   9.274   5.836 -0.0331  0.1181  0.1846
  900YOPE   C4A13634  14.418   9.158   6.076 -0.2189  0.3128 -0.3760
  900YOPE   C1B13635  14.473   8.170   5.628  0.0214 -0.4009  0.1500
  900YOPE   C2B13636  14.487   8.358   6.029 -0.0010 -0.0118  0.1433
  900YOPE   D3B13637  14.432   8.313   6.549  0.3159 -0.1259  0.0548
  900YOPE   C4B13638  14.636   8.129   6.934  0.0824 -0.1355  0.1843
  901YOPE   NH313639  16.649  10.357   5.063 -0.2790  0.0999  0.0561
  901YOPE   PO413640  16.289  10.456   4.751 -0.2305  0.0477  0.1695
  901YOPE   GL113641  16.237  10.538   5.242  0.2681  0.1279  0.1504
  901YOPE   GL213642  16.409  10.845   5.302 -0.1174  0.1098 -0.4310
  901YOPE   C1A13643  16.005  10.302   5.564 -0.1738  0.3721  0.2138
  901YOPE   D2A13644  16.061  10.168   5.938  0.1888  0.0489 -0.0565
  901YOPE   C3A13645  15.700  10.126   6.194 -0.0239  0.2708 -0.0357
  901YOPE   C4A13646  15.586   9.852   6.536  0.0475  0.1572  0.0326
  901YOPE   C1B13647  15.982  10.830   5.593  0.0673 -0.2163 -0.2683
  901YOPE   C2B13648  15.605  10.835   5.885  0.1182  0.0788 -0.1062
  901YOPE   D3B13649  15.410  10.610   6.159 -0.1505 -0.0893 -0.0282
  901YOPE   C4B13650  15.659  10.577   6.559  0.0138 -0.0152  0.0372
  902YOPE   NH313651   7.582  18.189   5.227  0.0863 -0.0756  0.0063
  902YOPE   PO413652   7.229  17.914   5.187 -0.0055 -0.3616  0.0858
  902YOPE   GL113653   7.304  17.747   5.599  0.1154 -0.0879  0.1559
  902YOPE   GL213654   7.425  17.513   5.678 -0.1598  0.1677 -0.0039
  902YOPE   C1A13655   7.307  17.935   5.972  0.0145 -0.1668 -0.0839
  902YOPE   D2A13656   7.251  17.900   6.442 -0.2984 -0.2516 -0.1344
  902YOPE   C3A13657   6.888  17.977   6.543 -0.0671 -0.0692 -0.0672
  902YOPE   C4A13658   6.553  17.999   6.699 -0.1507 -0.0456  0.3321
  902YOPE   C1B13659   7.653  17.267   5.944  0.2297 -0.2238  0.1951
  902YOPE   C2B13660   7.863  17.189   6.274  0.0636 -0.1524  0.2197
  902YOPE   D3B13661   7.828  17.129   6.641 -0.0074  0.1826  0.0867
  902YOPE   C4B13662   7.736  16.804   6.969  0.0741  0.0936  0.0127
  903YOPE   NH313663   4.073  15.765   5.398 -0.3404  0.3520 -0.2628
  903YOPE   PO413664   4.220  16.042   5.148 -0.3904 -0.1147 -0.0257
  903YOPE   GL113665   4.407  16.132   5.544  0.0089 -0.2721 -0.0601
  903YOPE   GL213666   4.534  15.904   5.590  0.3768  0.3740  0.0488
  903YOPE   C1A13667   4.290  16.429   5.779 -0.0788 -0.2175  0.1730
  903YOPE   D2A13668   3.924  16.560   6.089  0.0543 -0.0942 -0.0101
  903YOPE   C3A13669   3.775  16.207   6.423 -0.3002  0.1767  0.1774
  903YOPE   C4A13670   3.532  15.984   6.834 -0.1131 -0.4642  0.2780
  903YOPE   C1B13671   4.324  15.796   6.054  0.1357  0.0936 -0.2355
  903YOPE   C2B13672   4.155  15.827   6.419  0.1014  0.0066 -0.2482
  903YOPE   D3B13673   4.003  15.750   6.770 -0.1123 -0.1136 -0.2262
  903YOPE   C4B13674   3.798  15.712   7.107  0.3111  0.1862 -0.0031
  904YOPE   NH313675   1.939  16.969   5.387  0.0665  0.1133  0.0967
  904YOPE   PO413676   1.676  16.570   5.279 -0.4236  0.3538 -0.0776
  904YOPE   GL113677   1.792  16.643   5.775  0.2115  0.0493  0.2194
  904YOPE   GL213678   2.150  16.577   5.710  0.2158 -0.0603 -0.1145
  904YOPE   C1A13679   1.700  16.578   6.276  0.1224 -0.2286 -0.0699
  904YOPE   D2A13680   1.796  16.287   6.654 -0.1331 -0.0771  0.0456
  904YOPE   C3A13681   1.733  15.910   6.980 -0.0159  0.0144 -0.0006
  904YOPE   C4A13682   1.573  15.823   7.363  0.0094 -0.4445  0.1007
  904YOPE   C1B13683   2.464  16.493   6.081 -0.1733 -0.0624  0.2785
  904YOPE   C2B13684   2.314  16.519   6.550 -0.0329  0.2690 -0.0681
  904YOPE   D3B13685   1.985  16.727   6.727 -0.2742  0.0684 -0.1050
  904YOPE   C4B13686   1.929  16.678   7.077  0.2674 -0.0378 -0.1300
  905YOPE   NH313687   2.977  15.998   5.242 -0.0093  0.1146  0.0555
  905YOPE   PO413688   3.224  16.339   5.465 -0.0373  0.1337  0.0259
  905YOPE   GL113689   3.138  16.072   5.840 -0.0436 -0.3272  0.2185
  905YOPE   GL213690   2.869  15.849   5.703  0.0002  0.0051  0.4298
  905YOPE   C1A13691   2.797  16.098   6.192 -0.2885  0.0184  0.3190
  905YOPE   D2A13692   2.625  16.168   6.545  0.0488  0.0295 -0.2762
  905YOPE   C3A13693   2.839  15.926   7.024 -0.0890 -0.0049 -0.0780
  905YOPE   C4A13694   2.938  15.658   7.264  0.3944  0.0086  0.0437
  905YOPE   C1B13695   2.893  15.644   6.102  0.3462 -0.1581  0.2687
  905YOPE   C2B13696   3.013  15.392   6.179 -0.0370 -0.1099 -0.0743
  905YOPE   D3B13697   3.254  15.143   6.479  0.2661  0.2579 -0.0408
  905YOPE   C4B13698   3.552  15.033   6.802  0.2420  0.0316  0.0062
  906YOPE   NH313699  12.686  12.377   5.142 -0.0330 -0.1401  0.1072
  906YOPE   PO413700  13.033  12.740   5.127  0.1342 -0.0135 -0.1447
  906YOPE   GL113701  13.233  12.729   5.461 -0.1017 -0.0713 -0.3587
  906YOPE   GL213702  13.022  12.428   5.514  0.2286 -0.2528 -0.1256
  906YOPE   C1A13703  13.490  12.820   5.772  0.0183  0.1905  0.0326
  906YOPE   D2A13704  13.799  12.523   5.864  0.1866 -0.0466 -0.1727
  906YOPE   C3A13705  14.160  12.466   6.164  0.0811  0.0868 -0.0322
  906YOPE   C4A13706  14.362  12.536   6.580  0.1312 -0.0412  0.0473
  906YOPE   C1B13707  13.237  12.398   5.986  0.0004 -0.2297  0.1698
  906YOPE   C2B13708  13.306  12.006   6.222  0.1049  0.1849 -0.1853
  906YOPE   D3B13709  13.388  11.642   6.561  0.1063 -0.0298  0.0659
  906YOPE   C4B13710  13.498  11.216   6.615 -0.0102  0.0324  0.1477
  907YOPE   NH313711  16.672   5.303   4.450 -0.0564 -0.0345  0.3216
  907YOPE   PO413712  16.320   5.526   4.759 -0.0365  0.1368 -0.2690
  907YOPE   GL113713  16.449   5.678   5.176 -0.0561 -0.1541 -0.2847
  907YOPE   GL213714  16.124   5.555   5.389  0.1346  0.0420 -0.2103
  907YOPE   C1A13715  16.643   5.437   5.510  0.2238  0.0141  0.0753
  907YOPE   D2A13716  16.835   5.141   5.711 -0.0325  0.1028  0.0504
  907YOPE   C3A13717  16.829   5.359   6.092 -0.0595  0.0679  0.2406
  907YOPE   C4A13718  16.477   5.330   6.344 -0.2778  0.1218 -0.2073
  907YOPE   C1B13719  16.207   5.716   5.698 -0.4158 -0.0502 -0.3227
  907YOPE   C2B13720  16.455   5.689   5.988 -0.0259  0.1164 -0.1586
  907YOPE   D3B13721  16.671   5.770   6.391  0.1707  0.2346 -0.3890
  907YOPE   C4B13722  16.795   5.616   6.626 -0.0508  0.3675 -0.1540
  908YOPE   NH313723  19.745  11.211   5.476  0.2022 -0.1374 -0.1760
  908YOPE   PO413724  19.977  10.879   5.492 -0.1238  0.2250  0.1655
  908YOPE   GL113725  20.163  10.872   5.835 -0.1699  0.1708 -0.3790
  908YOPE   GL213726  20.506  10.687   5.728 -0.2946 -0.0750  0.3442
  908YOPE   C1A13727  20.240  11.006   6.336  0.0668  0.1975 -0.0137
  908YOPE   D2A13728  20.520  11.291   6.501  0.0853 -0.1506 -0.1095
  908YOPE   C3A13729  20.420  11.561   6.951 -0.2837 -0.0137 -0.1123
  908YOPE   C4A13730  20.563  12.035   7.036  0.0490 -0.0877  0.0816
  908YOPE   C1B13731  20.589  11.117   5.955 -0.3478 -0.4736 -0.3398
  908YOPE   C2B13732  20.437  11.582   6.120  0.0778 -0.2935 -0.2068
  908YOPE   D3B13733  20.238  11.887   6.283 -0.0917 -0.0579  0.1632
  908YOPE   C4B13734  20.239  12.170   6.604 -0.0389  0.0737 -0.1197
  909YOPE   NH313735  12.305  15.155   5.256  0.0604 -0.1664  0.2425
  909YOPE   PO413736  12.491  15.619   5.382  0.3505  0.1452 -0.0651
  909YOPE   GL113737  12.324  15.831   5.711 -0.1579 -0.2595  0.1202
  909YOPE   GL213738  12.051  15.949   5.654  0.6722 -0.0429 -0.0039
  909YOPE   C1A13739  12.204  15.671   6.028  0.0703 -0.0198 -0.2214
  909YOPE   D2A13740  12.092  15.897   6.484  0.1013 -0.3708  0.3391
  909YOPE   C3A13741  12.171  15.881   6.894  0.1693 -0.1527  0.1436
  909YOPE   C4A13742  12.400  16.249   7.186 -0.0247 -0.1156  0.0579
  909YOPE   C1B13743  11.812  16.007   5.965 -0.0458  0.1217 -0.0193
  909YOPE   C2B13744  11.689  16.151   6.358 -0.0403  0.0420  0.2295
  909YOPE   D3B13745  11.690  15.970   6.800 -0.0297 -0.1109 -0.1678
  909YOPE   C4B13746  11.373  15.842   7.155 -0.1290  0.1566 -0.0676
  910YOPE   NH313747   1.568   2.845   5.106  0.1117 -0.0150  0.5059
  910YOPE   PO413748   1.080   2.976   5.151  0.1738 -0.1933 -0.0763
  910YOPE   GL113749   1.310   3.081   5.489  0.1050  0.1466  0.0906
  910YOPE   GL213750   1.319   2.935   5.791 -0.0612 -0.0229  0.3493
  910YOPE   C1A13751   1.622   3.292   5.879 -0.4024 -0.0077 -0.3510
  910YOPE   D2A13752   2.031   3.487   5.889 -0.0513  0.1576  0.0633
  910YOPE   C3A13753   2.409   3.790   5.654  0.2604  0.1244  0.1995
  910YOPE   C4A13754   2.806   3.633   5.464 -0.1218 -0.0818 -0.0370
  910YOPE   C1B13755   1.513   2.861   6.116  0.2129  0.0441  0.3367
  910YOPE   C2B13756   1.805   2.920   6.500  0.1946 -0.0431  0.2719
  910YOPE   D3B13757   2.173   2.742   6.705 -0.0727 -0.3477 -0.2342
  910YOPE   C4B13758   2.357   2.366   6.620 -0.1362 -0.0919  0.2680
  911YOPE   NH313759   4.513   3.019   5.319 -0.1176 -0.1690  0.1449
  911YOPE   PO413760   4.937   3.124   5.141 -0.1445 -0.1322 -0.0576
  911YOPE   GL113761   4.957   3.261   5.561  0.1493  0.1895  0.1646
  911YOPE   GL213762   4.689   3.270   5.749  0.1608 -0.2212 -0.2440
  911YOPE   C1A13763   5.255   3.363   5.981  0.2332  0.0394  0.0474
  911YOPE   D2A13764   5.086   3.235   6.417  0.2016 -0.3945 -0.1681
  911YOPE   C3A13765   5.342   3.504   6.688 -0.3459  0.5121  0.1003
  911YOPE   C4A13766   5.837   3.398   6.871 -0.1673 -0.1897  0.2328
  911YOPE   C1B13767   4.853   2.970   6.076  0.3816 -0.0862 -0.0466
  911YOPE   C2B13768   4.852   2.772   6.553  0.2752 -0.0759 -0.0339
  911YOPE   D3B13769   5.024   2.890   6.865  0.1819 -0.0407  0.3242
  911YOPE   C4B13770   5.181   2.560   7.147  0.1259 -0.0439  0.0145
  912YOPE   NH313771   8.540   0.932   4.997 -0.3095 -0.3896 -0.3073
  912YOPE   PO413772   8.461   1.343   5.035 -0.0363 -0.0662  0.0436
  912YOPE   GL113773   8.123   1.562   5.387  0.3013 -0.3503 -0.1410
  912YOPE   GL213774   7.823   1.495   5.395 -0.1447  0.1234 -0.0962
  912YOPE   C1A13775   8.160   1.609   5.808 -0.3088  0.1228 -0.0094
  912YOPE   D2A13776   8.358   1.549   6.214 -0.2573  0.1151  0.1421
  912YOPE   C3A13777   8.734   1.764   6.438 -0.0997  0.3953 -0.1496
  912YOPE   C4A13778   8.590   2.110   6.723 -0.2021  0.1828 -0.2733
  912YOPE   C1B13779   7.413   1.464   5.686  0.1039  0.2420  0.2548
  912YOPE   C2B13780   7.416   1.622   6.068  0.1132 -0.0787 -0.3916
  912YOPE   D3B13781   7.289   1.844   6.478 -0.0477  0.0386 -0.1492
  912YOPE   C4B13782   7.029   1.899   6.886 -0.2022 -0.1296 -0.1856
  913YOPE   NH313783  16.237  11.008   4.887 -0.2000 -0.1364 -0.0691
  913YOPE   PO413784  16.637  11.364   4.842  0.0757 -0.1857  0.3040
  913YOPE   GL113785  16.419  11.365   5.195  0.2103  0.0243  0.2021
  913YOPE   GL213786  16.420  11.706   5.272 -0.4488 -0.0424  0.1030
  913YOPE   C1A13787  16.227  11.322   5.587  0.1676  0.1956 -0.3392
  913YOPE   D2A13788  16.140  11.296   6.077  0.0086  0.1318  0.2133
  913YOPE   C3A13789  16.111  10.887   6.123 -0.2230 -0.0150  0.1584
  913YOPE   C4A13790  16.002  10.517   6.210 -0.0903  0.1625  0.1450
  913YOPE   C1B13791  16.381  11.795   5.743 -0.2507  0.0220 -0.0647
  913YOPE   C2B13792  16.807  11.927   6.005  0.0497  0.0880  0.2639
  913YOPE   D3B13793  17.138  11.834   6.308  0.0329 -0.3381 -0.0246
  913YOPE   C4B13794  17.095  11.721   6.707  0.1882  0.2835 -0.1155
  914YOPE   NH313795  16.558   8.230   4.708 -0.0272 -0.1009 -0.0573
  914YOPE   PO413796  16.513   8.681   4.711  0.0481 -0.2376 -0.1845
  914YOPE   GL113797  16.335   8.651   5.148  0.0607  0.1384 -0.0578
  914YOPE   GL213798  16.356   8.362   5.258  0.0314 -0.2728  0.3396
  914YOPE   C1A13799  16.291   8.972   5.464 -0.0535 -0.2377  0.1497
  914YOPE   D2A13800  16.447   9.154   5.794 -0.2052 -0.1512  0.1443
  914YOPE   C3A13801  16.251   9.383   6.082 -0.1407 -0.1565  0.3188
  914YOPE   C4A13802  15.891   9.615   6.067 -0.1392  0.2712 -0.2134
  914YOPE   C1B13803  16.080   8.495   5.656  0.0967 -0.3646 -0.0022
  914YOPE   C2B13804  15.974   8.552   5.985  0.1245 -0.1023  0.1771
  914YOPE   D3B13805  15.804   8.563   6.360  0.0320  0.0825 -0.1659
  914YOPE   C4B13806  15.940   8.416   6.726  0.1819 -0.1963  0.0240
  915YOPE   NH313807  11.247  18.926   4.793 -0.3610 -0.1519  0.1857
  915YOPE   PO413808  11.357  19.253   4.960 -0.1592 -0.1327  0.0398
  915YOPE   GL113809  11.265  19.172   5.469  0.0785  0.0193 -0.4035
  915YOPE   GL213810  10.951  19.099   5.640 -0.0654 -0.1315  0.0810
  915YOPE   C1A13811  11.318  18.836   5.799  0.0710 -0.0304 -0.0978
  915YOPE   D2A13812  11.391  18.527   6.065  0.1009 -0.0690  0.1882
  915YOPE   C3A13813  11.621  18.241   6.262 -0.2505  0.0289  0.2354
  915YOPE   C4A13814  11.737  18.071   6.672 -0.5288  0.1958 -0.0651
  915YOPE   C1B13815  10.936  19.204   6.081  0.0386  0.1042  0.1954
  915YOPE   C2B13816  10.854  19.015   6.457  0.0729 -0.2022  0.1558
  915YOPE   D3B13817  10.881  18.523   6.716  0.1636 -0.1708 -0.4388
  915YOPE   C4B13818  10.617  18.366   7.002 -0.0328 -0.2895  0.0884
  916YOPE   NH313819   4.468   1.183   5.280 -0.2406 -0.1860 -0.0699
  916YOPE   PO413820   4.068   1.061   5.026 -0.3736  0.0735  0.0703
  916YOPE   GL113821   4.043   0.811   5.394 -0.2784 -0.2914 -0.1920
  916YOPE   GL213822   4.112   1.060   5.576  0.2406  0.0072 -0.1610
  916YOPE   C1A13823   3.728   0.804   5.688 -0.3424  0.4732  0.2849
  916YOPE   D2A13824   3.855   0.497   6.124  0.0434 -0.0545  0.1131
  916YOPE   C3A13825   3.735   0.685   6.535  0.1843  0.1060  0.2017
  916YOPE   C4A13826   3.745   0.786   6.947 -0.3789  0.0632  0.1079
  916YOPE   C1B13827   4.254   0.962   5.933  0.2147 -0.0929 -0.0016
  916YOPE   C2B13828   4.602   0.845   6.172 -0.3242 -0.0314 -0.0133
  916YOPE   D3B13829   4.951   0.979   6.432 -0.1497 -0.1326  0.0152
  916YOPE   C4B13830   4.968   1.413   6.709  0.2085  0.2542  0.1146
  917YOPE   NH313831   5.143  10.261   5.556  0.1517  0.0651 -0.1286
  917YOPE   PO413832   4.776  10.455   5.530 -0.1417  0.1021 -0.2200
  917YOPE   GL113833   4.762  10.271   5.960 -0.0942  0.1376  0.1111
  917YOPE   GL213834   4.728  10.439   6.148  0.3004  0.1989 -0.0669
  917YOPE   C1A13835   5.030  10.093   6.256  0.3958 -0.0631  0.1552
  917YOPE   D2A13836   5.043   9.818   6.571 -0.0636 -0.0268 -0.0370
  917YOPE   C3A13837   4.924   9.672   6.951 -0.0875  0.0816 -0.0045
  917YOPE   C4A13838   4.759   9.763   7.299 -0.0317  0.0266 -0.0533
  917YOPE   C1B13839   4.605  10.134   6.514 -0.3835 -0.5085  0.0306
  917YOPE   C2B13840   4.419   9.848   6.772  0.0761 -0.3305  0.0372
  917YOPE   D3B13841   4.226   9.894   7.148  0.2394  0.1243 -0.0405
  917YOPE   C4B13842   3.982  10.203   7.382 -0.1167  0.0732  0.0232
  918YOPE   NH313843   6.693  18.665   5.279 -0.0199  0.2493  0.0472
  918YOPE   PO413844   6.320  18.491   5.533 -0.0397  0.1926 -0.1199
  918YOPE   GL113845   6.078  18.181   5.854  0.2308  0.0214  0.2551
  918YOPE   GL213846   5.991  17.849   5.848  0.1124 -0.3784 -0.0839
  918YOPE   C1A13847   6.199  17.962   6.278  0.1381 -0.0174  0.1316
  918YOPE   D2A13848   5.912  17.641   6.384 -0.2194  0.1197 -0.0390
  918YOPE   C3A13849   5.628  17.570   6.749 -0.3021 -0.1113 -0.0496
  918YOPE   C4A13850   5.510  17.682   7.246 -0.3185  0.2581  0.0830
  918YOPE   C1B13851   5.794  17.457   5.917 -0.1191  0.2062  0.2211
  918YOPE   C2B13852   5.645  17.067   5.904  0.2398  0.0721  0.1692
  918YOPE   D3B13853   5.740  16.606   6.169  0.0177  0.0581  0.3408
  918YOPE   C4B13854   5.885  16.161   6.132 -0.1975 -0.2284 -0.1159
  919YOPE   NH313855  11.411  17.506   5.261  0.0814  0.4116 -0.2159
  919YOPE   PO413856  11.795  17.397   5.514  0.4611  0.0364  0.1365
  919YOPE   GL113857  11.951  17.632   5.904  0.0856  0.1139  0.2839
  919YOPE   GL213858  11.722  17.744   6.064 -0.0962 -0.1037 -0.0686
  919YOPE   C1A13859  12.243  17.598   6.134 -0.2698 -0.2295  0.0717
  919YOPE   D2A13860  12.206  17.730   6.530 -0.4184  0.1554 -0.2846
  919YOPE   C3A13861  12.191  18.166   6.770  0.0503  0.0695 -0.3898
  919YOPE   C4A13862  12.205  18.366   7.154 -0.1677  0.1446 -0.2071
  919YOPE   C1B13863  11.625  17.459   6.445  0.1964 -0.1101 -0.2720
  919YOPE   C2B13864  11.617  17.571   6.859  0.1197  0.1394 -0.0413
  919YOPE   D3B13865  11.613  17.543   7.322  0.3889  0.0030  0.2066
  919YOPE   C4B13866  11.511  17.547   7.815 -0.5221  0.4028  0.0164
  920YOPE   NH313867   7.858  10.826   5.120  0.3604  0.2442  0.0109
  920YOPE   PO413868   7.418  10.841   5.274 -0.2139 -0.2381  0.0936
  920YOPE   GL113869   7.604  10.696   5.632  0.0828 -0.0708  0.1868
  920YOPE   GL213870   7.519  10.512   5.904 -0.5089 -0.2143 -0.2231
  920YOPE   C1A13871   7.695  10.928   5.943 -0.0302 -0.1561  0.1133
  920YOPE   D2A13872   7.712  11.200   6.294 -0.2077  0.0923  0.1161
  920YOPE   C3A13873   7.882  11.634   6.287  0.1653  0.1046 -0.1175
  920YOPE   C4A13874   7.705  11.978   6.165  0.1496 -0.0507  0.0257
  920YOPE   C1B13875   7.293  10.792   6.235  0.1639 -0.1956  0.1235
  920YOPE   C2B13876   7.070  11.087   6.576  0.5738  0.0521  0.1089
  920YOPE   D3B13877   6.817  11.226   6.803  0.0106  0.1244  0.1690
  920YOPE   C4B13878   6.905  11.106   7.242  0.0623  0.1057  0.0079
  921YOPE   NH313879  12.895  17.724   5.520 -0.1514 -0.0035 -0.0516
  921YOPE   PO413880  13.330  18.043   5.404  0.3859  0.1065 -0.3714
  921YOPE   GL113881  13.442  18.195   5.938 -0.0301 -0.0040 -0.3415
  921YOPE   GL213882  13.722  18.369   6.016  0.0937 -0.3883 -0.2895
  921YOPE   C1A13883  13.298  18.149   6.394  0.0486  0.0606 -0.0455
  921YOPE   D2A13884  13.159  17.819   6.661 -0.4019 -0.1286  0.2586
  921YOPE   C3A13885  13.434  17.665   6.896  0.1175 -0.1379 -0.1816
  921YOPE   C4A13886  13.413  17.525   7.272 -0.2715  0.0483  0.0281
  921YOPE   C1B13887  13.488  18.637   6.238  0.1357 -0.0988 -0.1811
  921YOPE   C2B13888  13.387  18.603   6.703 -0.3861 -0.0825  0.1362
  921YOPE   D3B13889  13.404  18.682   7.141 -0.2290  0.2660  0.1921
  921YOPE   C4B13890  13.247  18.545   7.515  0.2183  0.0436 -0.2363
  922YOPE   NH313891  13.019   8.278   4.929  0.1362  0.0215 -0.1939
  922YOPE   PO413892  12.963   8.679   4.955  0.2021 -0.1126  0.1936
  922YOPE   GL113893  12.920   8.584   5.314 -0.1129 -0.2289  0.2762
  922YOPE   GL213894  12.678   8.420   5.286 -0.3702  0.2332  0.3731
  922YOPE   C1A13895  12.956   8.843   5.690 -0.1870 -0.1613  0.2035
  922YOPE   D2A13896  13.179   9.059   6.052 -0.4893  0.1437 -0.0059
  922YOPE   C3A13897  13.070   8.963   6.487 -0.0024 -0.0640 -0.0020
  922YOPE   C4A13898  13.139   8.698   6.727  0.1597  0.0291  0.0893
  922YOPE   C1B13899  12.554   8.171   5.700 -0.1536 -0.1768 -0.4127
  922YOPE   C2B13900  12.348   8.004   6.098 -0.0046 -0.0509  0.0627
  922YOPE   D3B13901  11.962   8.118   6.265  0.0151  0.3633 -0.3681
  922YOPE   C4B13902  11.673   8.180   6.572  0.0634  0.1249  0.0054
  923YOPE   NH313903  19.792   4.248   4.936  0.0478 -0.0388 -0.1233
  923YOPE   PO413904  19.706   4.587   5.282 -0.0568 -0.0979  0.0017
  923YOPE   GL113905  19.923   4.503   5.594  0.0081 -0.1032  0.0974
  923YOPE   GL213906  19.907   4.119   5.488  0.0560 -0.1775  0.0600
  923YOPE   C1A13907  20.196   4.700   5.991  0.0192 -0.2744  0.5918
  923YOPE   D2A13908  20.146   4.853   6.422  0.0524  0.0651  0.0734
  923YOPE   C3A13909  20.261   4.627   6.749  0.0379  0.3708 -0.0259
  923YOPE   C4A13910  20.275   4.319   7.041  0.1866 -0.2543  0.0098
  923YOPE   C1B13911  19.860   4.177   5.959 -0.1023 -0.2434 -0.0948
  923YOPE   C2B13912  19.962   4.393   6.330 -0.1036  0.1297 -0.0278
  923YOPE   D3B13913  19.846   4.264   6.761 -0.4289 -0.0246 -0.2773
  923YOPE   C4B13914  19.425   4.407   6.975 -0.1307  0.0092 -0.0605
  924YOPE   NH313915   4.722  16.312   5.153 -0.1638  0.4704 -0.0594
  924YOPE   PO413916   5.214  16.048   5.047 -0.0903 -0.1696 -0.2363
  924YOPE   GL113917   4.978  16.095   5.508  0.0633  0.1597 -0.0753
  924YOPE   GL213918   4.857  16.470   5.661  0.2956  0.0511 -0.0299
  924YOPE   C1A13919   4.812  15.999   5.994  0.1274  0.0098  0.3138
  924YOPE   D2A13920   4.637  16.074   6.350  0.0592 -0.0098  0.3379
  924YOPE   C3A13921   4.808  16.407   6.657  0.0160  0.0799 -0.0260
  924YOPE   C4A13922   4.935  16.719   6.995 -0.0135  0.1587  0.1095
  924YOPE   C1B13923   4.744  16.468   6.048  0.1487  0.1211 -0.0327
  924YOPE   C2B13924   4.405  16.550   6.404  0.2122 -0.1542  0.0585
  924YOPE   D3B13925   4.047  16.570   6.741 -0.1440  0.1733 -0.0841
  924YOPE   C4B13926   3.935  16.300   7.083 -0.1944  0.1569  0.2539
  925YOPE   NH313927   0.927   6.863   5.127 -0.0776  0.1576 -0.0548
  925YOPE   PO413928   0.510   6.904   5.241  0.0775 -0.0069  0.0224
  925YOPE   GL113929   0.768   7.139   5.528  0.0581 -0.2742 -0.1437
  925YOPE   GL213930   1.091   7.109   5.695  0.1798  0.0548  0.1319
  925YOPE   C1A13931   0.750   7.329   5.974  0.1223  0.2347  0.4878
  925YOPE   D2A13932   0.321   7.054   6.172 -0.0938 -0.2212 -0.1182
  925YOPE   C3A13933   0.171   6.829   6.393  0.1478  0.2982 -0.1234
  925YOPE   C4A13934   0.362   6.897   6.692  0.0030 -0.0148 -0.3175
  925YOPE   C1B13935   0.939   6.826   6.013  0.2270  0.0841  0.0173
  925YOPE   C2B13936   0.829   6.990   6.399 -0.2816 -0.0460  0.1168
  925YOPE   D3B13937   0.718   7.292   6.591 -0.0139 -0.0998  0.0862
  925YOPE   C4B13938   0.200   7.425   6.654  0.0791  0.3539  0.0044
  926YOPE   NH313939   5.893   8.438   4.719  0.0875 -0.1622  0.0513
  926YOPE   PO413940   5.968   8.534   5.169 -0.0943  0.5528  0.5463
  926YOPE   GL113941   5.880   8.723   5.470  0.4973 -0.1296 -0.0848
  926YOPE   GL213942   5.961   9.050   5.571 -0.0775 -0.1814 -0.1432
  926YOPE   C1A13943   5.973   8.764   5.946 -0.1533 -0.0314  0.1694
  926YOPE   D2A13944   5.788   8.689   6.362  0.2716  0.0661 -0.1509
  926YOPE   C3A13945   5.754   8.399   6.536  0.0312  0.0986  0.1789
  926YOPE   C4A13946   6.001   8.184   6.811 -0.0609 -0.1260  0.1749
  926YOPE   C1B13947   6.265   9.190   5.850 -0.1015  0.0956  0.0078
  926YOPE   C2B13948   6.116   9.092   6.351 -0.3227 -0.0354  0.2120
  926YOPE   D3B13949   6.251   9.171   6.717 -0.3702  0.0354 -0.0023
  926YOPE   C4B13950   5.993   9.382   7.090  0.0594 -0.1000 -0.0120
  927YOPE   NH313951  11.320   1.032   5.263 -0.2290  0.2532 -0.2424
  927YOPE   PO413952  11.717   0.690   5.277  0.4327  0.0991 -0.2430
  927YOPE   GL113953  11.758   0.267   5.437 -0.2036  0.2970 -0.2793
  927YOPE   GL213954  11.504   0.086   5.545 -0.3819  0.0630 -0.3196
  927YOPE   C1A13955  11.955  -0.170   5.391 -0.3620 -0.2804 -0.2265
  927YOPE   D2A13956  12.079  -0.558   5.610 -0.1185  0.0792 -0.2148
  927YOPE   C3A13957  12.172  -0.604   5.986 -0.2808  0.0789 -0.1014
  927YOPE   C4A13958  12.362  -0.519   6.331 -0.1314 -0.0024  0.3081
  927YOPE   C1B13959  11.850  -0.039   5.830 -0.0361  0.1795 -0.2676
  927YOPE   C2B13960  12.147  -0.141   6.097  0.0008  0.1257 -0.2050
  927YOPE   D3B13961  12.244   0.089   6.531  0.2656  0.2192  0.0994
  927YOPE   C4B13962  12.525   0.166   6.958  0.0786 -0.2293 -0.1671
  928YOPE   NH313963  19.007  16.223   4.911 -0.1649  0.2958 -0.1326
  928YOPE   PO413964  18.826  15.893   4.903  0.0855 -0.0378 -0.3096
  928YOPE   GL113965  18.932  16.037   5.423 -0.1040  0.1183  0.1547
  928YOPE   GL213966  19.117  15.738   5.283 -0.0137  0.3428 -0.0335
  928YOPE   C1A13967  18.962  15.759   5.810  0.5996 -0.2412  0.2050
  928YOPE   D2A13968  19.068  15.575   6.241 -0.0999  0.1494 -0.3560
  928YOPE   C3A13969  18.854  15.650   6.675  0.2064 -0.2405 -0.0363
  928YOPE   C4A13970  18.840  15.907   7.165  0.0033  0.3779 -0.1228
  928YOPE   C1B13971  19.180  15.272   5.354 -0.2681  0.0358  0.0932
  928YOPE   C2B13972  18.703  15.375   5.422 -0.2622 -0.3954 -0.0189
  928YOPE   D3B13973  18.534  15.781   5.537  0.0420  0.0321 -0.0059
  928YOPE   C4B13974  18.453  15.945   5.866  0.0186 -0.0464  0.3465
  929YOPE   NH313975  17.191  16.249   4.976  0.2359 -0.2725  0.0337
  929YOPE   PO413976  17.057  16.600   4.944 -0.2898  0.0016 -0.4192
  929YOPE   GL113977  17.122  16.740   5.404  0.0610  0.1677  0.1633
  929YOPE   GL213978  17.219  16.372   5.462  0.0884  0.0769 -0.3363
  929YOPE   C1A13979  17.226  16.932   5.742  0.0953  0.2112 -0.2970
  929YOPE   D2A13980  17.093  17.106   6.162  0.1563  0.2162 -0.0082
  929YOPE   C3A13981  17.222  17.087   6.587 -0.3994 -0.0367 -0.0934
  929YOPE   C4A13982  17.409  17.039   7.039 -0.2321 -0.2433  0.1381
  929YOPE   C1B13983  17.253  16.430   5.894  0.0957 -0.2302  0.2877
  929YOPE   C2B13984  17.356  16.698   6.250  0.0008 -0.0809  0.2856
  929YOPE   D3B13985  17.631  16.779   6.637  0.0990  0.0225  0.1891
  929YOPE   C4B13986  17.938  16.550   6.835  0.2706  0.1932 -0.1809
  930YOPE   NH313987  16.654  11.860   4.821 -0.0120 -0.1851  0.0562
  930YOPE   PO413988  16.993  12.074   4.763 -0.1407  0.0678 -0.0657
  930YOPE   GL113989  17.007  12.038   5.142 -0.1084  0.2694 -0.1915
  930YOPE   GL213990  16.681  12.149   5.356  0.0416  0.1045 -0.1171
  930YOPE   C1A13991  17.073  12.104   5.614 -0.0816 -0.4614  0.2839
  930YOPE   D2A13992  17.229  12.275   5.989 -0.1602  0.5302 -0.0197
  930YOPE   C3A13993  17.315  12.636   6.116 -0.1168 -0.2178  0.1136
  930YOPE   C4A13994  17.494  12.862   6.477  0.3188  0.0779  0.0820
  930YOPE   C1B13995  16.754  12.430   5.775  0.0083  0.0632  0.3304
  930YOPE   C2B13996  16.767  12.467   6.239 -0.0788  0.1333 -0.0234
  930YOPE   D3B13997  17.040  12.420   6.528  0.0038 -0.1829 -0.0530
  930YOPE   C4B13998  17.433  12.228   6.502 -0.0993  0.4476  0.2577
  931YOPE   NH313999  12.957  14.313   5.241 -0.1014 -0.1290  0.0446
  931YOPE   PO414000  13.239  14.034   5.530  0.0226 -0.0192 -0.1936
  931YOPE   GL114001  13.302  14.342   5.597  0.1485 -0.2651 -0.0391
  931YOPE   GL214002  13.073  14.525   5.842 -0.0740 -0.2203 -0.0155
  931YOPE   C1A14003  13.527  14.461   5.952  0.1996 -0.1306  0.3485
  931YOPE   D2A14004  13.777  14.708   6.233 -0.0006 -0.0375  0.0545
  931YOPE   C3A14005  14.155  14.505   6.389 -0.1078 -0.4007  0.0598
  931YOPE   C4A14006  14.401  14.616   6.859 -0.0878  0.0887  0.0132
  931YOPE   C1B14007  12.825  14.253   6.005  0.0948 -0.0647 -0.3136
  931YOPE   C2B14008  12.605  13.913   6.033  0.0891  0.1495  0.3614
  931YOPE   D3B14009  12.419  13.554   6.231 -0.1085  0.0393 -0.0836
  931YOPE   C4B14010  12.522  13.099   6.283 -0.1396 -0.2612 -0.2017
  932YOPE   NH314011   9.358   9.460   4.872 -0.0284 -0.4378 -0.2332
  932YOPE   PO414012   9.497   9.956   4.909  0.1090 -0.3798 -0.0182
  932YOPE   GL114013   9.227  10.210   5.259  0.1341  0.0236  0.0410
  932YOPE   GL214014   9.398  10.227   5.549  0.2317 -0.0044 -0.0325
  932YOPE   C1A14015   8.967  10.496   5.642  0.1647 -0.0228  0.3414
  932YOPE   D2A14016   8.765  10.558   5.929 -0.3405  0.0481  0.4198
  932YOPE   C3A14017   8.529  10.276   6.142  0.0157 -0.1979  0.1221
  932YOPE   C4A14018   8.360   9.972   6.350 -0.0653 -0.3786 -0.0033
  932YOPE   C1B14019   9.410   9.932   5.941  0.0417 -0.0672 -0.1448
  932YOPE   C2B14020   9.549  10.149   6.361  0.0916 -0.1495 -0.1442
  932YOPE   D3B14021   9.540  10.573   6.507  0.0308 -0.3152  0.0257
  932YOPE   C4B14022   9.836  10.858   6.560 -0.2952  0.2907  0.2576
  933YOPE   NH314023  15.449  19.675   5.106 -0.1568  0.0805 -0.2232
  933YOPE   PO414024  15.637  20.052   5.012  0.3023 -0.0123  0.1457
  933YOPE   GL114025  15.572  20.019   5.485 -0.0671  0.0888 -0.0493
  933YOPE   GL214026  15.729  19.683   5.562  0.2882 -0.1223  0.2705
  933YOPE   C1A14027  15.644  20.132   5.846 -0.1616  0.4184  0.1220
  933YOPE   D2A14028  16.052  20.266   6.084  0.2582 -0.0794  0.2327
  933YOPE   C3A14029  16.430  20.339   6.299 -0.0665  0.2445  0.1515
  933YOPE   C4A14030  16.576  20.713   6.529 -0.0361  0.2889  0.0569
  933YOPE   C1B14031  15.588  19.566   5.898 -0.4632 -0.2234 -0.4077
  933YOPE   C2B14032  15.455  19.540   6.305  0.1287 -0.0391  0.0351
  933YOPE   D3B14033  15.372  19.312   6.646 -0.2341  0.1150 -0.0335
  933YOPE   C4B14034  15.378  18.951   6.919  0.0243  0.2079 -0.4301
  934YOPE   NH314035  13.385   6.628   4.965 -0.0231 -0.1525 -0.0886
  934YOPE   PO414036  13.044   6.932   4.754  0.3131  0.0163  0.2880
  934YOPE   GL114037  12.970   6.874   5.162 -0.1846  0.1973  0.0209
  934YOPE   GL214038  12.997   6.541   5.258  0.0312  0.1129 -0.0450
  934YOPE   C1A14039  12.803   7.106   5.529  0.0792  0.2117 -0.0007
  934YOPE   D2A14040  12.748   7.174   6.010  0.1927  0.2360 -0.1495
  934YOPE   C3A14041  12.890   7.445   6.389  0.2930 -0.0557  0.2817
  934YOPE   C4A14042  13.249   7.738   6.413 -0.1163 -0.1948 -0.1547
  934YOPE   C1B14043  12.775   6.566   5.562 -0.0878 -0.1935 -0.0585
  934YOPE   C2B14044  13.014   6.771   5.836 -0.1654 -0.0836 -0.4450
  934YOPE   D3B14045  13.195   7.080   6.197 -0.2467  0.0377 -0.0032
  934YOPE   C4B14046  13.553   7.368   6.246  0.1956 -0.2570 -0.2804
  935YOPE   NH314047  13.328  19.449   4.920 -0.0081  0.0502 -0.1269
  935YOPE   PO414048  13.433  19.876   4.850 -0.1486  0.2848  0.4552
  935YOPE   GL114049  13.570  20.217   5.053  0.2389  0.2477  0.1348
  935YOPE   GL214050  13.372  20.527   4.898  0.1271  0.3091 -0.0754
  935YOPE   C1A14051  13.440  20.289   5.494 -0.1131 -0.1722  0.0048
  935YOPE   D2A14052  13.411  20.670   5.857 -0.0705 -0.0477 -0.0582
  935YOPE   C3A14053  13.270  20.565   6.161 -0.0040  0.0964 -0.1720
  935YOPE   C4A14054  13.269  20.291   6.403  0.0506  0.1652 -0.3801
  935YOPE   C1B14055  13.198  20.836   5.304  0.1914  0.3432 -0.0562
  935YOPE   C2B14056  12.997  21.099   5.687 -0.0282  0.0963 -0.0924
  935YOPE   D3B14057  12.715  21.002   5.830  0.0100  0.0665  0.1465
  935YOPE   C4B14058  12.471  20.547   5.894  0.0302  0.1303  0.0200
  936YOPE   NH314059  11.211   6.841   4.899 -0.1790 -0.2287 -0.4897
  936YOPE   PO414060  11.077   6.421   5.025  0.1234  0.1079 -0.0014
  936YOPE   GL114061  11.110   6.073   5.347  0.1310 -0.1339 -0.2834
  936YOPE   GL214062  11.313   6.191   5.555  0.0444  0.3656 -0.4551
  936YOPE   C1A14063  11.192   5.695   5.582 -0.2212  0.1168  0.1529
  936YOPE   D2A14064  10.887   5.360   5.783 -0.3864 -0.0038 -0.1330
  936YOPE   C3A14065  10.567   5.633   5.901  0.3263 -0.5541 -0.2510
  936YOPE   C4A14066  10.112   5.891   6.045  0.1168  0.3090  0.4411
  936YOPE   C1B14067  11.366   6.210   5.991 -0.0888  0.0922  0.3864
  936YOPE   C2B14068  11.505   6.388   6.356  0.0806 -0.3354  0.0770
  936YOPE   D3B14069  11.336   6.493   6.689 -0.0932 -0.1565  0.0708
  936YOPE   C4B14070  11.095   6.786   6.977  0.1372 -0.0988  0.4230
  937YOPE   NH314071   7.997  16.010   5.119  0.2059  0.1281  0.3255
  937YOPE   PO414072   7.565  15.844   5.286  0.0078 -0.3065 -0.0091
  937YOPE   GL114073   7.914  15.903   5.637  0.2873  0.1917  0.2603
  937YOPE   GL214074   8.223  15.883   5.602 -0.1185 -0.2359 -0.4074
  937YOPE   C1A14075   7.963  15.972   6.098  0.0318 -0.3732  0.0019
  937YOPE   D2A14076   8.112  16.382   6.450 -0.3137 -0.3882 -0.0273
  937YOPE   C3A14077   8.414  16.452   6.723 -0.2754  0.0082 -0.1985
  937YOPE   C4A14078   8.866  16.656   6.685 -0.0121  0.0644 -0.3199
  937YOPE   C1B14079   8.212  15.587   5.907 -0.3825 -0.1729 -0.1307
  937YOPE   C2B14080   7.936  15.426   6.185  0.0728 -0.1791 -0.2311
  937YOPE   D3B14081   7.715  15.677   6.414  0.5144  0.1575 -0.0661
  937YOPE   C4B14082   7.542  15.751   6.704  0.1353  0.1515  0.0085
  938YOPE   NH314083   4.556   8.125   5.323  0.0176  0.1879 -0.2961
  938YOPE   PO414084   4.519   7.664   5.178  0.2062 -0.1426  0.2550
  938YOPE   GL114085   4.224   7.713   5.565 -0.2446  0.3230 -0.2769
  938YOPE   GL214086   4.017   7.886   5.637 -0.3421  0.0833  0.0377
  938YOPE   C1A14087   4.175   7.666   6.076 -0.2429  0.3397 -0.2512
  938YOPE   D2A14088   4.139   7.555   6.468 -0.1130 -0.3183  0.0539
  938YOPE   C3A14089   3.760   7.472   6.654  0.0170 -0.0072  0.1675
  938YOPE   C4A14090   3.400   7.602   6.857  0.0449 -0.3972 -0.0733
  938YOPE   C1B14091   3.606   7.767   5.802 -0.1141 -0.1747 -0.0868
  938YOPE   C2B14092   3.206   7.816   5.944  0.2254 -0.0257  0.2532
  938YOPE   D3B14093   2.854   7.688   5.826  0.0705 -0.0075 -0.1758
  938YOPE   C4B14094   2.504   7.557   5.655  0.1898  0.0100  0.1494
  939YOPE   NH314095   8.486   5.939   4.753  0.5893  0.1225  0.0466
  939YOPE   PO414096   8.178   5.723   4.883  0.4230 -0.1312  0.0084
  939YOPE   GL114097   7.859   5.647   5.283 -0.2655  0.1450  0.2234
  939YOPE   GL214098   7.562   5.719   5.313  0.3651  0.1886 -0.0129
  939YOPE   C1A14099   7.894   5.693   5.738 -0.4210 -0.1058  0.0070
  939YOPE   D2A14100   8.145   5.501   6.044 -0.3467  0.0104 -0.1516
  939YOPE   C3A14101   8.049   5.498   6.476  0.0163  0.0050  0.1545
  939YOPE   C4A14102   8.106   5.644   6.843 -0.2367  0.2393 -0.0550
  939YOPE   C1B14103   7.243   5.596   5.589 -0.0652 -0.2405  0.3737
  939YOPE   C2B14104   7.090   5.192   5.664 -0.0842  0.1231  0.2510
  939YOPE   D3B14105   7.421   4.914   5.881  0.0578 -0.0963  0.2074
  939YOPE   C4B14106   7.430   4.636   6.075 -0.1524 -0.0721  0.1509
  940YOPE   NH314107   8.416   4.562   4.579 -0.1434 -0.1061 -0.5072
  940YOPE   PO414108   8.708   4.427   4.859  0.2483 -0.1828 -0.1160
  940YOPE   GL114109   8.516   4.641   5.112 -0.2381  0.0017  0.0370
  940YOPE   GL214110   8.287   4.345   5.279 -0.1712 -0.0200 -0.2532
  940YOPE   C1A14111   8.387   4.925   5.327  0.0666  0.1731 -0.1470
  940YOPE   D2A14112   8.226   5.166   5.591  0.1266  0.1594  0.0364
  940YOPE   C3A14113   7.979   5.043   5.931  0.1139 -0.0207 -0.1591
  940YOPE   C4A14114   7.998   4.636   6.226  0.0900  0.0803  0.1002
  940YOPE   C1B14115   7.820   4.370   5.238 -0.1151  0.2538 -0.0180
  940YOPE   C2B14116   7.384   4.501   5.458  0.0980 -0.1712 -0.1826
  940YOPE   D3B14117   7.037   4.354   5.838 -0.2455 -0.0993 -0.1387
  940YOPE   C4B14118   6.950   4.166   6.096  0.1215  0.1029 -0.4815
  941YOPE   NH314119  19.224  19.197   5.085  0.2753 -0.2237 -0.1841
  941YOPE   PO414120  19.475  19.533   5.067  0.2700 -0.2142  0.1731
  941YOPE   GL114121  19.325  19.448   5.506 -0.2022  0.3397  0.2864
  941YOPE   GL214122  19.009  19.643   5.499  0.1531 -0.2175  0.1792
  941YOPE   C1A14123  19.321  19.547   5.923  0.2118  0.1234 -0.1727
  941YOPE   D2A14124  19.530  19.744   6.284 -0.0413  0.0272 -0.4642
  941YOPE   C3A14125  19.476  19.725   6.673 -0.2049 -0.2948 -0.2180
  941YOPE   C4A14126  19.580  19.834   7.113 -0.0956 -0.2608 -0.1410
  941YOPE   C1B14127  18.793  19.518   5.967  0.1057 -0.0070 -0.0984
  941YOPE   C2B14128  18.567  19.401   6.365 -0.0855 -0.0228  0.3539
  941YOPE   D3B14129  18.200  19.398   6.663  0.1837 -0.0646  0.4464
  941YOPE   C4B14130  17.895  19.211   7.008  0.2384 -0.3416  0.0545
  942YOPE   NH314131   2.123  10.184   4.930  0.1340  0.3204  0.0076
  942YOPE   PO414132   2.181  10.152   5.346 -0.3360  0.0159 -0.0837
  942YOPE   GL114133   2.353   9.891   5.618 -0.2473 -0.2520 -0.0698
  942YOPE   GL214134   2.472   9.597   5.647  0.0244  0.1170 -0.1832
  942YOPE   C1A14135   2.273   9.903   6.057  0.2616  0.1791 -0.1580
  942YOPE   D2A14136   2.152  10.092   6.532  0.0005  0.4362  0.0734
  942YOPE   C3A14137   2.504  10.273   6.856 -0.2077  0.1905 -0.0872
  942YOPE   C4A14138   2.911   9.991   6.994 -0.3242  0.0045  0.0874
  942YOPE   C1B14139   2.481   9.413   5.979  0.2092  0.0371  0.3652
  942YOPE   C2B14140   2.315   9.555   6.487 -0.0273 -0.0901  0.0547
  942YOPE   D3B14141   2.416   9.768   6.820  0.0513 -0.3609  0.1485
  942YOPE   C4B14142   2.395   9.819   7.302 -0.1612 -0.0494  0.0549
  943YOPE   NH314143  10.798   7.626   5.036  0.0530  0.2046 -0.0047
  943YOPE   PO414144  11.174   7.341   5.010 -0.0608  0.0617  0.3053
  943YOPE   GL114145  11.391   7.343   5.352  0.1087 -0.1115  0.1914
  943YOPE   GL214146  11.301   7.126   5.648 -0.1785  0.0716  0.1658
  943YOPE   C1A14147  11.610   7.458   5.734 -0.3164  0.1274  0.2105
  943YOPE   D2A14148  12.037   7.492   5.849  0.0434  0.2409 -0.4105
  943YOPE   C3A14149  12.356   7.293   5.695 -0.0352 -0.0716  0.0715
  943YOPE   C4A14150  12.478   7.405   5.270 -0.2476 -0.0494 -0.3122
  943YOPE   C1B14151  11.151   7.410   6.052 -0.0027  0.2048  0.1225
  943YOPE   C2B14152  11.153   7.550   6.455  0.0919 -0.0119 -0.3274
  943YOPE   D3B14153  11.258   7.940   6.741 -0.1883 -0.0914 -0.1527
  943YOPE   C4B14154  11.093   8.033   7.208 -0.2321 -0.1087 -0.3632
  944POPC   NC314155   4.130   8.952   5.080  0.2149 -0.0808 -0.3552
  944POPC   PO414156   4.339   9.056   5.358  0.2597  0.4909  0.0688
  944POPC   GL114157   4.167   8.794   5.684 -0.1589 -0.1459  0.2270
  944POPC   GL214158   4.261   8.454   5.626  0.1118  0.0498  0.0869
  944POPC   C1A14159   4.299   8.778   6.079 -0.0376  0.2522  0.0402
  944POPC   D2A14160   4.280   9.066   6.447 -0.1565  0.0323  0.0806
  944POPC   C3A14161   4.093   9.388   6.371 -0.1450 -0.1253 -0.0246
  944POPC   C4A14162   3.820   9.677   6.112 -0.3322 -0.1248 -0.0354
  944POPC   C1B14163   4.245   8.254   6.078  0.0419  0.0844  0.1823
  944POPC   C2B14164   4.370   8.444   6.510 -0.4641 -0.2198 -0.0870
  944POPC   C3B14165   4.600   8.671   6.903 -0.2888  0.0880 -0.0519
  944POPC   C4B14166   4.781   8.480   7.208  0.0924  0.0252 -0.0932
  945POPC   NC314167  19.666   0.352   4.956  0.1182 -0.3633  0.1092
  945POPC   PO414168  19.687   0.752   5.207  0.2305 -0.1361  0.2545
  945POPC   GL114169  19.754   0.573   5.583  0.1664  0.1623  0.1113
  945POPC   GL214170  20.068   0.549   5.697  0.1418 -0.0815  0.1401
  945POPC   C1A14171  19.661   0.659   5.988 -0.0189 -0.5213  0.0047
  945POPC   D2A14172  19.419   0.333   6.206 -0.4026 -0.1600 -0.0098
  945POPC   C3A14173  19.180   0.077   5.823  0.3572 -0.1524 -0.0191
  945POPC   C4A14174  18.834   0.219   5.535  0.0333  0.0891 -0.3662
  945POPC   C1B14175  20.152   0.503   6.025  0.2706  0.1099  0.0844
  945POPC   C2B14176  20.095   0.527   6.390  0.0544  0.1363 -0.4526
  945POPC   C3B14177  20.133   0.007   6.588 -0.1270 -0.2139 -0.0884
  945POPC   C4B14178  20.104  -0.363   6.782 -0.1926  0.2800 -0.0316
  946POPC   NC314179   9.700  15.228   4.907  0.0088 -0.0469  0.1512
  946POPC   PO414180   9.962  15.025   5.240 -0.0442  0.0746  0.0615
  946POPC   GL114181  10.084  15.015   5.589  0.0981  0.1863 -0.6251
  946POPC   GL214182  10.250  15.215   5.871 -0.0224  0.1942  0.4572
  946POPC   C1A14183  10.371  14.720   5.784  0.5836 -0.2460 -0.0052
  946POPC   D2A14184  10.214  14.309   5.825 -0.2710 -0.3393  0.2414
  946POPC   C3A14185  10.426  14.170   6.235  0.2633 -0.2508 -0.0893
  946POPC   C4A14186  10.766  14.074   6.561  0.0952 -0.0564 -0.1204
  946POPC   C1B14187  10.283  15.274   6.294  0.2532  0.3484  0.0236
  946POPC   C2B14188  10.172  15.331   6.603  0.3436 -0.5218 -0.3994
  946POPC   C3B14189  10.014  15.313   6.988 -0.1955 -0.1413  0.2440
  946POPC   C4B14190   9.952  15.584   7.289  0.1681 -0.0031  0.4152
  947POPC   NC314191  19.466   8.019   4.896  0.2959 -0.1471 -0.1917
  947POPC   PO414192  19.198   8.038   4.876  0.4324  0.3693 -0.2024
  947POPC   GL114193  19.176   8.053   5.319 -0.1607 -0.2457  0.2032
  947POPC   GL214194  19.114   8.443   5.457 -0.3122  0.3508 -0.1331
  947POPC   C1A14195  19.464   8.186   5.684  0.2040  0.2764  0.2354
  947POPC   D2A14196  19.677   8.196   6.067  0.0012  0.1261 -0.0827
  947POPC   C3A14197  19.379   8.154   6.426 -0.1374 -0.0449  0.2100
  947POPC   C4A14198  18.971   8.252   6.683 -0.1307 -0.2307 -0.1105
  947POPC   C1B14199  18.775   8.152   5.549  0.2140 -0.0318 -0.1817
  947POPC   C2B14200  18.524   8.067   5.851  0.2791  0.5832  0.0187
  947POPC   C3B14201  18.504   7.796   6.270 -0.3912  0.0964  0.0804
  947POPC   C4B14202  18.803   7.685   6.499 -0.0653  0.1149 -0.1431
  948POPC   NC314203   8.303   1.385   4.523 -0.4659  0.0682 -0.0173
  948POPC   PO414204   8.357   1.828   4.675  0.1038  0.0943 -0.0528
  948POPC   GL114205   8.506   1.906   5.112  0.1601  0.1444  0.1679
  948POPC   GL214206   8.710   1.732   5.275  0.0841 -0.1442 -0.1967
  948POPC   C1A14207   8.616   2.227   5.358 -0.1740 -0.5662 -0.1475
  948POPC   D2A14208   8.721   2.415   5.798 -0.2592  0.1312  0.4230
  948POPC   C3A14209   8.838   2.867   5.808 -0.0948 -0.0737  0.0381
  948POPC   C4A14210   8.911   3.179   6.164 -0.0853 -0.1168  0.0459
  948POPC   C1B14211   8.570   1.747   5.613 -0.2954  0.1142  0.0964
  948POPC   C2B14212   8.717   1.890   5.974  0.0406  0.1798  0.2915
  948POPC   C3B14213   8.987   2.193   6.189  0.2274  0.1881 -0.4120
  948POPC   C4B14214   8.849   2.603   6.205  0.0895  0.2588  0.0412
  949POPC   NC314215  13.196  10.006   4.823  0.2627  0.1471 -0.0847
  949POPC   PO414216  12.922  10.350   4.794  0.1381 -0.0741 -0.0562
  949POPC   GL114217  12.842  10.293   5.132  0.2488 -0.0277 -0.3121
  949POPC   GL214218  12.582  10.180   5.198 -0.0668 -0.1319  0.2635
  949POPC   C1A14219  13.030  10.277   5.545 -0.1524 -0.2919  0.0645
  949POPC   D2A14220  13.319  10.427   5.860  0.3641  0.0943 -0.0019
  949POPC   C3A14221  13.369  10.838   5.831 -0.2372  0.2033  0.0651
  949POPC   C4A14222  13.367  11.184   5.649  0.4058  0.5482  0.2387
  949POPC   C1B14223  12.578   9.916   5.491 -0.0073  0.0676 -0.2313
  949POPC   C2B14224  12.585   9.773   5.932  0.2909 -0.0816  0.0452
  949POPC   C3B14225  12.484   9.790   6.316  0.3698  0.1491 -0.1755
  949POPC   C4B14226  12.662   9.917   6.746  0.1153  0.0549 -0.0337
  950POPC   NC314227   6.993  15.475   5.038 -0.1298 -0.1347  0.0149
  950POPC   PO414228   7.258  15.072   5.087 -0.0740 -0.2670 -0.1338
  950POPC   GL114229   7.060  15.145   5.389 -0.0088  0.4046 -0.0756
  950POPC   GL214230   6.925  14.902   5.487  0.2108 -0.2204 -0.2220
  950POPC   C1A14231   7.190  15.165   5.790 -0.0708  0.0886  0.0102
  950POPC   D2A14232   7.390  15.315   6.187  0.2840 -0.1343 -0.0181
  950POPC   C3A14233   7.384  15.211   6.646 -0.1267  0.1297  0.1528
  950POPC   C4A14234   7.377  15.277   7.060  0.0124  0.2386  0.0886
  950POPC   C1B14235   6.726  14.983   5.886  0.0065  0.2179 -0.0490
  950POPC   C2B14236   6.934  15.022   6.220 -0.0126  0.3844  0.2998
  950POPC   C3B14237   6.971  14.973   6.629 -0.0639 -0.1244  0.1113
  950POPC   C4B14238   7.172  14.812   7.015 -0.0312  0.0996 -0.1450
  951POPC   NC314239  17.575   7.738   4.768  0.1475  0.1822  0.1515
  951POPC   PO414240  17.852   7.451   5.073  0.0326 -0.1846  0.3526
  951POPC   GL114241  17.461   7.417   5.414 -0.2233  0.0551  0.1711
  951POPC   GL214242  17.503   7.368   5.665  0.2812  0.0779 -0.3241
  951POPC   C1A14243  17.038   7.143   5.500  0.2674 -0.1349  0.0485
  951POPC   D2A14244  16.848   6.761   5.592 -0.3204  0.1949  0.0252
  951POPC   C3A14245  16.773   6.542   5.971  0.0951 -0.0211  0.1741
  951POPC   C4A14246  17.032   6.302   6.200  0.1451  0.2331  0.2085
  951POPC   C1B14247  17.312   7.425   5.991 -0.0558 -0.0301  0.1873
  951POPC   C2B14248  17.123   7.377   6.425 -0.2879 -0.1916 -0.1957
  951POPC   C3B14249  16.721   7.395   6.640 -0.1442 -0.0589 -0.3026
  951POPC   C4B14250  16.512   7.681   6.873 -0.0826 -0.1588 -0.0698
  952POPC   NC314251   5.316   1.634   5.036  0.3877 -0.2600  0.0345
  952POPC   PO414252   4.850   1.504   5.219  0.1586 -0.0546 -0.4085
  952POPC   GL114253   5.095   1.814   5.503 -0.1092 -0.1605  0.1376
  952POPC   GL214254   5.499   1.696   5.492 -0.1405 -0.0918  0.0184
  952POPC   C1A14255   4.917   1.831   5.968  0.2144  0.2469  0.1049
  952POPC   D2A14256   4.516   2.007   6.067 -0.1266  0.1875  0.0673
  952POPC   C3A14257   4.158   1.810   6.108 -0.0173 -0.3390 -0.0479
  952POPC   C4A14258   3.993   1.652   6.419  0.2473 -0.0848 -0.3813
  952POPC   C1B14259   5.485   1.601   5.896  0.1341 -0.1933 -0.0619
  952POPC   C2B14260   5.453   1.793   6.307 -0.1329 -0.3273  0.0516
  952POPC   C3B14261   5.109   1.840   6.649 -0.3048 -0.0112  0.0573
  952POPC   C4B14262   4.956   2.140   7.039  0.3806 -0.1211 -0.0251
  953POPC   NC314263  13.927  19.841   4.684  0.2298 -0.0879 -0.0928
  953POPC   PO414264  14.073  19.471   4.810 -0.0490  0.0048  0.3662
  953POPC   GL114265  14.252  19.569   5.201  0.0776  0.0177 -0.2570
  953POPC   GL214266  14.411  19.880   5.324  0.1220 -0.0638  0.0495
  953POPC   C1A14267  14.264  19.199   5.616  0.1664  0.0600  0.1334
  953POPC   D2A14268  14.495  19.292   6.000  0.0918  0.0545  0.0074
  953POPC   C3A14269  14.310  19.271   6.374 -0.0884  0.1501  0.0377
  953POPC   C4A14270  14.367  19.039   6.701 -0.3185  0.2694  0.1954
  953POPC   C1B14271  14.283  19.673   5.711  0.0998 -0.0574  0.0977
  953POPC   C2B14272  14.290  19.735   6.149  0.0969  0.2190 -0.0161
  953POPC   C3B14273  13.893  20.019   6.390 -0.0976 -0.2540 -0.1933
  953POPC   C4B14274  13.764  20.478   6.520 -0.2816  0.0393  0.0047
  954POPC   NC314275   1.392  10.502   5.163 -0.0215  0.0343  0.2152
  954POPC   PO414276   1.162  10.177   5.360  0.0445  0.1532  0.1118
  954POPC   GL114277   1.372  10.269   5.771 -0.0431  0.2619  0.1959
  954POPC   GL214278   1.637  10.293   5.668 -0.1838 -0.0528 -0.0653
  954POPC   C1A14279   1.513  10.182   6.217 -0.1121  0.0298 -0.3314
  954POPC   D2A14280   1.616  10.126   6.635  0.2150  0.0940  0.2779
  954POPC   C3A14281   1.579  10.383   7.051  0.1730  0.0977 -0.2985
  954POPC   C4A14282   1.651  10.325   7.485 -0.0378  0.3198 -0.0267
  954POPC   C1B14283   1.710   9.892   5.887 -0.1902  0.0033 -0.0786
  954POPC   C2B14284   1.866   9.779   6.311 -0.1400 -0.0697 -0.1194
  954POPC   C3B14285   1.885   9.730   6.784  0.3709  0.1368 -0.0024
  954POPC   C4B14286   1.605   9.791   7.155  0.2451 -0.2430  0.0807
  955POPC   NC314287   4.095   6.956   4.876 -0.1463  0.2322  0.1151
  955POPC   PO414288   3.720   6.969   5.187 -0.1814 -0.1067  0.3905
  955POPC   GL114289   3.889   7.081   5.600 -0.2047 -0.0398  0.1493
  955POPC   GL214290   3.894   7.380   5.747 -0.1057  0.2137 -0.3961
  955POPC   C1A14291   3.669   6.993   6.004 -0.2140  0.0525  0.2464
  955POPC   D2A14292   3.497   6.697   6.319 -0.2081 -0.0300  0.2151
  955POPC   C3A14293   3.612   6.646   6.675 -0.1215  0.1818 -0.1629
  955POPC   C4A14294   3.755   6.568   7.093  0.2531 -0.0171 -0.0395
  955POPC   C1B14295   3.750   7.474   6.139 -0.2417  0.1205  0.0534
  955POPC   C2B14296   3.461   7.710   6.323 -0.2121  0.2791 -0.1408
  955POPC   C3B14297   3.140   7.719   6.455  0.1195 -0.1344  0.3967
  955POPC   C4B14298   2.897   7.531   6.332  0.0725 -0.3642  0.4287
  956POPC   NC314299  14.055   2.783   4.545  0.3102  0.0942  0.0070
  956POPC   PO414300  14.069   3.183   4.848  0.1514 -0.1719 -0.1264
  956POPC   GL114301  14.384   3.113   5.174 -0.0918  0.1447  0.1351
  956POPC   GL214302  14.744   2.990   5.123  0.5565  0.0760  0.0604
  956POPC   C1A14303  14.389   3.322   5.583 -0.0962 -0.1029 -0.0397
  956POPC   D2A14304  14.239   3.836   5.466  0.0487  0.0552  0.2413
  956POPC   C3A14305  13.869   3.781   5.775 -0.1504  0.2641  0.3210
  956POPC   C4A14306  13.852   3.909   6.228 -0.0359  0.4623  0.2182
  956POPC   C1B14307  14.853   2.876   5.535  0.2025  0.0117 -0.2170
  956POPC   C2B14308  14.564   2.965   5.966 -0.0904  0.0479 -0.0779
  956POPC   C3B14309  14.549   2.769   6.335 -0.0267  0.2591 -0.1055
  956POPC   C4B14310  14.368   2.826   6.709  0.4283 -0.0680  0.0486
  957POPC   NC314311   1.241  13.521   5.510 -0.2475 -0.0088  0.1200
  957POPC   PO414312   0.898  13.829   5.528 -0.1920 -0.0517  0.0926
  957POPC   GL114313   0.969  13.718   5.876 -0.1589 -0.0706 -0.1567
  957POPC   GL214314   0.894  13.379   5.851 -0.3181 -0.1011 -0.0187
  957POPC   C1A14315   1.120  13.515   6.296 -0.1099  0.0967 -0.0915
  957POPC   D2A14316   1.089  13.493   6.647 -0.3065 -0.1777  0.0918
  957POPC   C3A14317   0.708  13.677   6.908  0.1839  0.0661 -0.2159
  957POPC   C4A14318   0.423  13.663   7.214 -0.1273 -0.1526 -0.2718
  957POPC   C1B14319   0.646  13.451   6.183  0.1990 -0.0457 -0.0035
  957POPC   C2B14320   0.723  13.788   6.441  0.2411 -0.0869  0.1440
  957POPC   C3B14321   0.357  13.951   6.778 -0.3860  0.4032  0.2232
  957POPC   C4B14322  -0.011  14.192   6.991  0.2814  0.1842  0.0640
  958POPC   NC314323  14.714   6.698   5.123 -0.1032 -0.0048  0.0915
  958POPC   PO414324  14.486   7.050   5.216  0.2274  0.1463  0.0021
  958POPC   GL114325  14.358   7.285   5.575 -0.1447 -0.0671  0.1461
  958POPC   GL214326  14.511   7.514   5.497  0.0198  0.0188 -0.0051
  958POPC   C1A14327  14.463   7.512   6.004 -0.0306 -0.2120 -0.2733
  958POPC   D2A14328  14.452   7.814   6.285  0.0387  0.0641  0.2985
  958POPC   C3A14329  14.328   7.831   6.742 -0.3471 -0.1262  0.0681
  958POPC   C4A14330  14.384   7.613   7.145 -0.0096 -0.4033  0.0432
  958POPC   C1B14331  14.860   7.736   5.709 -0.0680 -0.0016 -0.1246
  958POPC   C2B14332  15.321   7.941   5.668 -0.4664  0.1344 -0.1708
  958POPC   C3B14333  15.588   8.170   6.057  0.0382 -0.2893 -0.3040
  958POPC   C4B14334  15.975   8.086   6.295 -0.2041 -0.0052  0.1915
  959POPC   NC314335  17.622   7.022   5.057 -0.0935 -0.0543 -0.4001
  959POPC   PO414336  17.702   6.615   5.173 -0.2020  0.3786 -0.3087
  959POPC   GL114337  17.989   6.640   5.511  0.2290 -0.3533  0.0183
  959POPC   GL214338  18.213   6.405   5.514 -0.0460 -0.0097 -0.1403
  959POPC   C1A14339  18.168   6.896   5.941 -0.0215  0.2624 -0.1482
  959POPC   D2A14340  17.796   7.164   6.074 -0.3186  0.3862  0.0344
  959POPC   C3A14341  17.674   7.157   6.514 -0.1469  0.2223  0.0785
  959POPC   C4A14342  17.267   7.022   6.802  0.1691  0.2506  0.0882
  959POPC   C1B14343  18.372   6.284   5.889 -0.2715  0.2676  0.3129
  959POPC   C2B14344  18.191   6.287   6.269 -0.3242 -0.1865  0.0723
  959POPC   C3B14345  17.941   6.361   6.618  0.3247  0.1520 -0.1569
  959POPC   C4B14346  17.603   6.595   6.734 -0.0744 -0.2324 -0.0005
  960POPC   NC314347   8.037   1.978   4.988  0.2741  0.2059  0.1173
  960POPC   PO414348   7.668   2.053   5.056  0.1598 -0.1396  0.2413
  960POPC   GL114349   7.854   2.023   5.437 -0.0206 -0.1397 -0.2280
  960POPC   GL214350   8.150   2.138   5.454  0.2417  0.4287 -0.1737
  960POPC   C1A14351   7.723   2.099   5.840 -0.1883 -0.1148 -0.0186
  960POPC   D2A14352   7.596   2.186   6.218 -0.3102 -0.0628  0.0546
  960POPC   C3A14353   7.326   2.427   6.122 -0.1291 -0.2220  0.0451
  960POPC   C4A14354   6.910   2.577   6.306 -0.3348  0.0640  0.0492
  960POPC   C1B14355   8.234   2.095   5.910  0.1170 -0.0886 -0.2373
  960POPC   C2B14356   8.466   2.252   6.213 -0.0222  0.0793  0.0819
  960POPC   C3B14357   8.413   2.486   6.480 -0.1879  0.0528  0.6625
  960POPC   C4B14358   8.411   2.685   6.783  0.1256 -0.0894 -0.1826
  961POPC   NC314359  13.611   3.394   4.690  0.0200  0.0723 -0.2308
  961POPC   PO414360  13.696   3.713   4.992 -0.0706 -0.1480  0.1189
  961POPC   GL114361  13.486   3.866   5.386 -0.0474  0.2129 -0.4071
  961POPC   GL214362  13.434   3.699   5.568  0.0599  0.4327 -0.3524
  961POPC   C1A14363  13.252   4.218   5.374  0.1988 -0.1005 -0.2874
  961POPC   D2A14364  12.827   4.276   5.642  0.2588  0.1846  0.2271
  961POPC   C3A14365  12.851   4.448   6.024  0.3218  0.0491  0.0715
  961POPC   C4A14366  12.968   4.746   6.371  0.0057  0.3182  0.0016
  961POPC   C1B14367  13.490   3.533   5.923  0.2528 -0.0691 -0.1777
  961POPC   C2B14368  13.751   3.365   6.175  0.0203  0.0005  0.0856
  961POPC   C3B14369  13.952   3.557   6.481 -0.0274 -0.0181  0.0749
  961POPC   C4B14370  13.951   3.756   6.963  0.2304  0.0095 -0.3594
  962POPC   NC314371  19.417   1.109   4.935 -0.0507 -0.1884 -0.2400
  962POPC   PO414372  19.859   1.228   5.074 -0.2996 -0.1902  0.0737
  962POPC   GL114373  19.775   1.205   5.534  0.2559 -0.4448 -0.0508
  962POPC   GL214374  20.030   1.057   5.632  0.0450  0.1596  0.3662
  962POPC   C1A14375  19.991   1.515   5.931  0.6100  0.0940  0.0824
  962POPC   D2A14376  20.089   1.424   6.270  0.3060 -0.0852 -0.0990
  962POPC   C3A14377  19.728   1.294   6.521 -0.1677 -0.1356  0.0637
  962POPC   C4A14378  19.745   0.854   6.432 -0.1737 -0.3765 -0.2574
  962POPC   C1B14379  20.064   0.979   6.060  0.1649 -0.4658 -0.1063
  962POPC   C2B14380  20.147   1.053   6.595  0.3398  0.1011  0.0837
  962POPC   C3B14381  20.391   1.111   7.063  0.1221  0.0452  0.0463
  962POPC   C4B14382  20.691   0.979   7.339  0.3084  0.1575 -0.3364
  963POPC   NC314383  14.567   1.032   4.864 -0.2679 -0.3750  0.1377
  963POPC   PO414384  14.227   0.814   4.869  0.1452 -0.2092 -0.0809
  963POPC   GL114385  14.244   0.786   5.294 -0.3215  0.0035 -0.1081
  963POPC   GL214386  14.097   0.426   5.418 -0.0910 -0.0479 -0.2611
  963POPC   C1A14387  14.242   1.077   5.591 -0.0373 -0.1684  0.3138
  963POPC   D2A14388  14.317   1.119   5.959  0.3239 -0.1100  0.3151
  963POPC   C3A14389  14.120   1.444   6.256  0.0462 -0.0028  0.2026
  963POPC   C4A14390  14.003   1.858   6.287 -0.2826  0.0485 -0.2063
  963POPC   C1B14391  13.973   0.696   5.832  0.0610  0.0862  0.4482
  963POPC   C2B14392  13.812   1.020   6.186 -0.1590  0.2591 -0.0544
  963POPC   C3B14393  13.754   1.308   6.522  0.2417  0.0872  0.2519
  963POPC   C4B14394  13.529   1.321   6.855 -0.0302  0.1220 -0.1852
  964POPC   NC314395   6.969   3.976   4.666 -0.0682  0.2006  0.0544
  964POPC   PO414396   6.940   4.450   4.762  0.2301  0.3503 -0.1629
  964POPC   GL114397   6.805   4.568   5.159 -0.4313 -0.0460 -0.0218
  964POPC   GL214398   6.428   4.553   5.163  0.3849 -0.0583 -0.1554
  964POPC   C1A14399   6.950   4.701   5.531  0.0224 -0.6114 -0.2650
  964POPC   D2A14400   6.886   4.811   5.948  0.1193  0.0671  0.0678
  964POPC   C3A14401   6.988   4.725   6.368  0.1961 -0.0282  0.0032
  964POPC   C4A14402   7.408   4.558   6.556  0.0085 -0.0774 -0.1497
  964POPC   C1B14403   6.481   4.462   5.567 -0.1537 -0.0597  0.0718
  964POPC   C2B14404   6.474   4.551   5.954  0.1550 -0.4063 -0.2122
  964POPC   C3B14405   6.449   4.771   6.369 -0.3994 -0.1480  0.0963
  964POPC   C4B14406   6.296   4.710   6.755 -0.2972  0.1010  0.0399
  965POPC   NC314407  18.897  13.736   4.829 -0.0284 -0.1377 -0.0018
  965POPC   PO414408  18.969  14.195   5.011  0.0935  0.0740  0.0258
  965POPC   GL114409  19.021  13.923   5.338  0.3619  0.0476  0.0456
  965POPC   GL214410  18.804  13.878   5.682  0.0595  0.0381  0.1166
  965POPC   C1A14411  19.346  14.044   5.635  0.1116 -0.1014 -0.0455
  965POPC   D2A14412  19.373  14.140   6.198  0.2855 -0.1182 -0.0035
  965POPC   C3A14413  19.399  14.267   6.686 -0.0984 -0.0253 -0.0222
  965POPC   C4A14414  19.422  14.349   7.186  0.1267 -0.1911  0.2326
  965POPC   C1B14415  18.542  13.955   6.012 -0.2543 -0.0907  0.0829
  965POPC   C2B14416  18.311  13.768   6.326 -0.0444  0.1237 -0.0309
  965POPC   C3B14417  18.385  13.534   6.674  0.1208  0.1448  0.2264
  965POPC   C4B14418  18.383  13.333   7.105 -0.2374 -0.2911 -0.3656
  966POPC   NC314419  11.731   5.332   4.636 -0.0281  0.2539  0.2472
  966POPC   PO414420  11.792   5.596   5.002  0.1360 -0.0596 -0.3394
  966POPC   GL114421  11.615   5.375   5.418  0.1656 -0.1785 -0.0643
  966POPC   GL214422  11.796   5.442   5.728 -0.0851  0.0295 -0.1012
  966POPC   C1A14423  11.404   5.132   5.877 -0.0129 -0.2460 -0.0406
  966POPC   D2A14424  11.100   4.973   6.041  0.1753 -0.1237 -0.1256
  966POPC   C3A14425  10.948   4.919   6.385 -0.0191  0.0066  0.3339
  966POPC   C4A14426  10.673   4.987   6.735 -0.1513 -0.0658  0.3592
  966POPC   C1B14427  11.516   5.673   6.012  0.1928  0.0193 -0.4073
  966POPC   C2B14428  11.514   5.839   6.475  0.6580 -0.3729  0.0696
  966POPC   C3B14429  11.242   5.970   6.861 -0.1426 -0.0799 -0.2131
  966POPC   C4B14430  11.129   6.240   7.155  0.0018 -0.0335 -0.1965
  967POPC   NC314431   2.082  16.234   5.287  0.0379  0.2167 -0.1906
  967POPC   PO414432   2.486  16.059   5.123  0.3638 -0.0998  0.2189
  967POPC   GL114433   2.401  15.855   5.435 -0.0128 -0.0955  0.0354
  967POPC   GL214434   2.354  15.507   5.476 -0.1272 -0.0290  0.0049
  967POPC   C1A14435   2.422  15.908   5.943 -0.0394  0.1966 -0.2145
  967POPC   D2A14436   2.254  16.005   6.306 -0.1951 -0.1479 -0.1650
  967POPC   C3A14437   1.841  15.865   6.355  0.3386 -0.3049  0.0420
  967POPC   C4A14438   1.633  15.716   6.525 -0.3145 -0.0402  0.6303
  967POPC   C1B14439   2.447  15.402   5.797 -0.0675  0.0978  0.0053
  967POPC   C2B14440   2.387  15.440   6.234 -0.2104  0.0612  0.0384
  967POPC   C3B14441   2.118  15.457   6.648  0.2500 -0.0885  0.0866
  967POPC   C4B14442   1.831  15.218   6.742  0.2196 -0.0130 -0.2218
  968POPC   NC314443  13.041   5.183   4.770 -0.1536 -0.5711  0.1975
  968POPC   PO414444  13.462   5.188   4.759  0.0488 -0.0638  0.4004
  968POPC   GL114445  13.251   5.048   5.227  0.3405 -0.3962  0.2115
  968POPC   GL214446  13.058   5.241   5.269  0.1191 -0.1012 -0.2841
  968POPC   C1A14447  13.392   5.088   5.640  0.1395  0.3062  0.0720
  968POPC   D2A14448  13.228   5.061   6.026 -0.1262  0.1430 -0.1323
  968POPC   C3A14449  13.232   5.151   6.481  0.2211 -0.0852  0.2774
  968POPC   C4A14450  13.151   4.945   6.954  0.1394  0.0348 -0.0477
  968POPC   C1B14451  12.707   5.218   5.663  0.1671  0.1330 -0.1060
  968POPC   C2B14452  12.606   5.042   6.044  0.0276 -0.4051  0.3370
  968POPC   C3B14453  12.706   5.178   6.418 -0.1083  0.1908  0.2347
  968POPC   C4B14454  12.863   5.329   6.735  0.1297  0.3037 -0.0923
  969POPC   NC314455  19.416   5.897   5.132 -0.2244 -0.1829  0.0774
  969POPC   PO414456  19.074   5.798   5.384 -0.0986  0.0491 -0.0183
  969POPC   GL114457  19.091   5.825   5.877 -0.1273 -0.0883 -0.0292
  969POPC   GL214458  18.705   5.909   5.908  0.1128 -0.1900  0.0639
  969POPC   C1A14459  19.338   5.857   6.315  0.2714 -0.1291  0.1269
  969POPC   D2A14460  19.436   6.068   6.663 -0.0885  0.1130  0.1555
  969POPC   C3A14461  19.820   6.190   6.936 -0.2103  0.2020 -0.1387
  969POPC   C4A14462  20.167   6.438   6.895 -0.1850  0.0719  0.0224
  969POPC   C1B14463  18.641   5.455   5.920  0.1430 -0.4222  0.1262
  969POPC   C2B14464  18.648   5.104   6.160 -0.0079  0.1723  0.0409
  969POPC   C3B14465  18.645   4.842   6.513 -0.1480 -0.1090  0.4519
  969POPC   C4B14466  18.391   4.579   6.701 -0.1710 -0.0524 -0.0904
  970POPC   NC314467   1.130   8.621   4.808 -0.1034 -0.0745  0.0291
  970POPC   PO414468   1.565   8.529   4.814  0.1033  0.1966 -0.1918
  970POPC   GL114469   1.549   8.666   5.243  0.0229  0.1183 -0.0580
  970POPC   GL214470   1.891   8.780   5.430  0.0163 -0.0784  0.2576
  970POPC   C1A14471   1.411   8.604   5.725  0.0653 -0.2247  0.1512
  970POPC   D2A14472   1.711   8.673   5.981  0.0708  0.1120 -0.2769
  970POPC   C3A14473   2.006   8.547   6.268  0.2613  0.1383 -0.2404
  970POPC   C4A14474   2.142   8.373   6.608  0.2834 -0.4848 -0.4992
  970POPC   C1B14475   2.202   9.027   5.725 -0.2519 -0.1519  0.3476
  970POPC   C2B14476   2.434   8.945   6.136  0.4312  0.1431  0.0365
  970POPC   C3B14477   2.327   8.924   6.478 -0.3824 -0.1388 -0.3246
  970POPC   C4B14478   2.165   9.168   6.834  0.2800  0.0207  0.0087
  971POPC   NC314479   1.502   0.007   5.006  0.2083 -0.0354  0.0162
  971POPC   PO414480   1.780  -0.264   5.147 -0.0523  0.0274 -0.3142
  971POPC   GL114481   1.799  -0.379   5.608 -0.0669 -0.1400  0.0291
  971POPC   GL214482   1.447  -0.496   5.581 -0.1507  0.0247  0.1665
  971POPC   C1A14483   1.994  -0.548   5.983 -0.1874  0.1048  0.0630
  971POPC   D2A14484   2.000  -0.473   6.270  0.2547 -0.3358  0.1834
  971POPC   C3A14485   1.900  -0.631   6.613 -0.0650  0.2272 -0.2951
  971POPC   C4A14486   1.753  -0.792   6.987  0.1278  0.2095  0.2927
  971POPC   C1B14487   1.495  -0.406   6.065 -0.1216  0.1659  0.2145
  971POPC   C2B14488   1.296  -0.223   6.536 -0.0032 -0.0650  0.1987
  971POPC   C3B14489   1.310   0.090   6.780 -0.2849  0.1584 -0.0736
  971POPC   C4B14490   1.141   0.426   7.036  0.1187 -0.3113 -0.4649
  972POPC   NC314491   4.539   1.930   5.210  0.2870  0.2569  0.1085
  972POPC   PO414492   4.355   2.444   5.329 -0.3950 -0.1067  0.0138
  972POPC   GL114493   4.228   2.552   5.728  0.2168  0.2482 -0.1398
  972POPC   GL214494   4.387   2.739   5.771  0.0548  0.1531 -0.2325
  972POPC   C1A14495   4.065   2.302   5.993 -0.1059  0.0221  0.0527
  972POPC   D2A14496   4.017   2.315   6.386 -0.3520 -0.1002 -0.3496
  972POPC   C3A14497   4.292   2.052   6.561 -0.0765  0.1158  0.1439
  972POPC   C4A14498   4.544   1.755   6.549 -0.3878 -0.2340  0.1358
  972POPC   C1B14499   4.510   2.574   6.146 -0.0318 -0.1869 -0.2057
  972POPC   C2B14500   4.376   2.650   6.612 -0.1663 -0.0069 -0.1190
  972POPC   C3B14501   4.351   2.989   6.967 -0.0867 -0.1862  0.1407
  972POPC   C4B14502   4.516   3.254   7.295 -0.0911  0.4512  0.1746
  973POPC   NC314503  14.183   9.612   4.441 -0.1975  0.0683  0.2895
  973POPC   PO414504  14.149   9.277   4.747 -0.1356  0.3477 -0.1835
  973POPC   GL114505  14.366   9.212   5.119  0.0867  0.0790 -0.1513
  973POPC   GL214506  14.695   9.296   5.128  0.0241  0.2259  0.5058
  973POPC   C1A14507  14.589   9.101   5.610 -0.2924  0.3275 -0.2086
  973POPC   D2A14508  14.694   8.782   5.878 -0.0887 -0.0559 -0.2167
  973POPC   C3A14509  14.925   8.653   6.208 -0.3769 -0.1523  0.2301
  973POPC   C4A14510  14.921   8.509   6.636 -0.1223  0.2754 -0.1236
  973POPC   C1B14511  15.060   9.237   5.526  0.0472  0.2508  0.1805
  973POPC   C2B14512  15.128   9.062   5.841 -0.0554 -0.1130  0.1461
  973POPC   C3B14513  14.894   9.177   6.299 -0.0505 -0.0364 -0.2622
  973POPC   C4B14514  14.843   9.001   6.708  0.1192 -0.0273 -0.2586
  974POPC   NC314515  10.134   5.284   4.872  0.1257 -0.1504  0.2354
  974POPC   PO414516  10.445   4.933   5.005 -0.1436 -0.1197 -0.1640
  974POPC   GL114517  10.511   4.733   5.257 -0.2097 -0.0919 -0.0150
  974POPC   GL214518  10.749   4.932   5.547 -0.1761 -0.1905 -0.0556
  974POPC   C1A14519  10.203   4.544   5.562  0.0431  0.1557 -0.0409
  974POPC   D2A14520  10.189   4.348   5.966  0.0760 -0.2208  0.0329
  974POPC   C3A14521   9.984   4.381   6.345  0.1095  0.0861  0.2619
  974POPC   C4A14522   9.978   4.320   6.794 -0.1947  0.2569 -0.0903
  974POPC   C1B14523  10.588   4.883   6.010 -0.3940  0.0249 -0.1818
  974POPC   C2B14524  10.386   4.713   6.406  0.0495 -0.0836 -0.1680
  974POPC   C3B14525  10.341   4.661   6.892  0.5192 -0.0928 -0.0682
  974POPC   C4B14526   9.978   4.884   7.225 -0.0152  0.0828  0.0451
  975POPC   NC314527  15.644  19.638   4.583  0.3286  0.0816 -0.0928
  975POPC   PO414528  15.763  19.256   4.778 -0.3105  0.0581 -0.0856
  975POPC   GL114529  15.761  19.269   5.260  0.0751  0.0726 -0.1989
  975POPC   GL214530  16.118  19.226   5.469 -0.3507 -0.0861 -0.1212
  975POPC   C1A14531  15.677  19.118   5.684  0.1435 -0.0915  0.2714
  975POPC   D2A14532  15.645  19.048   6.276  0.1742 -0.0889  0.1396
  975POPC   C3A14533  15.268  18.835   6.465 -0.1637 -0.0084 -0.0555
  975POPC   C4A14534  14.927  18.538   6.327  0.0336 -0.3967  0.3041
  975POPC   C1B14535  16.123  19.362   5.888 -0.0856  0.2378 -0.2225
  975POPC   C2B14536  16.005  19.304   6.267 -0.1752  0.0257  0.2248
  975POPC   C3B14537  15.871  19.424   6.591  0.1595  0.5665  0.2826
  975POPC   C4B14538  15.924  19.343   6.889  0.1511 -0.2697  0.0928
  976POPC   NC314539   9.222   1.589   5.165 -0.1696 -0.0048 -0.0781
  976POPC   PO414540   9.113   2.044   4.905 -0.0558  0.2774  0.1078
  976POPC   GL114541   9.092   2.199   5.255  0.1829 -0.3712  0.0880
  976POPC   GL214542   9.445   2.354   5.263  0.1141  0.0138 -0.1477
  976POPC   C1A14543   9.011   1.969   5.611 -0.0288 -0.3712 -0.1595
  976POPC   D2A14544   9.049   1.552   5.696 -0.3550  0.0810  0.0445
  976POPC   C3A14545   8.737   1.339   5.971 -0.1481 -0.1704  0.3469
  976POPC   C4A14546   8.806   1.220   6.377 -0.1613 -0.2385  0.0259
  976POPC   C1B14547   9.512   2.032   5.593 -0.2156 -0.1806 -0.0269
  976POPC   C2B14548   9.447   1.979   5.952  0.3641  0.0262  0.0226
  976POPC   C3B14549   9.200   1.648   6.172  0.1156 -0.2959  0.3484
  976POPC   C4B14550   9.120   1.528   6.565 -0.2357 -0.4637 -0.1408
  977POPC   NC314551  18.651   5.384   5.310  0.2286  0.0721  0.0235
  977POPC   PO414552  18.437   5.082   5.054  0.2207  0.4504 -0.1186
  977POPC   GL114553  18.212   5.048   5.514  0.3241  0.2834  0.0140
  977POPC   GL214554  17.874   4.952   5.320 -0.2002  0.2928  0.1900
  977POPC   C1A14555  18.060   4.842   5.842 -0.2468  0.0914  0.0688
  977POPC   D2A14556  17.723   5.018   6.126  0.0181 -0.0904  0.1242
  977POPC   C3A14557  17.588   5.299   6.324  0.1194  0.1745 -0.2141
  977POPC   C4A14558  17.579   5.361   6.765  0.3554 -0.2999  0.1801
  977POPC   C1B14559  17.778   5.300   5.614  0.1837  0.0674  0.1467
  977POPC   C2B14560  18.123   5.296   6.149 -0.0711 -0.0609 -0.0143
  977POPC   C3B14561  18.046   5.372   6.516 -0.1522  0.0481  0.2663
  977POPC   C4B14562  17.992   5.472   6.961 -0.0222  0.2632  0.1055
  978POPC   NC314563  13.725   1.100   4.787 -0.1768  0.2335  0.4281
  978POPC   PO414564  14.143   1.304   4.686  0.0618 -0.0057 -0.2403
  978POPC   GL114565  14.016   1.260   5.112 -0.1227 -0.1316 -0.1204
  978POPC   GL214566  14.342   1.395   5.213 -0.5029  0.0381 -0.3330
  978POPC   C1A14567  13.782   1.096   5.532 -0.5643  0.0824 -0.2899
  978POPC   D2A14568  13.503   1.261   5.699 -0.2005  0.1185  0.3851
  978POPC   C3A14569  13.353   1.191   6.180  0.2437 -0.0302  0.5424
  978POPC   C4A14570  13.363   0.989   6.539  0.0768  0.2863 -0.1645
  978POPC   C1B14571  14.307   1.691   5.470 -0.1629 -0.0902  0.2942
  978POPC   C2B14572  14.436   1.674   5.907 -0.0625 -0.1619 -0.0305
  978POPC   C3B14573  14.536   1.749   6.319 -0.1651  0.0830  0.2139
  978POPC   C4B14574  14.740   1.946   6.542  0.1789 -0.0973 -0.0158
  979POPC   NC314575   5.622  13.261   5.601  0.2761 -0.0096 -0.2676
  979POPC   PO414576   5.471  13.509   5.558  0.0777  0.0930 -0.0723
  979POPC   GL114577   5.515  13.489   6.069 -0.3518 -0.2192  0.0790
  979POPC   GL214578   5.834  13.612   6.236 -0.1600 -0.5157 -0.3070
  979POPC   C1A14579   5.343  13.599   6.440 -0.0331 -0.1293  0.0798
  979POPC   D2A14580   5.082  13.552   6.740 -0.1069  0.1217  0.1387
  979POPC   C3A14581   5.252  13.619   7.169 -0.1567 -0.0964  0.3788
  979POPC   C4A14582   5.428  13.455   7.470 -0.0496  0.0656 -0.3871
  979POPC   C1B14583   6.009  13.897   6.518  0.2008 -0.1804  0.0887
  979POPC   C2B14584   6.212  14.198   6.743  0.2399  0.1865  0.1794
  979POPC   C3B14585   6.444  14.543   6.691  0.0259 -0.1311 -0.0076
  979POPC   C4B14586   6.489  14.741   6.278  0.0476 -0.0198  0.1263
  980POPC   NC314587  13.618   4.799   4.519 -0.1939  0.1176 -0.2174
  980POPC   PO414588  13.901   4.449   4.602 -0.1365 -0.2569  0.2668
  980POPC   GL114589  13.809   4.604   5.013  0.0758  0.3684 -0.2656
  980POPC   GL214590  13.651   4.299   5.080  0.0587  0.1756 -0.3981
  980POPC   C1A14591  13.521   4.665   5.377  0.2148  0.2881  0.0156
  980POPC   D2A14592  13.247   4.593   5.714 -0.0127 -0.1195 -0.1923
  980POPC   C3A14593  13.478   4.595   6.176 -0.0379 -0.0332  0.1955
  980POPC   C4A14594  13.911   4.568   6.443  0.0700 -0.0338  0.0375
  980POPC   C1B14595  13.826   4.268   5.530  0.2188  0.1272 -0.2504
  980POPC   C2B14596  13.576   4.277   5.819  0.1503 -0.1709 -0.0416
  980POPC   C3B14597  13.381   4.085   6.148  0.1908 -0.0977 -0.0459
  980POPC   C4B14598  13.230   4.277   6.538 -0.0372 -0.1976  0.3631
  981POPC   NC314599  17.778   3.976   5.171  0.0432  0.0956  0.0425
  981POPC   PO414600  18.291   4.121   5.290  0.0446 -0.1365 -0.0813
  981POPC   GL114601  18.466   3.960   5.600 -0.1279 -0.1732  0.2441
  981POPC   GL214602  18.410   3.670   5.682 -0.1442  0.0836 -0.1707
  981POPC   C1A14603  18.630   4.071   5.947 -0.4085 -0.0369  0.0937
  981POPC   D2A14604  18.665   4.272   6.357  0.0898  0.0584 -0.1341
  981POPC   C3A14605  18.535   4.033   6.651  0.4564  0.1846  0.0449
  981POPC   C4A14606  18.163   4.068   6.946 -0.0766 -0.1335 -0.1272
  981POPC   C1B14607  18.189   3.759   6.113  0.3671 -0.0171 -0.0294
  981POPC   C2B14608  18.026   3.718   6.474  0.1851  0.2217  0.1515
  981POPC   C3B14609  17.668   3.479   6.560  0.0812  0.0015 -0.4346
  981POPC   C4B14610  17.338   3.223   6.341 -0.0171 -0.2503 -0.2679
  982POPC   NC314611  17.479  19.303   4.492  0.2873 -0.1803 -0.0747
  982POPC   PO414612  17.585  19.056   4.719 -0.2030  0.1160  0.2612
  982POPC   GL114613  17.672  19.069   5.228  0.0010 -0.2156 -0.1080
  982POPC   GL214614  17.627  18.765   5.409  0.3286  0.1978  0.4495
  982POPC   C1A14615  17.981  18.925   5.650 -0.2987  0.0399  0.2028
  982POPC   D2A14616  18.184  19.124   6.193 -0.0369  0.4372  0.0291
  982POPC   C3A14617  18.427  18.946   6.511  0.1229 -0.0476 -0.0913
  982POPC   C4A14618  18.384  18.824   6.959 -0.3780 -0.0175  0.1123
  982POPC   C1B14619  17.328  18.480   5.383  0.0802 -0.0307 -0.0183
  982POPC   C2B14620  16.970  18.365   5.674 -0.1502  0.0036 -0.0169
  982POPC   C3B14621  16.816  18.241   5.892  0.0395  0.1521 -0.0791
  982POPC   C4B14622  16.881  18.158   6.189  0.0887 -0.0059 -0.2346
  983POPC   NC314623  18.275   9.391   4.827  0.5215 -0.0268 -0.3559
  983POPC   PO414624  18.181   9.614   5.216  0.1670  0.1717 -0.2726
  983POPC   GL114625  18.348   9.562   5.527  0.1615  0.0444  0.1151
  983POPC   GL214626  18.524   9.263   5.394  0.2408 -0.2315  0.0906
  983POPC   C1A14627  18.415   9.437   5.933 -0.0826  0.1277  0.3290
  983POPC   D2A14628  18.141   9.303   6.326 -0.0933 -0.3387 -0.0399
  983POPC   C3A14629  18.260   9.555   6.640 -0.4003  0.2211 -0.0453
  983POPC   C4A14630  18.365   9.381   7.065  0.2199 -0.0193  0.1464
  983POPC   C1B14631  18.530   9.021   5.718 -0.2251  0.1879 -0.1686
  983POPC   C2B14632  18.217   8.994   6.031  0.0083  0.0382 -0.0275
  983POPC   C3B14633  17.858   8.779   6.160 -0.0240  0.1028  0.1171
  983POPC   C4B14634  17.739   8.772   5.734 -0.0139 -0.5027 -0.0579
  984YOPC   NC314635   1.604  17.579   4.551 -0.2398 -0.3228  0.1762
  984YOPC   PO414636   1.624  17.850   4.971  0.3097 -0.1742 -0.0672
  984YOPC   GL114637   1.445  17.783   5.521  0.1677  0.0289  0.0940
  984YOPC   GL214638   1.484  17.439   5.488  0.1640  0.1867 -0.3054
  984YOPC   C1A14639   1.171  17.830   5.918 -0.2419 -0.1058 -0.2328
  984YOPC   D2A14640   0.854  17.918   6.256 -0.1125  0.1503  0.4250
  984YOPC   C3A14641   0.592  17.805   6.658  0.1524  0.1183  0.2252
  984YOPC   C4A14642   0.332  17.678   6.995  0.1260  0.1513  0.0568
  984YOPC   C1B14643   1.204  17.369   5.883  0.2288  0.3809 -0.0999
  984YOPC   C2B14644   0.785  17.007   5.818 -0.3362  0.3162 -0.0882
  984YOPC   D3B14645   0.370  17.080   5.914  0.0132 -0.0376  0.3533
  984YOPC   C4B14646   0.018  16.806   5.815 -0.0875  0.0172 -0.2026
  985YOPC   NC314647  13.369   2.015   4.746  0.0336 -0.0775  0.0000
  985YOPC   PO414648  12.926   2.154   4.889  0.4596  0.3032  0.2043
  985YOPC   GL114649  12.736   2.046   5.276 -0.1122  0.4083 -0.0077
  985YOPC   GL214650  12.743   2.266   5.519  0.1058  0.0415  0.2101
  985YOPC   C1A14651  12.571   1.703   5.511 -0.0643  0.0962 -0.2073
  985YOPC   D2A14652  12.442   1.545   5.812 -0.1245  0.1988  0.0163
  985YOPC   C3A14653  12.594   1.430   6.206 -0.0676  0.0265 -0.0493
  985YOPC   C4A14654  12.416   1.008   6.397 -0.1656 -0.2517  0.1367
  985YOPC   C1B14655  12.628   2.347   6.025  0.1284 -0.1552 -0.3712
  985YOPC   C2B14656  12.485   2.390   6.426 -0.0249 -0.1483 -0.1362
  985YOPC   D3B14657  12.851   2.306   6.692 -0.2704  0.0039 -0.0927
  985YOPC   C4B14658  13.260   2.127   6.716 -0.0457 -0.0805  0.3540
  986YOPC   NC314659  12.222   6.361   4.707 -0.1908  0.0597  0.1834
  986YOPC   PO414660  11.928   6.215   4.920 -0.0031 -0.1100 -0.1820
  986YOPC   GL114661  11.866   6.304   5.434 -0.0085  0.4891  0.2389
  986YOPC   GL214662  12.022   6.220   5.716 -0.1802  0.3413  0.1572
  986YOPC   C1A14663  11.651   6.570   5.720 -0.1331 -0.0784 -0.0531
  986YOPC   D2A14664  11.534   6.872   6.144 -0.0390  0.0875  0.1194
  986YOPC   C3A14665  11.805   6.696   6.567 -0.0316  0.0473  0.3156
  986YOPC   C4A14666  12.131   6.775   6.790  0.0978 -0.0317  0.1964
  986YOPC   C1B14667  12.171   6.016   6.094  0.3299  0.4912 -0.0978
  986YOPC   C2B14668  11.971   5.871   6.449  0.0865 -0.1124 -0.0970
  986YOPC   D3B14669  11.780   6.223   6.788  0.1448  0.2774  0.0634
  986YOPC   C4B14670  11.618   6.298   7.015  0.3394 -0.2529 -0.0902
  987YOPC   NC314671   9.157   2.567   4.921 -0.0826  0.2082 -0.0970
  987YOPC   PO414672   9.095   3.020   4.825  0.0774 -0.0652 -0.1642
  987YOPC   GL114673   8.925   3.485   5.043  0.2314  0.1760 -0.1292
  987YOPC   GL214674   8.750   3.264   5.129 -0.3177  0.1356 -0.0104
  987YOPC   C1A14675   8.912   3.628   5.474  0.0303 -0.1565  0.1828
  987YOPC   D2A14676   8.855   3.699   5.965  0.2464  0.1016 -0.2836
  987YOPC   C3A14677   8.509   3.985   6.059 -0.0121 -0.2307  0.0819
  987YOPC   C4A14678   8.187   4.217   6.412 -0.0453  0.0179 -0.2570
  987YOPC   C1B14679   8.655   3.230   5.568 -0.5008 -0.2163  0.1548
  987YOPC   C2B14680   8.451   3.312   5.987 -0.4381 -0.1509  0.0929
  987YOPC   D3B14681   7.926   3.204   6.058 -0.0979 -0.1568 -0.4458
  987YOPC   C4B14682   7.567   2.890   6.008  0.2521  0.0758  0.1636
  988YOPC   NC314683  13.360  10.374   4.429 -0.1258 -0.0527 -0.0153
  988YOPC   PO414684  13.638  10.184   4.813 -0.0171  0.1466 -0.0053
  988YOPC   GL114685  13.657  10.076   5.171  0.0822 -0.0344 -0.4132
  988YOPC   GL214686  13.747   9.766   5.063 -0.1808  0.2923 -0.0751
  988YOPC   C1A14687  13.926  10.046   5.529  0.1293 -0.1045  0.3012
  988YOPC   D2A14688  13.809  10.196   5.876  0.2018 -0.1350 -0.0579
  988YOPC   C3A14689  13.814  10.635   6.049  0.0050 -0.2542  0.0723
  988YOPC   C4A14690  13.728  11.133   6.149 -0.2619  0.4490  0.5955
  988YOPC   C1B14691  13.810   9.581   5.432 -0.1359  0.1631  0.1045
  988YOPC   C2B14692  13.482   9.328   5.699  0.1989  0.0202  0.1157
  988YOPC   D3B14693  13.620   9.313   6.097  0.0444 -0.0589 -0.1245
  988YOPC   C4B14694  13.617   9.703   6.395  0.0947 -0.1876 -0.3321
  989YOPC   NC314695   6.455   3.027   4.332 -0.1321  0.3270 -0.1511
  989YOPC   PO414696   6.845   3.053   4.505 -0.1925  0.3093 -0.0258
  989YOPC   GL114697   6.810   3.167   4.921  0.4125  0.2641  0.1302
  989YOPC   GL214698   6.810   3.559   5.010  0.1751  0.0321 -0.1457
  989YOPC   C1A14699   6.548   3.227   5.193 -0.0676 -0.2905 -0.1270
  989YOPC   D2A14700   6.340   3.461   5.454 -0.1775  0.0347  0.1240
  989YOPC   C3A14701   6.289   3.323   5.952  0.3074  0.0080  0.0384
  989YOPC   C4A14702   6.105   3.207   6.380 -0.3831 -0.1264 -0.3981
  989YOPC   C1B14703   6.916   3.508   5.412  0.1112 -0.0156 -0.1719
  989YOPC   C2B14704   6.801   3.309   5.698  0.0595 -0.4518  0.1262
  989YOPC   D3B14705   6.980   3.586   5.980 -0.2264  0.2232  0.2886
  989YOPC   C4B14706   7.014   3.764   6.369  0.0282 -0.1207  0.0623
  990YOPC   NC314707   2.946  12.192   5.335  0.0369  0.0216  0.3614
  990YOPC   PO414708   2.815  12.696   5.457 -0.1876 -0.1070 -0.0862
  990YOPC   GL114709   2.813  12.414   5.727  0.4201  0.1557  0.0968
  990YOPC   GL214710   2.591  12.577   5.928  0.0083  0.1331 -0.0707
  990YOPC   C1A14711   2.908  12.139   6.060 -0.1262  0.1084  0.0701
  990YOPC   D2A14712   2.993  11.882   6.416 -0.1390 -0.2930  0.0058
  990YOPC   C3A14713   3.344  11.935   6.718 -0.1625 -0.4478 -0.3007
  990YOPC   C4A14714   3.325  12.382   6.894 -0.0067  0.2089  0.0812
  990YOPC   C1B14715   2.509  12.788   6.286 -0.0590 -0.0960 -0.4362
  990YOPC   C2B14716   2.377  13.203   6.465 -0.1368 -0.1475 -0.1203
  990YOPC   D3B14717   2.489  13.575   6.234 -0.1399 -0.0959  0.1004
  990YOPC   C4B14718   2.505  14.012   6.043 -0.1305  0.1810 -0.0247
  991YOPC   NC314719   3.515  15.498   4.601 -0.2822  0.1249 -0.2605
  991YOPC   PO414720   3.274  15.719   4.967 -0.3300  0.1272  0.1632
  991YOPC   GL114721   3.338  15.391   5.299  0.0414  0.2791 -0.1009
  991YOPC   GL214722   3.004  15.457   5.454 -0.1255 -0.3600 -0.0152
  991YOPC   C1A14723   3.427  15.086   5.468  0.0132  0.3826 -0.0528
  991YOPC   D2A14724   3.559  14.768   5.739 -0.0291 -0.2447  0.1131
  991YOPC   C3A14725   3.373  14.414   5.823 -0.1975 -0.1354  0.1974
  991YOPC   C4A14726   2.975  14.252   5.830 -0.1824  0.1158  0.0962
  991YOPC   C1B14727   3.397  15.391   5.787  0.0960 -0.0365  0.3448
  991YOPC   C2B14728   3.543  15.140   6.053  0.0278  0.2621  0.0869
  991YOPC   D3B14729   3.422  14.723   6.205  0.2078  0.0275  0.1072
  991YOPC   C4B14730   3.326  14.541   6.496  0.0453 -0.1189 -0.1352
  992YOPC   NC314731  19.835  16.824   4.928  0.1750 -0.1540  0.2212
  992YOPC   PO414732  19.942  17.213   5.171  0.0614  0.1876  0.0396
  992YOPC   GL114733  20.115  17.408   5.577  0.1345  0.0724 -0.0488
  992YOPC   GL214734  19.850  17.535   5.689  0.0261  0.0453  0.0720
  992YOPC   C1A14735  20.251  17.511   6.093  0.0424 -0.0462  0.1946
  992YOPC   D2A14736  20.102  17.454   6.534  0.2303 -0.1055 -0.0068
  992YOPC   C3A14737  20.367  17.209   6.759 -0.2182  0.1213  0.0050
  992YOPC   C4A14738  20.818  17.331   6.706  0.2319 -0.0251 -0.0349
  992YOPC   C1B14739  19.793  17.229   5.968  0.1082 -0.4130 -0.0090
  992YOPC   C2B14740  19.615  17.268   6.455  0.0242 -0.1360  0.0848
  992YOPC   D3B14741  19.682  16.941   6.658 -0.2175 -0.0690  0.1490
  992YOPC   C4B14742  19.551  16.806   7.075  0.0797  0.0918 -0.0259
  993YOPC   NC314743  17.663  14.345   5.061 -0.1008 -0.0399  0.0838
  993YOPC   PO414744  17.206  14.496   4.993 -0.2401  0.0728  0.2190
  993YOPC   GL114745  17.225  14.296   5.323  0.0785  0.0673  0.1708
  993YOPC   GL214746  17.472  14.562   5.507  0.1451 -0.1490  0.1363
  993YOPC   C1A14747  17.127  13.908   5.590 -0.3063 -0.3011 -0.1214
  993YOPC   D2A14748  16.904  13.934   5.970  0.3434  0.0770  0.0198
  993YOPC   C3A14749  16.439  13.919   6.063 -0.1661  0.0693 -0.1888
  993YOPC   C4A14750  16.210  14.218   6.190 -0.1259  0.0307 -0.0161
  993YOPC   C1B14751  17.855  14.833   5.689  0.1025 -0.0706 -0.0347
  993YOPC   C2B14752  18.122  15.062   5.935 -0.3135 -0.3651  0.3044
  993YOPC   D3B14753  18.106  15.239   6.272 -0.1147 -0.1228 -0.0449
  993YOPC   C4B14754  18.173  15.247   6.665 -0.0348  0.2068  0.1250
  994YOPC   NC314755   5.981  11.085   5.168  0.3494 -0.0066 -0.0115
  994YOPC   PO414756   6.374  11.280   5.349 -0.1139  0.0813 -0.2660
  994YOPC   GL114757   6.111  11.190   5.686  0.0451 -0.0118  0.1471
  994YOPC   GL214758   5.803  11.266   5.866 -0.1932 -0.1185 -0.0429
  994YOPC   C1A14759   6.046  10.770   5.904  0.3858  0.1924 -0.0499
  994YOPC   D2A14760   6.154  10.518   6.335 -0.0025 -0.1544  0.0494
  994YOPC   C3A14761   5.806  10.488   6.703 -0.0578 -0.3046 -0.0730
  994YOPC   C4A14762   5.395  10.536   7.025 -0.0429  0.0162  0.1451
  994YOPC   C1B14763   6.065  11.167   6.189  0.0835 -0.2927 -0.2476
  994YOPC   C2B14764   6.264  11.094   6.498 -0.3957  0.1668 -0.2068
  994YOPC   D3B14765   6.317  11.377   6.791  0.0996 -0.1237  0.1693
  994YOPC   C4B14766   6.555  11.623   7.115  0.1168  0.0232 -0.1198
  995YOPC   NC314767   5.195  14.945   5.283 -0.0447  0.0807 -0.1714
  995YOPC   PO414768   5.639  15.215   5.345 -0.0157  0.1288 -0.0357
  995YOPC   GL114769   5.664  15.125   5.784  0.0965  0.2040  0.2326
  995YOPC   GL214770   5.681  14.823   5.734  0.1816  0.1704 -0.1734
  995YOPC   C1A14771   5.499  15.350   6.137  0.0131 -0.0594  0.1284
  995YOPC   D2A14772   5.637  15.550   6.480 -0.0232  0.1122 -0.0366
  995YOPC   C3A14773   5.652  15.985   6.497 -0.0415 -0.2507 -0.1905
  995YOPC   C4A14774   5.948  16.210   6.621  0.1920  0.5026  0.0999
  995YOPC   C1B14775   6.035  14.824   6.059 -0.4114 -0.1122  0.1530
  995YOPC   C2B14776   6.118  15.011   6.478  0.0383 -0.2787 -0.1939
  995YOPC   D3B14777   6.096  15.444   6.670  0.0355  0.0493 -0.0498
  995YOPC   C4B14778   5.997  15.751   6.920  0.3174  0.0187  0.1071
  996YOPC   NC314779   7.649  19.040   4.951 -0.0697  0.1041 -0.0897
  996YOPC   PO414780   7.325  18.768   5.175 -0.0048 -0.0512  0.3187
  996YOPC   GL114781   7.201  18.818   5.631 -0.0041  0.0400  0.1208
  996YOPC   GL214782   6.918  19.059   5.674  0.1162 -0.2532 -0.0176
  996YOPC   C1A14783   7.447  18.850   5.941  0.2252  0.4192  0.0214
  996YOPC   D2A14784   7.656  19.186   6.165  0.1033 -0.2520  0.1344
  996YOPC   C3A14785   7.864  19.145   6.479  0.3487  0.3794  0.2544
  996YOPC   C4A14786   8.223  19.277   6.684  0.1382  0.0248 -0.1931
  996YOPC   C1B14787   6.944  19.015   6.107 -0.3772 -0.1422  0.1451
  996YOPC   C2B14788   7.295  18.970   6.410 -0.1066 -0.1062 -0.0733
  996YOPC   D3B14789   7.349  18.883   6.792 -0.0369 -0.1592  0.1659
  996YOPC   C4B14790   7.140  19.122   7.135  0.2327  0.2100 -0.2864
  997YOPC   NC314791  10.378  18.959   4.635 -0.0905 -0.1540  0.1615
  997YOPC   PO414792  10.489  19.416   4.849  0.1430  0.3590  0.2146
  997YOPC   GL114793  10.504  19.375   5.402 -0.0216 -0.3272  0.0926
  997YOPC   GL214794  10.201  19.210   5.478  0.1836 -0.2651 -0.2189
  997YOPC   C1A14795  10.686  19.546   5.790  0.1536 -0.1328 -0.0059
  997YOPC   D2A14796  11.081  19.750   5.920 -0.0570  0.2406 -0.1384
  997YOPC   C3A14797  11.136  19.669   6.319 -0.0055 -0.0254  0.2890
  997YOPC   C4A14798  11.256  19.328   6.645  0.0614 -0.0476 -0.0802
  997YOPC   C1B14799  10.216  19.492   5.896 -0.0244  0.0654  0.1116
  997YOPC   C2B14800  10.555  19.497   6.265  0.0741  0.1546 -0.1247
  997YOPC   D3B14801  10.460  19.267   6.721  0.3175  0.0930 -0.0818
  997YOPC   C4B14802  10.657  19.456   7.058 -0.1015 -0.2890 -0.0756
  998YOPC   NC314803   1.224   4.036   4.858  0.2611 -0.1615  0.1839
  998YOPC   PO414804   1.567   3.835   4.909  0.1801  0.0195 -0.1491
  998YOPC   GL114805   1.504   3.925   5.295  0.2483 -0.0612  0.0218
  998YOPC   GL214806   1.278   3.937   5.295 -0.0560 -0.1344 -0.2465
  998YOPC   C1A14807   1.849   4.018   5.582 -0.2257 -0.0888 -0.1757
  998YOPC   D2A14808   1.857   4.312   5.894  0.0876 -0.0708 -0.0156
  998YOPC   C3A14809   1.712   4.684   5.860 -0.1377 -0.0350 -0.2521
  998YOPC   C4A14810   1.372   4.973   5.974  0.3457 -0.0142  0.0682
  998YOPC   C1B14811   0.963   3.984   5.676 -0.1881 -0.0438 -0.1546
  998YOPC   C2B14812   0.916   3.989   6.188 -0.4869  0.0838  0.2275
  998YOPC   D3B14813   1.098   3.721   6.516 -0.3871 -0.0048 -0.0545
  998YOPC   C4B14814   0.947   3.415   6.784  0.2273 -0.0635 -0.5171
  999YOPC   NC314815   7.100  14.603   5.078  0.1794  0.0116 -0.2127
  999YOPC   PO414816   7.321  14.504   5.402  0.4279  0.3177  0.0357
  999YOPC   GL114817   7.624  14.522   5.799 -0.2077  0.1223 -0.2959
  999YOPC   GL214818   7.902  14.392   5.716  0.0626  0.1279 -0.0864
  999YOPC   C1A14819   7.706  14.921   6.037 -0.0585 -0.0405  0.2078
  999YOPC   D2A14820   7.939  15.031   6.509 -0.0196  0.0245 -0.0424
  999YOPC   C3A14821   7.793  14.985   6.902 -0.0585  0.0122 -0.0349
  999YOPC   C4A14822   7.717  15.041   7.359 -0.0512 -0.2019  0.0670
  999YOPC   C1B14823   8.027  14.045   5.847  0.0405  0.1111  0.0897
  999YOPC   C2B14824   8.109  13.985   6.338  0.2082 -0.2436 -0.2656
  999YOPC   D3B14825   8.429  14.232   6.635 -0.2733 -0.1644 -0.0199
  999YOPC   C4B14826   8.780  14.348   6.591 -0.4090 -0.3822 -0.4583
 1000YOPC   NC314827   4.804   0.471   4.918  0.4885 -0.0638  0.3189
 1000YOPC   PO414828   4.599   0.115   4.893  0.4339 -0.1021 -0.2321
 1000YOPC   GL114829   4.611   0.318   5.338  0.1571 -0.0307  0.0259
 1000YOPC   GL214830   4.864   0.508   5.420 -0.1829  0.3560  0.0348
 1000YOPC   C1A14831   4.455   0.621   5.612 -0.2834 -0.0314  0.5224
 1000YOPC   D2A14832   4.712   0.996   5.703 -0.2405  0.1226  0.0826
 1000YOPC   C3A14833   5.054   1.242   5.911  0.1166  0.0677 -0.1033
 1000YOPC   C4A14834   5.159   1.409   6.268  0.0144  0.0309 -0.0807
 1000YOPC   C1B14835   4.737   0.267   5.871  0.0583 -0.1399 -0.1324
 1000YOPC   C2B14836   4.846   0.400   6.315 -0.1367 -0.0465  0.2036
 1000YOPC   D3B14837   4.720   0.467   6.802 -0.0592 -0.2480  0.0856
 1000YOPC   C4B14838   4.587   0.420   7.207 -0.1304  0.1938  0.0212
 1001YOPC   NC314839   0.724  16.318   5.186 -0.0739 -0.2317 -0.0755
 1001YOPC   PO414840   0.753  16.722   5.402 -0.0724 -0.1326 -0.0098
 1001YOPC   GL114841   0.690  16.237   5.698 -0.1863  0.0673 -0.3256
 1001YOPC   GL214842   0.732  15.913   5.664  0.1205 -0.1699  0.1360
 1001YOPC   C1A14843   0.524  16.123   6.074 -0.3831 -0.0264  0.1647
 1001YOPC   D2A14844   0.720  15.975   6.415 -0.1665 -0.1943  0.2171
 1001YOPC   C3A14845   0.581  15.681   6.638  0.1655  0.1673 -0.0569
 1001YOPC   C4A14846   0.512  15.319   6.849  0.1383  0.1142 -0.2342
 1001YOPC   C1B14847   0.820  15.632   5.979  0.2291  0.2180  0.1971
 1001YOPC   C2B14848   0.806  15.344   6.349 -0.0911  0.1818 -0.1982
 1001YOPC   D3B14849   0.376  15.171   6.275  0.0631  0.0991  0.5012
 1001YOPC   C4B14850   0.060  15.367   5.952  0.0844  0.0158  0.1379
 1002YOPC   NC314851   4.626   5.598   4.630 -0.3894  0.1434 -0.1432
 1002YOPC   PO414852   4.792   5.317   5.046  0.1895  0.2346 -0.0088
 1002YOPC   GL114853   4.694   5.347   5.496  0.1380  0.0618  0.0521
 1002YOPC   GL214854   4.844   5.428   5.698 -0.2731 -0.1270  0.0165
 1002YOPC   C1A14855   4.338   5.350   5.821 -0.0940  0.2463  0.0111
 1002YOPC   D2A14856   4.138   5.294   6.205 -0.0775  0.3430  0.0439
 1002YOPC   C3A14857   4.366   5.221   6.538  0.1226 -0.1248  0.1902
 1002YOPC   C4A14858   4.374   5.508   6.815  0.0925  0.1015 -0.1399
 1002YOPC   C1B14859   5.241   5.312   5.835 -0.0560  0.2482 -0.2944
 1002YOPC   C2B14860   5.626   5.044   5.800  0.1588 -0.2570 -0.0764
 1002YOPC   D3B14861   5.444   4.719   6.031 -0.2537 -0.2928  0.1747
 1002YOPC   C4B14862   5.505   4.582   6.511  0.2530  0.1670  0.0789
 1003YOPC   NC314863   8.791   3.440   4.600  0.1993 -0.2546  0.0485
 1003YOPC   PO414864   9.158   3.867   4.477 -0.0216  0.0428  0.2439
 1003YOPC   GL114865   9.295   3.666   4.771 -0.1524  0.1304 -0.0123
 1003YOPC   GL214866   9.468   3.378   4.911  0.0848 -0.0425 -0.3332
 1003YOPC   C1A14867   9.281   3.887   5.187  0.1950  0.1610 -0.2992
 1003YOPC   D2A14868   9.253   3.983   5.630  0.1125 -0.1669 -0.0004
 1003YOPC   C3A14869   8.827   4.271   5.730 -0.2131  0.3514  0.2073
 1003YOPC   C4A14870   8.707   4.681   5.662 -0.3268 -0.0309 -0.3590
 1003YOPC   C1B14871   9.285   3.346   5.356 -0.0943  0.1799  0.0136
 1003YOPC   C2B14872   9.274   3.532   5.830  0.0114 -0.1909  0.0079
 1003YOPC   D3B14873   9.405   3.838   6.100  0.1311 -0.0471 -0.2138
 1003YOPC   C4B14874   9.523   4.232   6.353  0.3205  0.0090 -0.0588
 1004YOPC   NC314875   8.341   7.312   4.920  0.1332  0.0974 -0.0055
 1004YOPC   PO414876   7.944   7.355   4.990 -0.1758 -0.0863 -0.2890
 1004YOPC   GL114877   8.204   7.620   5.292  0.2916  0.2113  0.1708
 1004YOPC   GL214878   8.322   7.323   5.381  0.2545  0.0815 -0.0075
 1004YOPC   C1A14879   8.104   7.659   5.749 -0.1620 -0.0478 -0.5710
 1004YOPC   D2A14880   7.993   7.408   6.147  0.2274  0.1220 -0.5150
 1004YOPC   C3A14881   7.952   7.511   6.580 -0.1081  0.2154 -0.3549
 1004YOPC   C4A14882   8.073   7.437   7.026 -0.0549  0.0077 -0.0483
 1004YOPC   C1B14883   8.244   7.167   5.749  0.2594  0.3766  0.1387
 1004YOPC   C2B14884   8.322   7.004   6.183 -0.1471 -0.0916 -0.0957
 1004YOPC   D3B14885   8.098   6.989   6.536 -0.1698 -0.1393  0.0924
 1004YOPC   C4B14886   7.805   7.064   6.856 -0.2489 -0.3127 -0.1838
 1005YOPC   NC314887   3.392   8.258   5.155  0.0086 -0.1228  0.1064
 1005YOPC   PO414888   3.802   8.584   5.058  0.3012  0.0899  0.2491
 1005YOPC   GL114889   3.669   8.674   5.576  0.0714  0.0974  0.0943
 1005YOPC   GL214890   3.643   8.894   5.743  0.0152  0.0532  0.1935
 1005YOPC   C1A14891   3.858   8.521   5.906 -0.0579  0.0730  0.1506
 1005YOPC   D2A14892   3.870   8.628   6.362  0.0536  0.0808 -0.4348
 1005YOPC   C3A14893   4.000   8.618   6.823  0.0926 -0.1776  0.1236
 1005YOPC   C4A14894   4.184   8.363   7.089 -0.1962 -0.1161  0.3559
 1005YOPC   C1B14895   3.374   8.815   6.184 -0.0284 -0.0943 -0.0458
 1005YOPC   C2B14896   3.375   8.774   6.618 -0.0311  0.0859 -0.4155
 1005YOPC   D3B14897   3.582   8.606   7.060  0.1340  0.0390 -0.1678
 1005YOPC   C4B14898   3.660   8.357   7.444  0.1545 -0.0488  0.1779
 1006YOPC   NC314899  12.669   2.633   4.835  0.0360  0.1295  0.3394
 1006YOPC   PO414900  12.220   2.551   4.758 -0.1985  0.0638 -0.0304
 1006YOPC   GL114901  12.301   2.379   5.158  0.2199  0.1020  0.2449
 1006YOPC   GL214902  12.250   2.015   5.188 -0.1207 -0.1964  0.0275
 1006YOPC   C1A14903  12.267   2.232   5.636 -0.1188  0.0780  0.0343
 1006YOPC   D2A14904  12.171   1.923   6.068 -0.1458 -0.0517 -0.0567
 1006YOPC   C3A14905  11.746   1.729   6.262  0.1955 -0.1446  0.2661
 1006YOPC   C4A14906  11.546   1.447   6.430  0.1661  0.0686  0.1173
 1006YOPC   C1B14907  11.992   1.788   5.573  0.0476 -0.1814 -0.0151
 1006YOPC   C2B14908  11.921   1.475   5.851  0.0009 -0.0441  0.1524
 1006YOPC   D3B14909  12.083   1.321   6.284 -0.2869 -0.2761 -0.0491
 1006YOPC   C4B14910  12.020   1.067   6.749 -0.0248  0.0258  0.0093
 1007YOPC   NC314911  17.209   2.348   4.866  0.1015 -0.1454  0.3046
 1007YOPC   PO414912  17.599   2.685   4.799  0.0422 -0.2276 -0.0390
 1007YOPC   GL114913  17.545   2.422   5.198  0.3135 -0.1707 -0.0546
 1007YOPC   GL214914  17.420   2.083   5.244  0.2208  0.0439 -0.2469
 1007YOPC   C1A14915  17.313   2.548   5.551 -0.3114  0.1292  0.4279
 1007YOPC   D2A14916  17.357   2.683   5.917 -0.4705 -0.0427 -0.1444
 1007YOPC   C3A14917  17.811   2.662   6.070 -0.0363 -0.1138  0.2718
 1007YOPC   C4A14918  18.060   2.363   6.111 -0.3212  0.3719  0.0939
 1007YOPC   C1B14919  17.158   2.069   5.660 -0.0356 -0.1471  0.0463
 1007YOPC   C2B14920  17.110   2.302   6.132  0.1806  0.2135  0.1379
 1007YOPC   D3B14921  17.053   1.997   6.418  0.0649 -0.3541 -0.0475
 1007YOPC   C4B14922  17.169   1.595   6.655 -0.1532  0.0734 -0.3397
 1008YOPC   NC314923   3.921  17.177   4.843 -0.1575  0.2698 -0.0422
 1008YOPC   PO414924   3.965  16.714   5.089  0.1440  0.1009  0.0854
 1008YOPC   GL114925   3.948  16.706   5.549 -0.1602 -0.3999 -0.4447
 1008YOPC   GL214926   3.674  16.554   5.669 -0.0325 -0.0884 -0.2783
 1008YOPC   C1A14927   4.219  16.958   5.770  0.1436  0.0498 -0.4493
 1008YOPC   D2A14928   4.153  16.991   6.246  0.0489 -0.4835 -0.1724
 1008YOPC   C3A14929   3.994  17.357   6.542  0.3296  0.2423 -0.1363
 1008YOPC   C4A14930   3.732  17.449   6.872 -0.5077  0.1966  0.0957
 1008YOPC   C1B14931   3.470  16.375   6.112  0.0364  0.0421 -0.0239
 1008YOPC   C2B14932   3.277  16.242   6.451  0.0731 -0.0822 -0.2555
 1008YOPC   D3B14933   3.069  15.849   6.476 -0.0750 -0.3617  0.1629
 1008YOPC   C4B14934   2.959  15.502   6.779 -0.1040  0.3362 -0.1543
 1009YOPC   NC314935   5.819  16.851   4.777  0.0320  0.2234 -0.3101
 1009YOPC   PO414936   6.107  16.941   5.166  0.3402  0.2103 -0.2603
 1009YOPC   GL114937   6.096  16.562   5.376 -0.3933  0.1753 -0.0957
 1009YOPC   GL214938   5.893  16.542   5.673  0.2773 -0.4189  0.2846
 1009YOPC   C1A14939   6.411  16.218   5.474 -0.0217 -0.0981 -0.6954
 1009YOPC   D2A14940   6.555  16.034   5.880  0.1770  0.2612  0.1948
 1009YOPC   C3A14941   6.848  16.072   6.195  0.2976 -0.1952 -0.1241
 1009YOPC   C4A14942   6.905  16.075   6.650 -0.2497  0.0226 -0.0579
 1009YOPC   C1B14943   6.309  16.434   5.880  0.2880 -0.0147 -0.2687
 1009YOPC   C2B14944   6.398  16.338   6.320  0.0299  0.1591  0.1738
 1009YOPC   D3B14945   6.485  16.475   6.742 -0.0573 -0.2365  0.1487
 1009YOPC   C4B14946   6.494  16.516   7.151  0.3371  0.0315  0.0422
 1010YOPC   NC314947  10.727  12.521   4.942  0.3320 -0.2346  0.2457
 1010YOPC   PO414948  10.793  12.771   5.330 -0.0134  0.2899 -0.2259
 1010YOPC   GL114949  10.961  12.649   5.773  0.2245  0.1039 -0.1666
 1010YOPC   GL214950  11.142  12.944   5.627 -0.1889 -0.0515  0.2148
 1010YOPC   C1A14951  10.909  12.340   6.132  0.1390  0.1758  0.0435
 1010YOPC   D2A14952  10.798  12.117   6.406 -0.0824  0.0739  0.0611
 1010YOPC   C3A14953  10.435  12.196   6.727 -0.1011  0.1563 -0.1142
 1010YOPC   C4A14954  10.465  11.986   7.130  0.0696 -0.0062  0.0075
 1010YOPC   C1B14955  11.563  13.037   6.014 -0.0794 -0.1600 -0.1577
 1010YOPC   C2B14956  11.863  13.275   6.319  0.0244  0.1703  0.1383
 1010YOPC   D3B14957  11.941  13.219   6.681  0.3122 -0.0659  0.0868
 1010YOPC   C4B14958  12.017  13.533   7.143  0.2747 -0.0306  0.1888
 1011YOPC   NC314959   2.651  19.827   4.813  0.0837 -0.2218  0.0477
 1011YOPC   PO414960   2.567  19.405   4.909  0.1609 -0.1967 -0.0593
 1011YOPC   GL114961   2.637  19.282   5.345  0.1131  0.0045 -0.1112
 1011YOPC   GL214962   2.828  19.592   5.357 -0.0171  0.0207  0.2187
 1011YOPC   C1A14963   2.760  19.343   5.783  0.0108  0.1474 -0.0735
 1011YOPC   D2A14964   3.055  19.519   6.150 -0.0942 -0.0269 -0.0653
 1011YOPC   C3A14965   2.975  19.373   6.488 -0.2424  0.1723 -0.1226
 1011YOPC   C4A14966   3.235  19.148   6.840 -0.2585 -0.1048 -0.0506
 1011YOPC   C1B14967   2.782  19.839   5.803  0.1099  0.2023  0.0946
 1011YOPC   C2B14968   2.848  19.972   6.178 -0.1886  0.2528 -0.0200
 1011YOPC   D3B14969   2.679  19.781   6.518  0.1307  0.4320  0.3368
 1011YOPC   C4B14970   2.543  19.371   6.724  0.2328 -0.2459  0.3229
 1012YOPC   NC314971   3.674   1.353   5.167  0.0841 -0.1314 -0.1280
 1012YOPC   PO414972   4.178   1.597   5.135 -0.0491 -0.1964 -0.1250
 1012YOPC   GL114973   3.915   1.533   5.541 -0.0355  0.3418  0.0138
 1012YOPC   GL214974   3.736   1.927   5.503  0.1329 -0.0822  0.1394
 1012YOPC   C1A14975   3.912   1.343   5.934  0.2530  0.2033 -0.3616
 1012YOPC   D2A14976   3.876   1.007   6.227 -0.1601  0.0247 -0.1885
 1012YOPC   C3A14977   3.850   1.205   6.668 -0.1616 -0.1981  0.1676
 1012YOPC   C4A14978   3.941   1.604   6.869  0.1526  0.0849  0.0680
 1012YOPC   C1B14979   3.703   1.887   5.916  0.2205  0.1072 -0.2832
 1012YOPC   C2B14980   3.579   1.917   6.357 -0.0723  0.3410 -0.0850
 1012YOPC   D3B14981   3.775   2.062   6.801 -0.1740  0.2980 -0.1221
 1012YOPC   C4B14982   3.758   2.378   6.898 -0.1854  0.3525  0.1808
 1013YOPC   NC314983   4.567   4.936   5.207  0.1516  0.0760  0.2735
 1013YOPC   PO414984   4.806   4.490   5.190 -0.0208  0.2691 -0.0749
 1013YOPC   GL114985   4.858   4.247   5.621 -0.2914 -0.2486 -0.1282
 1013YOPC   GL214986   4.879   3.882   5.613 -0.3889 -0.1031  0.0217
 1013YOPC   C1A14987   4.945   4.411   6.008 -0.0335  0.1835  0.0736
 1013YOPC   D2A14988   4.665   4.140   6.391 -0.1462  0.0989  0.1998
 1013YOPC   C3A14989   4.476   4.324   6.733  0.0136 -0.0065 -0.0813
 1013YOPC   C4A14990   3.987   4.360   6.899  0.2119 -0.0829 -0.4702
 1013YOPC   C1B14991   4.882   3.841   5.990  0.0334 -0.0394 -0.5840
 1013YOPC   C2B14992   5.011   3.683   6.410  0.1695  0.0074 -0.0314
 1013YOPC   D3B14993   4.999   3.897   6.888 -0.0071  0.1736  0.1233
 1013YOPC   C4B14994   4.724   4.216   7.133 -0.0706  0.1737  0.5147
 1014YOPC   NC314995   4.102  18.719   5.183  0.0579  0.2329  0.2527
 1014YOPC   PO414996   4.474  18.509   5.185  0.0461  0.2723  0.0219
 1014YOPC   GL114997   4.498  18.538   5.573 -0.1029 -0.0253  0.0047
 1014YOPC   GL214998   4.534  18.756   5.631 -0.0602  0.1496 -0.1694
 1014YOPC   C1A14999   4.142  18.555   5.868 -0.1936 -0.1198  0.0212
 1014YOPC   D2A15000   3.834  18.504   6.020 -0.0560  0.3583 -0.1782
 1014YOPC   C3A15001   3.518  18.302   5.701 -0.0028  0.1553  0.3083
 1014YOPC   C4A15002   3.307  17.851   5.686  0.0844 -0.2218 -0.0175
 1014YOPC   C1B15003   4.900  18.680   5.964 -0.4002  0.0083 -0.1365
 1014YOPC   C2B15004   5.310  18.744   6.309 -0.0649  0.1006  0.0554
 1014YOPC   D3B15005   5.680  18.753   6.413 -0.0135 -0.0151  0.0359
 1014YOPC   C4B15006   5.993  19.030   6.536 -0.2175 -0.1670 -0.0970
 1015YOPC   NC315007   9.944   7.177   5.111  0.0382 -0.1629 -0.2887
 1015YOPC   PO415008   9.896   6.766   5.086  0.1491  0.0574 -0.1052
 1015YOPC   GL115009  10.256   6.763   5.317 -0.1938  0.2795 -0.2815
 1015YOPC   GL215010  10.106   6.476   5.446  0.0718  0.1094  0.1338
 1015YOPC   C1A15011  10.644   6.877   5.581  0.1973  0.0355 -0.4354
 1015YOPC   D2A15012  10.795   7.152   5.878 -0.0901 -0.1756  0.2380
 1015YOPC   C3A15013  10.757   7.239   6.358  0.0411  0.2726  0.1808
 1015YOPC   C4A15014  10.746   7.165   6.746 -0.1491  0.1006 -0.1487
 1015YOPC   C1B15015  10.433   6.369   5.840  0.1925 -0.0685 -0.0683
 1015YOPC   C2B15016  10.489   6.356   6.232  0.1390 -0.1344 -0.2106
 1015YOPC   D3B15017  10.262   6.300   6.668  0.3364  0.2265 -0.2939
 1015YOPC   C4B15018   9.784   6.476   6.728  0.5704 -0.2363 -0.0084
 1016YOPC   NC315019   7.700   3.998   3.895 -0.4435 -0.3614 -0.1754
 1016YOPC   PO415020   7.768   4.158   4.457  0.0092 -0.1723  0.0740
 1016YOPC   GL115021   7.617   3.784   4.752  0.1140 -0.1319 -0.0795
 1016YOPC   GL215022   7.713   3.942   4.988  0.1510  0.1817 -0.1908
 1016YOPC   C1A15023   7.340   3.664   5.171  0.0549  0.0034  0.0642
 1016YOPC   D2A15024   7.270   3.808   5.632  0.4185  0.2192  0.1365
 1016YOPC   C3A15025   7.395   3.990   5.927  0.1545  0.0294 -0.1761
 1016YOPC   C4A15026   7.607   4.177   6.212 -0.1611 -0.0033  0.1911
 1016YOPC   C1B15027   7.732   3.836   5.409 -0.3827  0.1008  0.2366
 1016YOPC   C2B15028   7.868   3.624   5.773 -0.0201 -0.0446 -0.2951
 1016YOPC   D3B15029   8.062   3.787   6.097  0.2602  0.0419 -0.0974
 1016YOPC   C4B15030   8.424   3.660   6.411  0.1772  0.0303 -0.0303
 1017YOPC   NC315031   6.845   0.704   4.952 -0.4264  0.1018  0.1300
 1017YOPC   PO415032   6.394   0.766   4.960 -0.2646 -0.2776  0.2653
 1017YOPC   GL115033   6.558   0.997   5.288 -0.1936 -0.1362  0.0072
 1017YOPC   GL215034   6.766   1.251   5.244 -0.2801 -0.1668  0.2006
 1017YOPC   C1A15035   6.485   1.295   5.624  0.1098 -0.2122  0.2562
 1017YOPC   D2A15036   6.413   1.477   5.996 -0.4930  0.0649 -0.0286
 1017YOPC   C3A15037   6.392   1.496   6.435  0.3021 -0.1409  0.2218
 1017YOPC   C4A15038   6.225   1.502   6.822 -0.0407  0.0439  0.2444
 1017YOPC   C1B15039   7.152   1.139   5.435 -0.1533  0.0304  0.0308
 1017YOPC   C2B15040   7.250   0.944   5.796 -0.4753  0.0813 -0.1888
 1017YOPC   D3B15041   7.230   1.100   6.191 -0.2574  0.2101 -0.1780
 1017YOPC   C4B15042   7.555   1.324   6.446  0.2309 -0.1058 -0.0267
 1018YOPC   NC315043   3.929   2.648   5.089  0.3838 -0.0796 -0.1502
 1018YOPC   PO415044   3.541   2.674   5.203  0.0815 -0.0889  0.1098
 1018YOPC   GL115045   3.508   2.906   5.536 -0.1957  0.0781  0.3023
 1018YOPC   GL215046   3.562   2.842   5.734 -0.2006 -0.1215  0.0597
 1018YOPC   C1A15047   3.121   2.797   5.824  0.2158  0.0297 -0.1869
 1018YOPC   D2A15048   3.223   2.879   6.290 -0.2967  0.1017 -0.1294
 1018YOPC   C3A15049   3.580   3.167   6.379 -0.0662  0.1344 -0.0734
 1018YOPC   C4A15050   3.969   3.330   6.542  0.1012 -0.2559  0.6255
 1018YOPC   C1B15051   3.849   2.926   5.995 -0.1784  0.0268 -0.0722
 1018YOPC   C2B15052   4.037   2.776   6.204  0.0687 -0.1110  0.4924
 1018YOPC   D3B15053   3.909   2.786   6.615  0.1884  0.5168 -0.2542
 1018YOPC   C4B15054   3.765   2.875   7.058 -0.1741 -0.0882  0.0239
 1019YOPC   NC315055   5.917   1.090   5.047  0.1120  0.0067 -0.2347
 1019YOPC   PO415056   5.545   1.204   5.132 -0.0223  0.4445 -0.1454
 1019YOPC   GL115057   5.909   1.375   5.480 -0.2926 -0.1429  0.0396
 1019YOPC   GL215058   6.090   1.553   5.242 -0.0707 -0.1838 -0.2141
 1019YOPC   C1A15059   5.986   1.430   5.863  0.1582 -0.2051  0.2591
 1019YOPC   D2A15060   5.965   1.584   6.257  0.0802 -0.0074 -0.0586
 1019YOPC   C3A15061   6.082   1.972   6.508  0.1359 -0.0003 -0.3440
 1019YOPC   C4A15062   6.077   2.381   6.861  0.2547 -0.1806  0.5268
 1019YOPC   C1B15063   6.109   1.850   5.661  0.0127 -0.3866 -0.2491
 1019YOPC   C2B15064   5.852   2.010   5.909 -0.1607 -0.3571  0.1351
 1019YOPC   D3B15065   6.091   2.364   5.994 -0.0893  0.1408  0.1539
 1019YOPC   C4B15066   6.140   2.836   5.998 -0.0019 -0.0863  0.2640
 1020YOPC   NC315067  14.047  16.538   5.253  0.2785 -0.2195  0.0686
 1020YOPC   PO415068  13.718  16.600   5.451 -0.3819 -0.1933  0.0608
 1020YOPC   GL115069  13.969  16.482   5.866 -0.0229  0.0018 -0.0552
 1020YOPC   GL215070  14.276  16.577   5.927 -0.1002 -0.4573 -0.1067
 1020YOPC   C1A15071  13.944  16.068   6.036  0.1339 -0.5283 -0.1749
 1020YOPC   D2A15072  13.926  15.926   6.447  0.0681 -0.1738 -0.1286
 1020YOPC   C3A15073  14.033  16.176   6.614 -0.0296  0.1006 -0.3094
 1020YOPC   C4A15074  14.227  16.448   6.439  0.0615 -0.1148  0.1827
 1020YOPC   C1B15075  14.115  16.840   6.188  0.3204  0.0500  0.1947
 1020YOPC   C2B15076  13.728  17.071   6.281  0.0857  0.3695  0.0818
 1020YOPC   D3B15077  13.609  17.483   6.397  0.1206 -0.1319 -0.0556
 1020YOPC   C4B15078  13.322  17.649   6.233 -0.1569  0.0358 -0.1719
 1021YOPC   NC315079   9.684  10.418   5.019 -0.4654  0.5410 -0.2197
 1021YOPC   PO415080   9.884  10.010   5.272 -0.4214  0.0065  0.1033
 1021YOPC   GL115081   9.885   9.963   5.656  0.1404  0.0855  0.0593
 1021YOPC   GL215082  10.151  10.121   5.803  0.0573 -0.1530 -0.1386
 1021YOPC   C1A15083  10.175   9.606   5.940 -0.0188  0.0588 -0.0963
 1021YOPC   D2A15084  10.154   9.407   6.346  0.4104  0.0946 -0.2530
 1021YOPC   C3A15085  10.029   9.446   6.784  0.1955  0.0564  0.1036
 1021YOPC   C4A15086   9.955   9.485   7.261 -0.0415  0.0729 -0.0657
 1021YOPC   C1B15087   9.981  10.040   6.166  0.0345  0.1541  0.1937
 1021YOPC   C2B15088  10.144   9.921   6.601 -0.1664  0.1343 -0.1590
 1021YOPC   D3B15089  10.517   9.608   6.660 -0.3006  0.2282  0.0189
 1021YOPC   C4B15090  10.928   9.412   6.763 -0.1157  0.2852 -0.0291
 1022YOPC   NC315091  15.187   5.987   4.681  0.1373  0.1089  0.6027
 1022YOPC   PO415092  14.843   5.773   4.718 -0.1356 -0.2813  0.1788
 1022YOPC   GL115093  14.937   5.652   5.090 -0.2047 -0.2928  0.2214
 1022YOPC   GL215094  15.189   5.847   5.319  0.1645  0.1430 -0.0885
 1022YOPC   C1A15095  14.769   5.403   5.471 -0.3192  0.1719  0.2730
 1022YOPC   D2A15096  14.507   5.190   5.727 -0.1002 -0.2061  0.3056
 1022YOPC   C3A15097  14.507   4.743   5.854  0.2228 -0.0394 -0.2440
 1022YOPC   C4A15098  14.753   4.313   6.008  0.0116 -0.2152 -0.0699
 1022YOPC   C1B15099  15.225   6.128   5.628 -0.0855  0.1970  0.0749
 1022YOPC   C2B15100  14.889   6.155   5.975  0.1567 -0.0969  0.2288
 1022YOPC   D3B15101  14.795   5.993   6.357 -0.0575  0.0476  0.0722
 1022YOPC   C4B15102  15.087   5.979   6.672  0.2698  0.2011 -0.4586
 1023YOPC   NC315103  14.109  15.033   5.134  0.1194  0.2192 -0.0432
 1023YOPC   PO415104  13.991  14.646   5.237  0.1997  0.1892  0.1938
 1023YOPC   GL115105  14.097  14.647   5.701  0.1420 -0.0155  0.1976
 1023YOPC   GL215106  14.386  14.787   5.546  0.2345  0.1920 -0.0494
 1023YOPC   C1A15107  14.396  14.424   5.909  0.0154 -0.2205 -0.0768
 1023YOPC   D2A15108  14.653  14.340   6.124  0.1359  0.2897  0.2236
 1023YOPC   C3A15109  14.531  14.264   6.555  0.3427 -0.0082 -0.1478
 1023YOPC   C4A15110  14.564  13.990   6.933 -0.1261 -0.1267  0.1264
 1023YOPC   C1B15111  14.782  14.780   5.793  0.2817 -0.1868 -0.1963
 1023YOPC   C2B15112  15.150  14.929   6.003  0.2252  0.2251  0.1072
 1023YOPC   D3B15113  15.534  14.678   6.021  0.0371  0.1796  0.2143
 1023YOPC   C4B15114  15.954  14.505   5.913  0.3391  0.0437 -0.0240
 1024YOPC   NC315115  15.444   4.064   4.612 -0.0301  0.0805 -0.0787
 1024YOPC   PO415116  15.892   4.191   4.595  0.1095 -0.1339  0.3896
 1024YOPC   GL115117  15.730   4.065   5.102 -0.1496 -0.2101 -0.0989
 1024YOPC   GL215118  15.576   4.292   5.231 -0.1570 -0.4118 -0.4175
 1024YOPC   C1A15119  15.749   3.928   5.609 -0.4454  0.1753  0.1102
 1024YOPC   D2A15120  15.738   3.742   5.955 -0.1272 -0.2892 -0.0085
 1024YOPC   C3A15121  15.399   3.604   6.361  0.2762  0.1056  0.1191
 1024YOPC   C4A15122  15.138   3.404   6.643 -0.0141  0.3436  0.0696
 1024YOPC   C1B15123  15.942   4.356   5.525 -0.3033 -0.2324 -0.1422
 1024YOPC   C2B15124  16.435   4.466   5.675 -0.1352  0.5597 -0.0704
 1024YOPC   D3B15125  16.313   4.525   6.067 -0.1721  0.2175 -0.1689
 1024YOPC   C4B15126  16.335   4.474   6.575 -0.2331  0.2526  0.0672
 1025YOPC   NC315127  16.815  14.758   4.647 -0.3741 -0.4217  0.0658
 1025YOPC   PO415128  16.889  14.887   5.050 -0.1299  0.1099  0.2934
 1025YOPC   GL115129  16.867  14.668   5.441  0.0427  0.1104  0.3739
 1025YOPC   GL215130  17.136  14.947   5.574  0.2734  0.3962  0.1484
 1025YOPC   C1A15131  16.977  14.437   5.697  0.1486  0.1244  0.0662
 1025YOPC   D2A15132  17.200  14.290   6.052  0.0554 -0.0174 -0.1445
 1025YOPC   C3A15133  17.555  14.503   6.054  0.1065 -0.1717  0.0092
 1025YOPC   C4A15134  17.650  14.918   6.208 -0.4318  0.2538 -0.2166
 1025YOPC   C1B15135  17.085  14.797   6.026 -0.2226 -0.2109  0.1471
 1025YOPC   C2B15136  17.139  14.667   6.416 -0.1111  0.2043  0.2083
 1025YOPC   D3B15137  16.787  14.601   6.667 -0.2320 -0.2399  0.2762
 1025YOPC   C4B15138  16.649  14.849   6.970  0.3801 -0.3786 -0.0381
 1026YOPC   NC315139   1.229   2.500   4.997  0.1032 -0.3619  0.1161
 1026YOPC   PO415140   1.349   2.528   5.402 -0.1843  0.1363 -0.0780
 1026YOPC   GL115141   1.337   2.341   5.761  0.3270 -0.0678 -0.0129
 1026YOPC   GL215142   1.036   2.416   5.823  0.1301  0.3046 -0.0244
 1026YOPC   C1A15143   1.220   2.441   6.254  0.1050  0.0276 -0.1407
 1026YOPC   D2A15144   1.458   2.462   6.701  0.1439 -0.0756 -0.0317
 1026YOPC   C3A15145   1.566   2.073   6.863  0.0075 -0.1604  0.0231
 1026YOPC   C4A15146   1.839   1.992   7.235  0.0250 -0.2282  0.0807
 1026YOPC   C1B15147   1.090   1.961   6.025 -0.1645  0.2903 -0.1580
 1026YOPC   C2B15148   1.008   1.540   6.055  0.2614 -0.1463  0.1428
 1026YOPC   D3B15149   1.397   1.476   6.096 -0.0451 -0.1324 -0.0490
 1026YOPC   C4B15150   1.724   1.314   6.253 -0.3197 -0.1136 -0.1944
 1027YOPC   NC315151   2.629   4.728   4.754 -0.0027 -0.1315 -0.2091
 1027YOPC   PO415152   2.501   4.582   5.104 -0.0108  0.0965  0.0099
 1027YOPC   GL115153   2.456   4.405   5.560 -0.1811  0.1409 -0.0595
 1027YOPC   GL215154   2.826   4.581   5.668 -0.0772 -0.0193 -0.1740
 1027YOPC   C1A15155   2.414   4.206   6.036  0.2564 -0.1151 -0.0252
 1027YOPC   D2A15156   2.404   4.184   6.504 -0.1983 -0.0817 -0.0971
 1027YOPC   C3A15157   2.630   4.466   6.897 -0.1523 -0.5886  0.1617
 1027YOPC   C4A15158   2.871   4.476   7.273 -0.0199 -0.2075 -0.1972
 1027YOPC   C1B15159   2.874   4.223   5.918 -0.3074  0.0269  0.0151
 1027YOPC   C2B15160   3.010   4.003   6.318  0.1869  0.2406  0.0548
 1027YOPC   D3B15161   2.847   3.895   6.779  0.3109  0.0683 -0.1534
 1027YOPC   C4B15162   2.839   3.856   7.126  0.0386  0.5490  0.1497
 1028YOPC   NC315163   0.372  11.663   5.201 -0.2265  0.1730  0.1478
 1028YOPC   PO415164  -0.139  11.616   5.269 -0.2976 -0.0815  0.1328
 1028YOPC   GL115165  -0.416  11.680   5.576 -0.0787  0.0028 -0.1520
 1028YOPC   GL215166  -0.378  11.499   5.858 -0.0660  0.2927  0.1085
 1028YOPC   C1A15167  -0.876  11.855   5.842  0.1241 -0.3987  0.1861
 1028YOPC   D2A15168  -1.269  12.110   5.644 -0.0315  0.1897  0.0220
 1028YOPC   C3A15169  -1.280  12.528   5.561 -0.1664 -0.0292  0.1658
 1028YOPC   C4A15170  -1.168  12.867   5.531 -0.2214 -0.0437 -0.0140
 1028YOPC   C1B15171  -0.008  11.302   6.107  0.0889 -0.3644 -0.1107
 1028YOPC   C2B15172   0.132  11.437   6.416  0.1667  0.1593 -0.0626
 1028YOPC   D3B15173   0.109  11.643   6.726  0.1772  0.1606 -0.2605
 1028YOPC   C4B15174   0.185  11.904   7.058  0.2646 -0.0229  0.0874
 1029YOPC   NC315175   2.110  19.187   5.180  0.2900 -0.0129  0.2176
 1029YOPC   PO415176   2.296  18.724   5.217  0.0186 -0.0277 -0.2057
 1029YOPC   GL115177   2.177  18.914   5.623 -0.0055  0.0279 -0.3239
 1029YOPC   GL215178   1.894  18.985   5.624  0.0832 -0.3336 -0.0200
 1029YOPC   C1A15179   2.314  18.953   5.995  0.0783 -0.0750  0.0421
 1029YOPC   D2A15180   2.349  18.969   6.432 -0.2399  0.6333 -0.0659
 1029YOPC   C3A15181   2.198  18.486   6.397 -0.0490  0.0319 -0.1276
 1029YOPC   C4A15182   2.122  18.137   6.576 -0.0665 -0.0561 -0.1574
 1029YOPC   C1B15183   1.579  19.010   5.882 -0.4183  0.0255 -0.1477
 1029YOPC   C2B15184   1.194  18.870   5.986  0.4208  0.1030 -0.0525
 1029YOPC   D3B15185   0.918  18.929   6.348 -0.5259  0.0270 -0.1554
 1029YOPC   C4B15186   0.845  18.839   6.747  0.0671  0.0987 -0.1281
 1030YOPC   NC315187  13.512  13.380   5.443  0.2887  0.1275 -0.0687
 1030YOPC   PO415188  13.803  13.370   5.225 -0.0896 -0.0957  0.0449
 1030YOPC   GL115189  14.030  13.267   5.559  0.1622 -0.1329  0.2739
 1030YOPC   GL215190  13.777  13.210   5.861  0.1550  0.0453 -0.1544
 1030YOPC   C1A15191  14.064  12.802   5.576  0.1422 -0.1675  0.1933
 1030YOPC   D2A15192  14.293  12.457   5.435  0.0389  0.1139 -0.1289
 1030YOPC   C3A15193  14.352  12.184   5.728  0.3188  0.4401 -0.0326
 1030YOPC   C4A15194  14.505  12.027   6.115  0.1236  0.2021 -0.1774
 1030YOPC   C1B15195  13.993  12.926   6.075 -0.0455 -0.0435 -0.1538
 1030YOPC   C2B15196  14.044  12.883   6.486  0.0694  0.2655 -0.3161
 1030YOPC   D3B15197  14.349  13.117   6.718  0.2866 -0.1811  0.0071
 1030YOPC   C4B15198  14.449  13.433   7.073 -0.0616 -0.1344  0.0577
 1031YOPC   NC315199  14.733   7.762   5.003  0.1562 -0.4076 -0.0241
 1031YOPC   PO415200  14.382   8.016   4.780 -0.0277 -0.0692 -0.0264
 1031YOPC   GL115201  14.112   8.052   5.058 -0.0480 -0.1300  0.1837
 1031YOPC   GL215202  13.781   7.929   5.176  0.1236  0.2219  0.3080
 1031YOPC   C1A15203  13.993   8.395   5.280  0.1778 -0.0016  0.0353
 1031YOPC   D2A15204  13.950   8.396   5.762 -0.3221  0.1090 -0.1685
 1031YOPC   C3A15205  14.169   8.760   5.988 -0.2241 -0.1041  0.0190
 1031YOPC   C4A15206  14.495   8.798   6.367  0.1131  0.0881 -0.3405
 1031YOPC   C1B15207  13.991   7.928   5.552  0.0442 -0.1874 -0.2572
 1031YOPC   C2B15208  14.087   7.912   5.950  0.1302  0.0626 -0.3364
 1031YOPC   D3B15209  13.743   7.921   6.304 -0.2487  0.1744  0.4090
 1031YOPC   C4B15210  13.762   7.727   6.686 -0.1066  0.2697 -0.1668
 1032YOPC   NC315211   1.353   5.319   4.529  0.2257  0.2941  0.2537
 1032YOPC   PO415212   1.758   5.606   4.830 -0.0346  0.5868  0.0572
 1032YOPC   GL115213   1.764   5.916   5.059  0.1669 -0.1106 -0.1237
 1032YOPC   GL215214   1.756   5.679   5.370  0.3489  0.3209  0.2872
 1032YOPC   C1A15215   1.889   6.271   5.290 -0.0241 -0.1154  0.0832
 1032YOPC   D2A15216   1.862   6.600   5.399  0.1905 -0.2778  0.1514
 1032YOPC   C3A15217   1.910   6.526   5.857  0.1040 -0.0639 -0.0827
 1032YOPC   C4A15218   1.757   6.740   6.247 -0.1057  0.4774  0.0873
 1032YOPC   C1B15219   1.799   5.664   5.813  0.3317  0.3240 -0.1203
 1032YOPC   C2B15220   1.886   5.719   6.190  0.1438  0.0573  0.1698
 1032YOPC   D3B15221   2.173   5.771   6.551  0.4564  0.2715  0.2149
 1032YOPC   C4B15222   2.198   5.959   6.956 -0.1591 -0.4467  0.2187
 1033YOPC   NC315223   9.503  18.694   4.807  0.5112  0.0500 -0.2614
 1033YOPC   PO415224   9.878  18.934   4.807  0.1583  0.0121 -0.1520
 1033YOPC   GL115225   9.718  19.151   5.251 -0.3005 -0.3421  0.1989
 1033YOPC   GL215226   9.504  18.982   5.411 -0.3962  0.1696  0.1692
 1033YOPC   C1A15227   9.661  19.389   5.600 -0.1207 -0.3148  0.0736
 1033YOPC   D2A15228   9.739  19.750   5.864  0.0056 -0.1199 -0.0300
 1033YOPC   C3A15229   9.723  20.227   5.782 -0.2812 -0.1037  0.1671
 1033YOPC   C4A15230   9.907  20.542   5.753  0.0411 -0.0697  0.0928
 1033YOPC   C1B15231   9.380  19.064   5.782  0.1762  0.2957 -0.1636
 1033YOPC   C2B15232   9.432  19.408   6.047  0.3135  0.3735  0.0605
 1033YOPC   D3B15233   9.813  19.409   6.313 -0.0978  0.1060  0.2085
 1033YOPC   C4B15234  10.148  19.204   6.374 -0.0987  0.1584  0.0485
 1034YOPC   NC315235   2.180   5.539   5.078  0.1700 -0.0990 -0.0147
 1034YOPC   PO415236   2.669   5.514   5.176 -0.1638  0.0001  0.1393
 1034YOPC   GL115237   2.572   5.577   5.552  0.0022  0.1924  0.0434
 1034YOPC   GL215238   2.319   5.396   5.512  0.0434  0.0831 -0.1538
 1034YOPC   C1A15239   2.713   5.344   5.990 -0.3606 -0.2243 -0.0471
 1034YOPC   D2A15240   2.856   5.215   6.344  0.0777  0.0662 -0.2494
 1034YOPC   C3A15241   2.936   4.972   6.671  0.0169  0.2286 -0.2920
 1034YOPC   C4A15242   3.212   4.693   7.012  0.0091  0.0386  0.0443
 1034YOPC   C1B15243   2.179   5.393   5.924 -0.4265  0.1747 -0.1942
 1034YOPC   C2B15244   2.303   5.430   6.209  0.0688 -0.0262 -0.0103
 1034YOPC   D3B15245   2.119   5.266   6.534 -0.0728  0.1577 -0.2120
 1034YOPC   C4B15246   1.825   5.129   6.937 -0.3283  0.1254  0.1486
 1035YOPC   NC315247  17.182   8.781   4.149 -0.0066 -0.0393  0.0940
 1035YOPC   PO415248  17.549   8.616   4.275  0.0424 -0.5100 -0.0542
 1035YOPC   GL115249  17.590   8.761   4.807  0.0392 -0.1717  0.0119
 1035YOPC   GL215250  17.288   8.759   4.954  0.0462  0.5278 -0.2410
 1035YOPC   C1A15251  17.657   8.989   5.292 -0.2352 -0.1777 -0.0662
 1035YOPC   D2A15252  18.045   9.175   5.602  0.2384 -0.0353 -0.2090
 1035YOPC   C3A15253  17.888   9.370   5.913 -0.2176  0.0507  0.0827
 1035YOPC   C4A15254  17.625   9.412   6.122  0.0667 -0.2483 -0.2525
 1035YOPC   C1B15255  17.317   8.692   5.437  0.2005 -0.0993 -0.3145
 1035YOPC   C2B15256  17.300   8.390   5.731  0.1773 -0.2421 -0.0670
 1035YOPC   D3B15257  17.501   8.286   6.063  0.0356 -0.1942  0.0239
 1035YOPC   C4B15258  17.643   8.144   6.491 -0.1019 -0.1109  0.0589
 1036YOPC   NC315259   7.563   7.064   4.746  0.0339 -0.1234  0.1570
 1036YOPC   PO415260   7.232   6.763   4.932  0.1256  0.0694 -0.1615
 1036YOPC   GL115261   6.959   6.845   5.325 -0.0830  0.2193  0.1301
 1036YOPC   GL215262   7.135   6.742   5.529 -0.1975  0.0781 -0.3198
 1036YOPC   C1A15263   6.788   6.988   5.829  0.4006 -0.0067 -0.0745
 1036YOPC   D2A15264   6.995   7.056   6.271 -0.0897 -0.0928  0.7739
 1036YOPC   C3A15265   6.875   6.908   6.695 -0.0733 -0.0747  0.0576
 1036YOPC   C4A15266   6.856   6.910   7.086 -0.2530 -0.0609 -0.5847
 1036YOPC   C1B15267   7.482   6.477   5.844  0.1370 -0.1526  0.0116
 1036YOPC   C2B15268   7.554   6.330   6.336 -0.1900  0.2175 -0.1309
 1036YOPC   D3B15269   7.665   5.810   6.363  0.0545  0.0427  0.1627
 1036YOPC   C4B15270   7.252   5.495   6.579  0.0463  0.2710  0.2386
 1037YOPC   NC315271  12.890   7.326   4.545 -0.0140 -0.4419  0.0252
 1037YOPC   PO415272  12.981   7.758   4.778  0.1167 -0.2486  0.0598
 1037YOPC   GL115273  12.770   7.803   5.182  0.2972  0.0654 -0.0898
 1037YOPC   GL215274  12.539   7.959   5.256 -0.1699 -0.0596 -0.0230
 1037YOPC   C1A15275  12.763   7.652   5.569  0.1406 -0.2135 -0.2484
 1037YOPC   D2A15276  12.634   7.641   5.981  0.5314 -0.1190  0.1460
 1037YOPC   C3A15277  12.407   7.483   6.166  0.1125  0.1494 -0.1214
 1037YOPC   C4A15278  12.042   7.609   6.436 -0.1400  0.3164 -0.0539
 1037YOPC   C1B15279  12.217   7.862   5.571  0.3049  0.0530  0.0781
 1037YOPC   C2B15280  11.815   7.904   5.690 -0.1409  0.4805  0.0938
 1037YOPC   D3B15281  11.571   7.834   5.382  0.0055 -0.1122 -0.1221
 1037YOPC   C4B15282  11.143   7.779   5.566  0.1988  0.1526  0.1591
 1038YOPC   NC315283   9.812   9.522   5.121 -0.1873  0.0819 -0.0842
 1038YOPC   PO415284   9.589   9.104   5.063 -0.2674 -0.0466 -0.2229
 1038YOPC   GL115285   9.544   8.879   5.441  0.0210  0.1450 -0.1580
 1038YOPC   GL215286   9.272   8.640   5.548 -0.1672  0.1364 -0.1293
 1038YOPC   C1A15287   9.661   8.963   5.834 -0.0924  0.3911  0.2241
 1038YOPC   D2A15288   9.900   8.938   6.237  0.1318  0.2260 -0.0832
 1038YOPC   C3A15289   9.745   9.077   6.529  0.1812  0.1188 -0.0586
 1038YOPC   C4A15290   9.659   9.201   6.948  0.0752 -0.1337  0.1032
 1038YOPC   C1B15291   9.433   8.512   6.005  0.2880 -0.0853  0.1574
 1038YOPC   C2B15292   9.418   8.117   6.225 -0.1216 -0.1198 -0.1771
 1038YOPC   D3B15293   9.355   7.778   6.070  0.2203  0.2398 -0.4005
 1038YOPC   C4B15294   9.287   7.652   5.810 -0.2214 -0.1466  0.0527
 1039YOPC   NC315295   9.814   5.185   4.431  0.0518  0.3460  0.1576
 1039YOPC   PO415296   9.576   5.154   4.802 -0.0596 -0.2852 -0.1161
 1039YOPC   GL115297   9.785   5.186   5.173  0.0660 -0.3998 -0.4105
 1039YOPC   GL215298   9.838   5.419   5.319  0.4511 -0.1672 -0.5379
 1039YOPC   C1A15299   9.785   4.802   5.483 -0.0271  0.3550  0.5134
 1039YOPC   D2A15300   9.750   4.326   5.488  0.4465 -0.0943 -0.2645
 1039YOPC   C3A15301   9.835   4.025   5.377  0.1259  0.0586 -0.0436
 1039YOPC   C4A15302   9.665   3.659   5.512 -0.3183 -0.2331  0.1204
 1039YOPC   C1B15303   9.547   5.632   5.447 -0.1263  0.1036  0.1142
 1039YOPC   C2B15304   9.256   5.991   5.464 -0.1221 -0.3088 -0.1198
 1039YOPC   D3B15305   9.072   6.032   5.823  0.1477  0.2366  0.0054
 1039YOPC   C4B15306   8.765   6.118   6.092 -0.1309 -0.0214 -0.1478
 1040YOPC   NC315307  13.810  11.796   4.563  0.0139  0.0039 -0.1699
 1040YOPC   PO415308  13.931  11.620   4.931  0.1075  0.0405  0.3489
 1040YOPC   GL115309  13.966  11.322   5.152  0.0650  0.1102 -0.2428
 1040YOPC   GL215310  14.218  10.938   5.001 -0.0561  0.0207 -0.2189
 1040YOPC   C1A15311  13.832  10.961   5.352 -0.0187 -0.1960 -0.2879
 1040YOPC   D2A15312  13.683  10.567   5.516  0.2870  0.2204  0.0502
 1040YOPC   C3A15313  14.067  10.521   5.582 -0.1835  0.0192 -0.2680
 1040YOPC   C4A15314  14.334  10.482   5.866 -0.2957 -0.1544  0.2599
 1040YOPC   C1B15315  14.483  10.763   5.329 -0.1890  0.3805  0.2260
 1040YOPC   C2B15316  14.849  10.528   5.496 -0.2492  0.1008  0.0755
 1040YOPC   D3B15317  15.047  10.634   5.850 -0.2268  0.2271  0.0328
 1040YOPC   C4B15318  15.170  11.044   6.005  0.0673  0.2483 -0.2470
 1041YOPC   NC315319  16.570   6.788   5.149 -0.1097 -0.1247  0.0951
 1041YOPC   PO415320  16.418   6.511   5.015  0.0111 -0.3972  0.0759
 1041YOPC   GL115321  16.415   6.409   5.470 -0.0282 -0.2333  0.3888
 1041YOPC   GL215322  16.570   6.121   5.685 -0.2300  0.0199 -0.2451
 1041YOPC   C1A15323  16.133   6.218   5.753 -0.1872  0.0032  0.1769
 1041YOPC   D2A15324  15.899   5.951   6.053  0.2926  0.1016  0.4165
 1041YOPC   C3A15325  15.802   5.912   6.521  0.0116 -0.2209  0.2990
 1041YOPC   C4A15326  15.932   5.812   6.985  0.1071  0.0817  0.1312
 1041YOPC   C1B15327  16.525   6.174   6.109  0.1326  0.0096 -0.0783
 1041YOPC   C2B15328  16.635   6.386   6.568  0.2932  0.0077  0.0260
 1041YOPC   D3B15329  16.956   6.161   6.711  0.0621 -0.1057  0.0386
 1041YOPC   C4B15330  17.138   5.772   6.903 -0.1021 -0.1250 -0.0975
 1042YOPC   NC315331  10.053  13.182   5.100 -0.0799 -0.1608  0.0411
 1042YOPC   PO415332   9.970  13.561   5.327 -0.1407  0.0583  0.0485
 1042YOPC   GL115333  10.203  13.509   5.704  0.0955 -0.4581 -0.2270
 1042YOPC   GL215334  10.082  13.298   5.955  0.0212  0.1154  0.1100
 1042YOPC   C1A15335  10.296  13.840   5.945  0.1558 -0.2180  0.0215
 1042YOPC   D2A15336  10.270  13.677   6.349  0.2347 -0.3155 -0.0987
 1042YOPC   C3A15337  10.273  13.949   6.672 -0.1319  0.1471  0.0506
 1042YOPC   C4A15338  10.478  14.027   7.040 -0.0525 -0.1966  0.0227
 1042YOPC   C1B15339  10.559  13.390   6.042  0.1367 -0.4344 -0.3239
 1042YOPC   C2B15340  10.909  13.192   5.992  0.0946 -0.2655  0.1740
 1042YOPC   D3B15341  11.136  12.966   6.278  0.5014 -0.0258 -0.1023
 1042YOPC   C4B15342  10.978  12.615   6.558 -0.0093 -0.1844  0.1793
 1043YOPC   NC315343   8.944   6.807   4.894  0.0504 -0.2655 -0.1090
 1043YOPC   PO415344   8.506   6.860   5.011  0.2538 -0.0131 -0.1656
 1043YOPC   GL115345   8.473   6.868   5.431  0.4064  0.1389  0.0723
 1043YOPC   GL215346   8.848   6.721   5.422  0.3458 -0.0878  0.2055
 1043YOPC   C1A15347   8.715   7.057   5.727 -0.3825  0.5488  0.3333
 1043YOPC   D2A15348   9.149   7.192   5.674 -0.3834  0.3614  0.1021
 1043YOPC   C3A15349   9.115   7.296   6.128  0.0422  0.1675 -0.3194
 1043YOPC   C4A15350   9.036   7.539   6.492  0.2035  0.2564  0.1095
 1043YOPC   C1B15351   8.975   6.616   5.840 -0.1983  0.1794  0.0299
 1043YOPC   C2B15352   8.977   6.762   6.341 -0.0749 -0.3652 -0.0104
 1043YOPC   D3B15353   8.700   7.096   6.469  0.0456 -0.0531  0.2367
 1043YOPC   C4B15354   8.401   7.143   6.839  0.0314 -0.1805  0.0433
 1044YOPC   NC315355   5.474   3.087   4.982  0.1856  0.1398  0.0456
 1044YOPC   PO415356   5.926   3.000   4.886 -0.0999  0.1077 -0.0444
 1044YOPC   GL115357   6.087   3.046   5.328 -0.0096  0.0107 -0.1525
 1044YOPC   GL215358   5.875   3.048   5.495  0.6724  0.2312 -0.1447
 1044YOPC   C1A15359   6.436   2.967   5.634 -0.2019  0.0474  0.2239
 1044YOPC   D2A15360   6.636   2.904   6.073 -0.3377 -0.0923  0.0090
 1044YOPC   C3A15361   6.480   2.912   6.438  0.4183 -0.3512  0.3734
 1044YOPC   C4A15362   6.499   3.018   6.885 -0.1166  0.2284 -0.0157
 1044YOPC   C1B15363   5.687   3.137   5.914  0.0145  0.1046  0.2899
 1044YOPC   C2B15364   5.587   3.191   6.373 -0.1173 -0.4678 -0.3980
 1044YOPC   D3B15365   5.581   3.014   6.719 -0.2890  0.0084  0.0983
 1044YOPC   C4B15366   5.599   2.911   7.166 -0.3745 -0.1124  0.0299
 1045YOPC   NC315367  12.641   3.370   4.622  0.0393  0.0636 -0.1046
 1045YOPC   PO415368  12.467   3.053   4.844 -0.3281 -0.2460  0.0988
 1045YOPC   GL115369  12.583   2.867   5.248 -0.0965  0.2064 -0.0726
 1045YOPC   GL215370  12.233   2.870   5.266 -0.0250 -0.1231 -0.2508
 1045YOPC   C1A15371  12.847   2.784   5.626 -0.2856  0.1186  0.0665
 1045YOPC   D2A15372  13.144   2.458   5.741 -0.0513  0.1803 -0.1852
 1045YOPC   C3A15373  13.511   2.610   5.779  0.2620 -0.4005 -0.1220
 1045YOPC   C4A15374  13.549   2.951   6.109 -0.0301 -0.0160 -0.0543
 1045YOPC   C1B15375  12.384   2.669   5.632  0.2088 -0.2119  0.1971
 1045YOPC   C2B15376  12.179   2.870   6.077  0.2990 -0.1440  0.2950
 1045YOPC   D3B15377  12.043   2.536   6.251 -0.0777 -0.0961  0.0065
 1045YOPC   C4B15378  11.758   2.202   6.242  0.2897 -0.0183  0.1081
 1046YOPC   NC315379   0.348  15.731   4.806 -0.1033 -0.3022 -0.1406
 1046YOPC   PO415380   0.437  15.912   5.199 -0.0998  0.0228  0.2159
 1046YOPC   GL115381   0.052  15.864   5.394  0.2403 -0.2567 -0.1919
 1046YOPC   GL215382   0.144  15.861   5.753  0.4229  0.0372  0.0104
 1046YOPC   C1A15383  -0.246  15.523   5.506  0.5672  0.1316  0.1626
 1046YOPC   D2A15384  -0.220  15.057   5.638  0.0752  0.1985  0.1736
 1046YOPC   C3A15385  -0.070  14.905   5.921  0.0778 -0.0428  0.0551
 1046YOPC   C4A15386  -0.129  14.946   6.340  0.1083 -0.2767 -0.1661
 1046YOPC   C1B15387   0.199  16.318   5.815  0.0390 -0.5405  0.3943
 1046YOPC   C2B15388   0.519  16.633   5.943 -0.0911  0.2486 -0.2995
 1046YOPC   D3B15389   0.857  16.448   6.141  0.1646  0.0359  0.2392
 1046YOPC   C4B15390   1.032  16.462   6.467 -0.2607 -0.0880 -0.1885
 1047YOPC   NC315391   3.028  19.491   4.905 -0.2780  0.3153 -0.2524
 1047YOPC   PO415392   3.165  19.825   5.040  0.2363  0.0166  0.0915
 1047YOPC   GL115393   3.470  19.988   5.297  0.2460 -0.1344  0.1213
 1047YOPC   GL215394   3.466  20.318   5.338 -0.1187 -0.4077  0.1521
 1047YOPC   C1A15395   3.690  20.054   5.730  0.0902 -0.1030  0.2441
 1047YOPC   D2A15396   3.697  19.826   6.184  0.0410  0.0657  0.0738
 1047YOPC   C3A15397   3.997  19.558   6.324  0.2376  0.0274 -0.0492
 1047YOPC   C4A15398   4.447  19.421   6.336 -0.1058 -0.1790  0.0852
 1047YOPC   C1B15399   3.009  20.187   5.585 -0.1612 -0.2223  0.0241
 1047YOPC   C2B15400   2.629  20.305   5.875  0.0610 -0.0468  0.0269
 1047YOPC   D3B15401   2.633  20.409   6.284 -0.1932  0.1776  0.0599
 1047YOPC   C4B15402   2.664  20.740   6.377 -0.0813  0.0932  0.2410
 1048YOPC   NC315403  10.432   9.783   4.925  0.1048  0.2105  0.0001
 1048YOPC   PO415404  10.462   9.296   5.045  0.0070  0.1667 -0.0578
 1048YOPC   GL115405  10.748   9.267   5.379  0.1459  0.0106 -0.0979
 1048YOPC   GL215406  10.536   8.899   5.340  0.1447  0.0029  0.1735
 1048YOPC   C1A15407  10.904   9.296   5.864 -0.1624  0.3362  0.1978
 1048YOPC   D2A15408  10.729   9.402   6.236  0.5033 -0.2285  0.0569
 1048YOPC   C3A15409  10.619   9.158   6.383  0.0123 -0.4286 -0.0782
 1048YOPC   C4A15410  10.241   8.956   6.655  0.1491  0.0899  0.3528
 1048YOPC   C1B15411  10.549   8.515   5.643 -0.3054 -0.4216  0.0355
 1048YOPC   C2B15412  10.367   8.197   5.869 -0.0119 -0.0908  0.0407
 1048YOPC   D3B15413  10.427   8.111   6.346 -0.0166 -0.2603  0.0201
 1048YOPC   C4B15414  10.202   8.288   6.725 -0.1066  0.0089  0.0936
 1049YOPC   NC315415   3.493   8.969   5.210  0.4889  0.0996 -0.2362
 1049YOPC   PO415416   3.403   9.428   5.139  0.1770 -0.2306 -0.1719
 1049YOPC   GL115417   3.284   9.235   5.579  0.2210  0.0316 -0.3404
 1049YOPC   GL215418   3.537   9.388   5.833 -0.0859 -0.5079  0.5435
 1049YOPC   C1A15419   3.045   9.489   6.023  0.1627  0.1499  0.1579
 1049YOPC   D2A15420   2.869   9.269   6.269 -0.0181  0.0784  0.0800
 1049YOPC   C3A15421   2.674   9.174   6.714 -0.4285  0.2005 -0.1088
 1049YOPC   C4A15422   2.571   9.332   7.093 -0.0810  0.1653  0.2760
 1049YOPC   C1B15423   3.504   9.307   6.268  0.0239  0.1799  0.0768
 1049YOPC   C2B15424   3.780   9.074   6.589  0.1350 -0.0487 -0.1436
 1049YOPC   D3B15425   4.045   9.392   6.929  0.2334 -0.2511 -0.0036
 1049YOPC   C4B15426   4.124   9.451   7.374  0.1749 -0.0435  0.0353
 1050YOPC   NC315427  15.595   0.996   4.704  0.0103  0.1046  0.1416
 1050YOPC   PO415428  15.824   0.715   4.828  0.1350 -0.0771  0.2209
 1050YOPC   GL115429  15.550   0.666   5.205  0.0544  0.1857 -0.1912
 1050YOPC   GL215430  15.536   0.971   5.207  0.0369 -0.2878  0.4451
 1050YOPC   C1A15431  15.527   0.700   5.669 -0.1971 -0.1101 -0.3072
 1050YOPC   D2A15432  15.678   0.779   6.055 -0.3033 -0.0960 -0.0243
 1050YOPC   C3A15433  15.647   0.484   6.373 -0.1581  0.2085 -0.0159
 1050YOPC   C4A15434  15.296   0.143   6.219  0.4197 -0.1569 -0.0586
 1050YOPC   C1B15435  15.818   1.117   5.576  0.2378 -0.1130 -0.0736
 1050YOPC   C2B15436  15.772   1.307   6.055 -0.1657  0.0319 -0.2330
 1050YOPC   D3B15437  15.995   1.570   6.277  0.2711 -0.0752  0.0507
 1050YOPC   C4B15438  16.176   1.718   6.696  0.2667 -0.3585  0.0032
 1051YOPC   NC315439   5.530  19.881   4.999 -0.1549  0.5982  0.3968
 1051YOPC   PO415440   5.402  19.388   5.079  0.2281 -0.2387  0.1577
 1051YOPC   GL115441   5.667  19.668   5.438 -0.2680  0.0120  0.2768
 1051YOPC   GL215442   5.623  20.020   5.451 -0.2944  0.1757  0.6369
 1051YOPC   C1A15443   5.758  19.754   5.847  0.0297  0.2265 -0.1778
 1051YOPC   D2A15444   5.860  19.847   6.270  0.0220  0.1231 -0.0151
 1051YOPC   C3A15445   5.784  19.485   6.568 -0.1672 -0.1791 -0.0695
 1051YOPC   C4A15446   5.637  19.234   6.855 -0.1741  0.2573 -0.1040
 1051YOPC   C1B15447   5.345  20.347   5.556 -0.4971  0.0710  0.3538
 1051YOPC   C2B15448   5.051  20.545   5.895  0.1449  0.2709 -0.0566
 1051YOPC   D3B15449   5.220  20.519   6.268 -0.1954 -0.0453 -0.0066
 1051YOPC   C4B15450   5.263  20.396   6.639 -0.0687 -0.3793 -0.1998
 1052YOPC   NC315451  19.480  17.239   4.987 -0.2140 -0.0119  0.0027
 1052YOPC   PO415452  19.281  16.797   5.083  0.0779  0.0811  0.0375
 1052YOPC   GL115453  19.187  17.052   5.476 -0.0447  0.1753 -0.0117
 1052YOPC   GL215454  19.177  17.376   5.330 -0.0220  0.1524  0.2086
 1052YOPC   C1A15455  19.356  16.903   5.852 -0.1215  0.0050 -0.2459
 1052YOPC   D2A15456  19.433  16.807   6.260  0.0756 -0.0628 -0.0300
 1052YOPC   C3A15457  19.415  16.475   6.415 -0.0420  0.1075 -0.3499
 1052YOPC   C4A15458  19.527  16.418   6.747  0.1846  0.0628  0.2608
 1052YOPC   C1B15459  19.350  17.453   5.690 -0.1209 -0.1279 -0.0862
 1052YOPC   C2B15460  19.154  17.303   6.094  0.0935 -0.0880  0.3071
 1052YOPC   D3B15461  18.887  17.468   6.362 -0.0845 -0.2161  0.2082
 1052YOPC   C4B15462  18.423  17.405   6.464 -0.2132  0.1673  0.4705
 1053YOPC   NC315463  12.882   9.159   4.865  0.1718 -0.0534 -0.0078
 1053YOPC   PO415464  12.851   9.620   4.705  0.1770 -0.1563 -0.0664
 1053YOPC   GL115465  12.907   9.690   5.096 -0.2875  0.3129 -0.2464
 1053YOPC   GL215466  12.682   9.415   5.200  0.0471  0.0920  0.0009
 1053YOPC   C1A15467  13.071   9.822   5.384  0.1174  0.0856 -0.0708
 1053YOPC   D2A15468  13.448   9.892   5.564  0.2187 -0.0222  0.1295
 1053YOPC   C3A15469  13.821   9.696   5.914  0.1297 -0.3374 -0.2769
 1053YOPC   C4A15470  14.088   9.617   6.279  0.1432  0.0228 -0.0742
 1053YOPC   C1B15471  12.882   9.394   5.591  0.4959  0.1485 -0.2797
 1053YOPC   C2B15472  13.112   9.655   5.846  0.1220 -0.1015 -0.1048
 1053YOPC   D3B15473  13.350   9.906   6.042  0.2515 -0.0928 -0.0214
 1053YOPC   C4B15474  13.587  10.244   6.364 -0.0144 -0.1633 -0.0347
 1054YOPC   NC315475  15.296   9.884   4.428 -0.1105 -0.1066 -0.3012
 1054YOPC   PO415476  14.784   9.839   4.506  0.0339  0.0336 -0.1787
 1054YOPC   GL115477  14.830   9.766   4.903  0.2305 -0.1645 -0.3127
 1054YOPC   GL215478  15.119   9.638   5.069  0.1047  0.0993  0.1113
 1054YOPC   C1A15479  14.755  10.044   5.166 -0.1898  0.1191  0.0344
 1054YOPC   D2A15480  14.516  10.189   5.504  0.2002  0.0970  0.1857
 1054YOPC   C3A15481  14.356   9.965   5.899  0.1919  0.0124  0.0109
 1054YOPC   C4A15482  14.117  10.187   6.277  0.2018  0.1755 -0.2662
 1054YOPC   C1B15483  15.092   9.804   5.443  0.3034  0.0954 -0.0194
 1054YOPC   C2B15484  15.085  10.100   5.592  0.1857  0.1643 -0.2545
 1054YOPC   D3B15485  14.870  10.149   5.968  0.0761  0.7341  0.1427
 1054YOPC   C4B15486  14.616  10.257   6.218 -0.1817  0.0567  0.0295
 1055YOPC   NC315487   8.595  19.019   4.466 -0.1413  0.2244  0.3504
 1055YOPC   PO415488   8.748  19.185   4.771  0.3456  0.1906 -0.2260
 1055YOPC   GL115489   8.674  19.190   5.220 -0.0273  0.3079  0.0686
 1055YOPC   GL215490   8.929  19.117   5.516  0.0396 -0.1995  0.4547
 1055YOPC   C1A15491   8.548  19.203   5.771 -0.0041 -0.2742 -0.0120
 1055YOPC   D2A15492   8.467  19.241   6.215  0.0153 -0.1158  0.2633
 1055YOPC   C3A15493   8.254  19.622   6.279  0.4770  0.0575  0.0415
 1055YOPC   C4A15494   8.218  19.948   6.245 -0.4011  0.0220  0.1997
 1055YOPC   C1B15495   8.933  19.078   6.055 -0.2231  0.1730  0.2068
 1055YOPC   C2B15496   9.042  19.291   6.420 -0.0914  0.2240 -0.0962
 1055YOPC   D3B15497   8.711  19.516   6.591 -0.0583 -0.1403 -0.0278
 1055YOPC   C4B15498   8.556  19.753   6.862  0.0161 -0.1237  0.1431
 1056YOPC   NC315499   1.167   1.614   4.683  0.5406 -0.1175  0.0714
 1056YOPC   PO415500   1.284   1.994   4.888 -0.0925 -0.0756  0.0288
 1056YOPC   GL115501   1.569   2.034   5.224 -0.0645 -0.2899 -0.3495
 1056YOPC   GL215502   1.339   1.867   5.514  0.1681  0.2806  0.1582
 1056YOPC   C1A15503   1.888   1.689   5.350 -0.3928 -0.0533 -0.0453
 1056YOPC   D2A15504   2.208   1.387   5.444 -0.0420 -0.1699 -0.0674
 1056YOPC   C3A15505   2.405   1.430   5.709 -0.3565 -0.1929 -0.0701
 1056YOPC   C4A15506   2.612   1.696   5.955 -0.1391  0.0830  0.3740
 1056YOPC   C1B15507   1.614   1.916   5.879  0.2261  0.1032  0.2318
 1056YOPC   C2B15508   1.757   1.867   6.291  0.0551 -0.0346  0.1211
 1056YOPC   D3B15509   1.463   1.752   6.473 -0.1335  0.2516  0.2573
 1056YOPC   C4B15510   1.129   1.453   6.566 -0.1619  0.2867 -0.1300
 1057YOPC   NC315511  19.609   2.811   5.296  0.3461  0.2189 -0.0936
 1057YOPC   PO415512  19.550   2.398   5.139 -0.3166  0.1027  0.0182
 1057YOPC   GL115513  19.558   2.033   5.533 -0.1799  0.2945  0.1536
 1057YOPC   GL215514  19.505   2.269   5.783 -0.0675 -0.1776 -0.2102
 1057YOPC   C1A15515  19.409   1.629   5.770 -0.0571 -0.4504 -0.4236
 1057YOPC   D2A15516  19.407   1.256   6.031  0.3001  0.1966 -0.3209
 1057YOPC   C3A15517  19.236   0.885   6.256 -0.0663  0.5517  0.1926
 1057YOPC   C4A15518  19.238   0.775   6.570 -0.2810 -0.0854  0.1113
 1057YOPC   C1B15519  19.594   2.315   6.142  0.2802  0.1394 -0.1967
 1057YOPC   C2B15520  19.407   2.143   6.410 -0.3473  0.1202 -0.0767
 1057YOPC   D3B15521  19.227   2.206   6.673  0.1331  0.1302  0.1407
 1057YOPC   C4B15522  19.044   2.090   7.096  0.3089 -0.2030 -0.1820
 1058YOPC   NC315523  17.699   0.492   4.789 -0.0441 -0.0765 -0.2564
 1058YOPC   PO415524  17.939   0.651   5.132 -0.0693 -0.0687  0.2522
 1058YOPC   GL115525  18.079   0.746   5.590  0.1769  0.0027 -0.1354
 1058YOPC   GL215526  17.736   0.892   5.621 -0.1832  0.0525 -0.0166
 1058YOPC   C1A15527  18.136   0.765   5.923 -0.0217 -0.1726  0.0622
 1058YOPC   D2A15528  18.407   0.831   6.401  0.2051 -0.1244  0.0654
 1058YOPC   C3A15529  18.306   1.175   6.630  0.0731 -0.1612 -0.2278
 1058YOPC   C4A15530  18.508   1.583   6.752 -0.1879  0.1827  0.0247
 1058YOPC   C1B15531  17.433   1.189   5.651  0.4411  0.4222 -0.5579
 1058YOPC   C2B15532  17.166   1.508   5.645  0.3411 -0.0505 -0.1550
 1058YOPC   D3B15533  16.802   1.357   5.921 -0.0864 -0.2661 -0.1869
 1058YOPC   C4B15534  16.638   1.043   6.133 -0.0284  0.2324  0.2529
 1059YOPC   NC315535  14.864  10.815   4.489  0.0665 -0.0336  0.2720
 1059YOPC   PO415536  14.641  11.163   4.724 -0.1890  0.3028 -0.0250
 1059YOPC   GL115537  14.978  11.313   5.062  0.0867 -0.1626  0.0965
 1059YOPC   GL215538  14.833  11.221   5.305  0.0511  0.3632 -0.1350
 1059YOPC   C1A15539  15.325  11.620   5.391  0.1143  0.0738  0.1641
 1059YOPC   D2A15540  15.310  12.017   5.644  0.2577 -0.1473 -0.2542
 1059YOPC   C3A15541  15.409  12.082   6.101 -0.0197 -0.3167 -0.4495
 1059YOPC   C4A15542  15.430  11.821   6.472  0.1558  0.1836  0.2866
 1059YOPC   C1B15543  15.213  11.063   5.469  0.1834 -0.3592  0.0260
 1059YOPC   C2B15544  15.429  10.660   5.436 -0.0823  0.2603  0.2911
 1059YOPC   D3B15545  15.514  10.336   5.753 -0.0959 -0.2615 -0.1494
 1059YOPC   C4B15546  15.454   9.857   5.848  0.1867 -0.2187 -0.2083
 1060YOPC   NC315547  16.041   1.786   4.535 -0.0291  0.2193  0.2210
 1060YOPC   PO415548  15.634   1.985   4.500  0.2555  0.4073 -0.1141
 1060YOPC   GL115549  15.779   1.927   4.973  0.1815 -0.1295 -0.0587
 1060YOPC   GL215550  16.111   2.075   4.971  0.1965 -0.3172 -0.0706
 1060YOPC   C1A15551  15.757   1.894   5.386  0.1619 -0.0938  0.2103
 1060YOPC   D2A15552  15.875   1.655   5.758  0.0412 -0.0467 -0.1372
 1060YOPC   C3A15553  16.204   1.389   5.771 -0.0222  0.2024  0.3850
 1060YOPC   C4A15554  16.488   1.072   5.581 -0.1233  0.1798  0.3245
 1060YOPC   C1B15555  16.228   1.826   5.402 -0.1900  0.3944 -0.1841
 1060YOPC   C2B15556  16.517   1.851   5.741  0.2612 -0.0200  0.0008
 1060YOPC   D3B15557  16.461   1.743   6.151 -0.3998  0.0975  0.0058
 1060YOPC   C4B15558  16.651   1.630   6.507  0.0930  0.0407 -0.1225
 1061YOPC   NC315559  12.830  15.592   5.051 -0.0483  0.0119 -0.0112
 1061YOPC   PO415560  12.727  15.090   5.058  0.1690 -0.1067  0.2118
 1061YOPC   GL115561  12.674  14.758   5.398  0.0524 -0.0234 -0.1098
 1061YOPC   GL215562  12.568  14.504   5.483  0.3926  0.5339 -0.1924
 1061YOPC   C1A15563  12.812  14.916   5.799 -0.2141  0.0394  0.1661
 1061YOPC   D2A15564  12.665  15.181   6.192  0.1281 -0.0981  0.0013
 1061YOPC   C3A15565  12.194  15.041   6.455 -0.0889 -0.0502 -0.0999
 1061YOPC   C4A15566  11.737  15.114   6.388 -0.1060  0.0258 -0.0132
 1061YOPC   C1B15567  12.416  14.324   5.749  0.0669  0.1629 -0.1467
 1061YOPC   C2B15568  12.405  14.289   6.281  0.1217  0.2816 -0.2374
 1061YOPC   D3B15569  12.189  13.983   6.470 -0.1546 -0.0216  0.0745
 1061YOPC   C4B15570  11.791  13.686   6.729  0.1998  0.0833  0.3236
 1062YOPC   NC315571  16.148   3.749   5.041  0.1840 -0.4754 -0.0056
 1062YOPC   PO415572  16.564   3.415   5.081  0.1951  0.1447 -0.0577
 1062YOPC   GL115573  16.681   3.433   5.419 -0.1377  0.1800  0.0971
 1062YOPC   GL215574  16.999   3.715   5.371  0.0289 -0.3664 -0.0218
 1062YOPC   C1A15575  16.604   3.624   5.822  0.1766  0.1826  0.1945
 1062YOPC   D2A15576  16.562   4.020   6.080  0.0352 -0.3239 -0.1682
 1062YOPC   C3A15577  16.643   3.994   6.409 -0.1445 -0.0904 -0.0965
 1062YOPC   C4A15578  16.845   3.875   6.828  0.1209  0.2124 -0.2823
 1062YOPC   C1B15579  17.117   3.954   5.793  0.2608  0.2031 -0.1430
 1062YOPC   C2B15580  17.240   3.993   6.148 -0.2544  0.0857  0.1866
 1062YOPC   D3B15581  17.294   3.753   6.446  0.0372 -0.0281 -0.1966
 1062YOPC   C4B15582  17.149   3.369   6.785  0.0438 -0.1889  0.0558
 1063YOPC   NC315583  18.778  19.193   4.634 -0.1132  0.1791  0.1362
 1063YOPC   PO415584  18.620  19.012   5.029 -0.0064 -0.2387  0.1057
 1063YOPC   GL115585  18.470  18.898   5.489 -0.0118  0.1678 -0.0251
 1063YOPC   GL215586  18.460  18.571   5.299 -0.2666 -0.1732 -0.4001
 1063YOPC   C1A15587  18.519  18.749   5.906 -0.2562  0.1509  0.1152
 1063YOPC   D2A15588  18.619  19.052   6.041 -0.0105  0.0712  0.3658
 1063YOPC   C3A15589  18.972  18.986   6.287  0.0941  0.4094 -0.0871
 1063YOPC   C4A15590  19.280  18.741   6.420 -0.2354 -0.1999 -0.6597
 1063YOPC   C1B15591  18.575  18.318   5.660 -0.0018 -0.2186 -0.0525
 1063YOPC   C2B15592  18.327  18.325   6.027 -0.0969  0.1982 -0.0246
 1063YOPC   D3B15593  18.145  18.633   6.229 -0.2375  0.1995 -0.0887
 1063YOPC   C4B15594  17.706  18.853   6.156  0.1132  0.0328  0.1069
 1064YOPC   NC315595   0.265   8.297   5.197  0.1296  0.3853  0.2717
 1064YOPC   PO415596   0.670   8.389   5.117  0.3584  0.3393  0.0212
 1064YOPC   GL115597   0.574   8.383   5.592 -0.1349 -0.1127  0.0296
 1064YOPC   GL215598   0.852   8.284   5.769 -0.0841  0.0270  0.0080
 1064YOPC   C1A15599   0.401   8.294   6.012 -0.2359 -0.1395  0.0651
 1064YOPC   D2A15600   0.313   8.345   6.440  0.2266 -0.3494  0.2327
 1064YOPC   C3A15601   0.612   8.274   6.805  0.1925 -0.1048  0.1919
 1064YOPC   C4A15602   0.812   8.047   7.121  0.3716  0.0078  0.0896
 1064YOPC   C1B15603   0.833   8.186   6.318  0.1200  0.0821  0.2712
 1064YOPC   C2B15604   0.949   7.843   6.572 -0.1470 -0.0455  0.1007
 1064YOPC   D3B15605   1.370   7.947   6.825 -0.3394  0.0662  0.0634
 1064YOPC   C4B15606   1.585   7.966   7.216  0.0674  0.1373 -0.0737
 1065YOPC   NC315607  18.338   7.656   4.966  0.0479 -0.0066  0.0494
 1065YOPC   PO415608  18.092   8.026   4.950  0.0508  0.0160 -0.2237
 1065YOPC   GL115609  17.728   8.326   5.118  0.0746 -0.3213  0.4662
 1065YOPC   GL215610  17.779   8.497   5.323 -0.1379  0.0593  0.1780
 1065YOPC   C1A15611  17.324   8.277   5.208  0.0010  0.0335 -0.0986
 1065YOPC   D2A15612  17.133   7.984   5.502  0.0400  0.4381 -0.1345
 1065YOPC   C3A15613  16.947   8.156   5.885 -0.2033 -0.0355  0.2345
 1065YOPC   C4A15614  16.924   8.351   6.300 -0.1417  0.1779  0.0762
 1065YOPC   C1B15615  17.729   8.139   5.583  0.2367 -0.0375  0.1722
 1065YOPC   C2B15616  17.576   7.837   5.788  0.2997  0.1451 -0.1070
 1065YOPC   D3B15617  17.266   7.917   6.160  0.1047 -0.3138  0.1218
 1065YOPC   C4B15618  16.968   7.879   6.466  0.0440 -0.0158  0.0919
 1066YOPC   NC315619  15.293   7.187   4.713 -0.3975 -0.0897  0.1195
 1066YOPC   PO415620  14.984   7.110   4.964  0.0694 -0.1943  0.0501
 1066YOPC   GL115621  15.273   7.059   5.264  0.3147 -0.1298  0.3264
 1066YOPC   GL215622  15.514   6.829   5.044 -0.3490  0.2913 -0.3071
 1066YOPC   C1A15623  15.258   7.411   5.632 -0.1573 -0.0204  0.5706
 1066YOPC   D2A15624  15.099   7.399   6.040  0.4252 -0.3104 -0.2156
 1066YOPC   C3A15625  15.067   7.492   6.362 -0.0754  0.1531  0.2867
 1066YOPC   C4A15626  14.895   7.600   6.587 -0.0585 -0.1459  0.0020
 1066YOPC   C1B15627  15.236   6.590   5.381  0.1868 -0.0670  0.2305
 1066YOPC   C2B15628  14.818   6.419   5.556  0.1211  0.1454 -0.0542
 1066YOPC   D3B15629  14.719   5.941   5.520  0.1313  0.0226  0.0535
 1066YOPC   C4B15630  14.355   5.658   5.627 -0.4598  0.2070  0.0441
 1067YOPC   NC315631   9.166   0.861   4.811 -0.1198 -0.1289  0.0717
 1067YOPC   PO415632   9.014   1.138   4.999  0.0259 -0.2372  0.0280
 1067YOPC   GL115633   8.801   1.170   5.359  0.0266 -0.2566  0.0028
 1067YOPC   GL215634   8.480   1.237   5.551 -0.2810  0.1724  0.0451
 1067YOPC   C1A15635   8.828   0.928   5.706 -0.2921  0.3982  0.0853
 1067YOPC   D2A15636   8.673   0.868   6.070 -0.0501  0.0327 -0.1048
 1067YOPC   C3A15637   8.939   0.668   6.361 -0.0722 -0.0489 -0.0053
 1067YOPC   C4A15638   9.383   0.547   6.719  0.1271  0.1614 -0.1115
 1067YOPC   C1B15639   8.257   1.088   5.969  0.0979 -0.0371 -0.0180
 1067YOPC   C2B15640   8.290   0.992   6.333 -0.5919  0.0213  0.1838
 1067YOPC   D3B15641   8.141   0.742   6.683  0.0565 -0.0903 -0.0759
 1067YOPC   C4B15642   8.190   0.598   7.065  0.2976  0.1273  0.1912
 1068YOPC   NC315643   8.390   9.546   4.753  0.2621 -0.2025  0.2370
 1068YOPC   PO415644   8.848   9.463   4.975 -0.0619  0.0661 -0.2117
 1068YOPC   GL115645   9.045   9.161   5.206 -0.3626 -0.0350 -0.1870
 1068YOPC   GL215646   8.886   8.918   5.418  0.0344 -0.0951 -0.0881
 1068YOPC   C1A15647   9.259   9.225   5.621 -0.1704  0.3311 -0.0063
 1068YOPC   D2A15648   9.110   9.542   5.856  0.0350 -0.4040 -0.2186
 1068YOPC   C3A15649   9.081   9.483   6.279 -0.0128 -0.0869 -0.1826
 1068YOPC   C4A15650   9.164   9.234   6.685 -0.2094  0.1941  0.4268
 1068YOPC   C1B15651   8.681   9.363   5.655  0.3774  0.1325 -0.0278
 1068YOPC   C2B15652   8.248   9.303   5.800  0.0691  0.0475 -0.0675
 1068YOPC   D3B15653   8.001   9.696   6.056  0.1075 -0.1909 -0.1996
 1068YOPC   C4B15654   7.559   9.719   6.303  0.0575 -0.0510 -0.0134
 1069YOPC   NC315655  10.106   7.872   4.460 -0.0300 -0.2110 -0.1381
 1069YOPC   PO415656  10.226   7.683   4.972  0.0041  0.1611  0.1238
 1069YOPC   GL115657  10.478   7.661   5.418 -0.0664 -0.3112  0.1702
 1069YOPC   GL215658  10.240   7.364   5.473  0.2388 -0.0742 -0.0022
 1069YOPC   C1A15659  10.699   7.725   5.776  0.0833 -0.1535  0.0849
 1069YOPC   D2A15660  10.928   7.979   6.050 -0.0400  0.0501 -0.1126
 1069YOPC   C3A15661  10.772   8.421   6.126 -0.2454 -0.0617  0.1201
 1069YOPC   C4A15662  10.672   8.759   6.031 -0.0857  0.0960  0.0614
 1069YOPC   C1B15663  10.277   7.325   5.892  0.0653  0.0809 -0.1010
 1069YOPC   C2B15664  10.471   6.828   6.158  0.0305 -0.1441 -0.1705
 1069YOPC   D3B15665  10.334   6.849   6.513 -0.4192 -0.1849  0.0340
 1069YOPC   C4B15666  10.206   6.955   6.907  0.2219  0.2302 -0.3680
 1070YOPC   NC315667  15.965  18.574   5.045 -0.2610  0.1008  0.2223
 1070YOPC   PO415668  16.211  18.906   5.115  0.0691 -0.1092 -0.0397
 1070YOPC   GL115669  16.542  18.992   5.464 -0.1030  0.2592  0.0923
 1070YOPC   GL215670  16.786  18.790   5.372  0.2886  0.0213  0.1022
 1070YOPC   C1A15671  16.915  19.197   5.795 -0.0927 -0.1280  0.1651
 1070YOPC   D2A15672  17.211  19.210   5.621 -0.1571 -0.1058 -0.2938
 1070YOPC   C3A15673  17.341  18.820   5.824  0.0842  0.2329 -0.2971
 1070YOPC   C4A15674  17.027  18.746   5.969 -0.0902  0.1651  0.0031
 1070YOPC   C1B15675  16.532  18.632   5.839 -0.1621  0.0821 -0.0305
 1070YOPC   C2B15676  16.460  18.530   6.225  0.1248  0.0935 -0.6956
 1070YOPC   D3B15677  16.572  18.264   6.624  0.0559 -0.1457  0.0991
 1070YOPC   C4B15678  16.606  18.224   6.989 -0.2638  0.1246 -0.1066
 1071YOPC   NC315679  18.055   1.330   4.420 -0.3596 -0.0058 -0.0482
 1071YOPC   PO415680  18.139   1.487   4.734  0.0489 -0.3766 -0.1082
 1071YOPC   GL115681  17.972   1.575   5.111  0.2182  0.1466 -0.0579
 1071YOPC   GL215682  17.727   1.666   5.204 -0.0331  0.2437 -0.0247
 1071YOPC   C1A15683  17.954   1.302   5.625 -0.2368 -0.0056 -0.0288
 1071YOPC   D2A15684  18.122   1.263   6.043 -0.3929  0.1941  0.0163
 1071YOPC   C3A15685  18.446   1.522   6.080  0.1696 -0.1533  0.1364
 1071YOPC   C4A15686  18.742   1.559   6.175 -0.0163  0.2614 -0.1317
 1071YOPC   C1B15687  17.599   1.728   5.592  0.0387  0.0902 -0.0866
 1071YOPC   C2B15688  17.654   1.435   6.004 -0.1721  0.2511  0.1203
 1071YOPC   D3B15689  17.298   1.450   6.176 -0.3358  0.5244  0.2428
 1071YOPC   C4B15690  16.946   1.842   5.997 -0.1022  0.1141  0.0363
 1072YOPC   NC315691   8.279  12.073   5.251 -0.2130  0.0156  0.0664
 1072YOPC   PO415692   8.009  11.757   5.207  0.2618 -0.3750  0.2819
 1072YOPC   GL115693   7.945  11.964   5.723 -0.0654 -0.0103  0.3242
 1072YOPC   GL215694   8.152  12.275   5.752 -0.3925 -0.0500 -0.2082
 1072YOPC   C1A15695   8.241  11.913   6.083 -0.1378  0.1324 -0.0518
 1072YOPC   D2A15696   8.350  11.676   6.453 -0.1563 -0.0835 -0.0572
 1072YOPC   C3A15697   8.080  11.498   6.880 -0.0372 -0.3295 -0.0692
 1072YOPC   C4A15698   7.951  11.483   7.384 -0.1258  0.0112 -0.0617
 1072YOPC   C1B15699   8.637  12.438   5.925 -0.1671  0.0450  0.1222
 1072YOPC   C2B15700   9.008  12.385   5.870 -0.1617  0.0125  0.0383
 1072YOPC   D3B15701   9.143  11.994   6.065 -0.2312  0.4016 -0.2359
 1072YOPC   C4B15702   9.334  12.052   6.501 -0.0676 -0.1441  0.0232
 1073YOPC   NC315703  10.250  13.948   5.171 -0.0692  0.0328  0.1024
 1073YOPC   PO415704  10.417  13.564   5.117  0.0039 -0.1537 -0.0456
 1073YOPC   GL115705  10.578  13.816   5.539 -0.3942  0.1991 -0.0331
 1073YOPC   GL215706  10.602  14.139   5.473 -0.0231 -0.1534 -0.2968
 1073YOPC   C1A15707  10.827  13.794   6.031 -0.3193  0.2024  0.0063
 1073YOPC   D2A15708  10.916  13.493   6.455  0.0198 -0.0291  0.2257
 1073YOPC   C3A15709  10.490  13.421   6.676 -0.0087 -0.2374  0.3152
 1073YOPC   C4A15710  10.291  13.597   7.002 -0.0131  0.1724 -0.2317
 1073YOPC   C1B15711  10.770  14.422   5.888  0.3359 -0.3093  0.1239
 1073YOPC   C2B15712  11.105  14.354   6.188  0.2218  0.3554 -0.0328
 1073YOPC   D3B15713  11.063  14.629   6.557  0.2217  0.0459  0.1850
 1073YOPC   C4B15714  11.314  14.996   6.671  0.0842  0.0236 -0.0596
 1074YOPC   NC315715  10.860  16.424   5.171 -0.1819  0.1207  0.0698
 1074YOPC   PO415716  10.694  16.868   5.205  0.0587  0.2950  0.1829
 1074YOPC   GL115717  10.558  16.831   5.609 -0.0262  0.3294  0.1702
 1074YOPC   GL215718  10.842  16.584   5.867 -0.1057 -0.2877 -0.0700
 1074YOPC   C1A15719  10.318  16.629   5.989  0.1723 -0.0458  0.0475
 1074YOPC   D2A15720   9.954  16.531   6.216  0.1185 -0.0393  0.0471
 1074YOPC   C3A15721   9.914  16.849   6.718 -0.1941  0.1102  0.1114
 1074YOPC   C4A15722  10.091  17.094   6.989  0.0822  0.3056 -0.0574
 1074YOPC   C1B15723  10.915  16.744   6.280  0.3940  0.2486 -0.2793
 1074YOPC   C2B15724  10.643  16.836   6.500  0.0643 -0.2889 -0.0358
 1074YOPC   D3B15725  10.330  16.598   6.609  0.0871 -0.2680 -0.1300
 1074YOPC   C4B15726  10.278  16.190   6.763 -0.2020  0.2964  0.1670
 1075YOPC   NC315727  12.302   4.798   5.296  0.1429 -0.2686 -0.1837
 1075YOPC   PO415728  12.367   4.468   5.450 -0.0592 -0.0877  0.0670
 1075YOPC   GL115729  12.221   4.768   5.770  0.0294 -0.3001  0.2334
 1075YOPC   GL215730  12.058   4.951   5.705  0.2549  0.0443 -0.0290
 1075YOPC   C1A15731  12.224   4.806   6.266  0.0547  0.0944  0.0409
 1075YOPC   D2A15732  12.158   5.061   6.595  0.2569  0.0509 -0.1873
 1075YOPC   C3A15733  12.224   5.436   6.627  0.0447 -0.2472  0.1629
 1075YOPC   C4A15734  12.312   5.671   6.979  0.3732 -0.3210  0.0138
 1075YOPC   C1B15735  11.788   4.957   6.119  0.0748  0.1166 -0.3152
 1075YOPC   C2B15736  11.597   4.839   6.402  0.3175 -0.1104 -0.1267
 1075YOPC   D3B15737  11.626   5.114   6.712 -0.0565  0.0012 -0.2465
 1075YOPC   C4B15738  11.781   5.566   6.910 -0.1203 -0.0366 -0.0058
 1076YOPC   NC315739   9.724   0.041   4.745  0.0909  0.1502 -0.0479
 1076YOPC   PO415740  10.009   0.291   4.956 -0.2888 -0.0419 -0.3518
 1076YOPC   GL115741  10.202   0.353   5.335 -0.0193 -0.3594  0.0489
 1076YOPC   GL215742  10.410   0.553   5.373 -0.0334 -0.4429 -0.0710
 1076YOPC   C1A15743  10.238   0.152   5.790 -0.1663  0.0583 -0.0338
 1076YOPC   D2A15744  10.054  -0.047   6.274  0.2915  0.4211  0.3398
 1076YOPC   C3A15745  10.292  -0.128   6.691  0.0413  0.1957  0.1867
 1076YOPC   C4A15746  10.754  -0.185   6.638  0.1279 -0.0869 -0.0946
 1076YOPC   C1B15747  10.505   0.566   5.817 -0.1025 -0.0084 -0.0223
 1076YOPC   C2B15748  10.775   0.664   6.214 -0.1022 -0.2203  0.0923
 1076YOPC   D3B15749  11.208   0.646   6.265  0.3040  0.1716 -0.4182
 1076YOPC   C4B15750  11.269   0.426   6.567 -0.0051 -0.0417 -0.2668
 1077YOPC   NC315751  16.065   8.475   4.722  0.2818  0.3194  0.0587
 1077YOPC   PO415752  15.681   8.521   4.778  0.3688  0.0793 -0.0884
 1077YOPC   GL115753  15.782   8.382   5.172 -0.0293  0.2118  0.1051
 1077YOPC   GL215754  15.928   8.172   5.345 -0.1877  0.1155  0.0315
 1077YOPC   C1A15755  15.510   8.351   5.504 -0.0120 -0.2055  0.1614
 1077YOPC   D2A15756  15.008   8.323   5.650 -0.1244 -0.0475  0.2248
 1077YOPC   C3A15757  15.013   8.111   6.050 -0.2114 -0.0137 -0.2070
 1077YOPC   C4A15758  14.822   8.094   6.363  0.0903 -0.0731 -0.3094
 1077YOPC   C1B15759  15.975   8.029   5.782  0.2695  0.1681  0.0838
 1077YOPC   C2B15760  16.227   7.662   5.918 -0.2903  0.2705 -0.3474
 1077YOPC   D3B15761  16.076   7.545   6.456 -0.3454 -0.1241  0.0057
 1077YOPC   C4B15762  15.639   7.292   6.523  0.2864  0.1072  0.3608
 1078YOPC   NC315763  15.760  14.334   4.906 -0.1894  0.1220 -0.3930
 1078YOPC   PO415764  16.133  14.573   4.839  0.2096  0.2657 -0.0217
 1078YOPC   GL115765  16.216  14.348   5.250  0.0729 -0.2284  0.0906
 1078YOPC   GL215766  16.112  14.051   5.459  0.0219  0.0087 -0.1073
 1078YOPC   C1A15767  16.384  14.435   5.699 -0.0138 -0.2774 -0.0566
 1078YOPC   D2A15768  16.654  14.512   6.007 -0.1875 -0.0303 -0.0727
 1078YOPC   C3A15769  16.741  14.362   6.256 -0.4039  0.1154 -0.3852
 1078YOPC   C4A15770  16.488  14.234   6.607  0.3656  0.1960 -0.0228
 1078YOPC   C1B15771  16.354  13.696   5.656 -0.1535 -0.2863  0.1302
 1078YOPC   C2B15772  16.368  13.406   5.908  0.2957 -0.0012 -0.2318
 1078YOPC   D3B15773  16.565  13.424   6.222  0.0117  0.0843  0.0041
 1078YOPC   C4B15774  16.504  13.185   6.519  0.1281  0.1270  0.5800
 1079YOPC   NC315775   9.634  16.581   4.782 -0.0892  0.1550 -0.0872
 1079YOPC   PO415776   9.839  16.564   5.130  0.1131  0.2220  0.0574
 1079YOPC   GL115777   9.617  16.391   5.369 -0.1786  0.1931 -0.0230
 1079YOPC   GL215778   9.727  16.093   5.416 -0.1110 -0.1302  0.1118
 1079YOPC   C1A15779   9.636  16.369   5.870  0.0340  0.0872 -0.1469
 1079YOPC   D2A15780   9.581  16.183   6.247 -0.0379  0.0902  0.1804
 1079YOPC   C3A15781   9.157  16.291   6.476 -0.1522 -0.2823  0.1019
 1079YOPC   C4A15782   8.736  16.153   6.333 -0.1211 -0.1530  0.1866
 1079YOPC   C1B15783  10.042  16.122   5.827 -0.2471  0.3722 -0.0291
 1079YOPC   C2B15784  10.248  16.182   6.235 -0.2239  0.2509  0.0451
 1079YOPC   D3B15785  10.405  15.750   6.453 -0.0861 -0.1737 -0.0656
 1079YOPC   C4B15786  10.446  15.718   6.895 -0.1121 -0.0145 -0.1545
 1080YOPC   NC315787   3.675  12.579   5.032  0.0131  0.0317  0.5388
 1080YOPC   PO415788   3.951  12.877   5.185 -0.4495 -0.0700 -0.0107
 1080YOPC   GL115789   4.318  12.722   5.473 -0.0503  0.2272  0.2415
 1080YOPC   GL215790   4.332  12.502   5.610 -0.4112 -0.0503 -0.1017
 1080YOPC   C1A15791   4.283  12.870   5.915  0.0998  0.2179  0.1652
 1080YOPC   D2A15792   4.267  13.156   6.249  0.0049  0.0716  0.0877
 1080YOPC   C3A15793   4.200  13.575   6.224  0.0384 -0.0075 -0.0918
 1080YOPC   C4A15794   3.769  13.716   6.358 -0.1199 -0.1282 -0.1993
 1080YOPC   C1B15795   4.373  12.384   5.997  0.0615  0.0615  0.2698
 1080YOPC   C2B15796   4.281  12.634   6.424  0.1875 -0.2386 -0.0738
 1080YOPC   D3B15797   4.023  12.527   6.694  0.2572 -0.3047 -0.0363
 1080YOPC   C4B15798   3.784  12.493   7.026 -0.2600 -0.5306  0.0689
 1081YOPC   NC315799  18.671   0.660   4.937  0.1238  0.1557  0.1211
 1081YOPC   PO415800  19.173   0.600   4.987 -0.0106  0.2885 -0.1540
 1081YOPC   GL115801  19.314   0.427   5.385  0.0648 -0.0453  0.0675
 1081YOPC   GL215802  19.531   0.091   5.457  0.3431 -0.1281  0.0226
 1081YOPC   C1A15803  19.199   0.591   5.815  0.2773 -0.1742 -0.4588
 1081YOPC   D2A15804  18.980   0.492   6.282  0.2148 -0.0881 -0.1116
 1081YOPC   C3A15805  19.153   0.317   6.720 -0.0933 -0.1196 -0.1123
 1081YOPC   C4A15806  19.190   0.325   7.181  0.0917  0.0588  0.0195
 1081YOPC   C1B15807  19.726   0.123   5.847 -0.2215 -0.1444  0.2072
 1081YOPC   C2B15808  20.031  -0.005   6.059 -0.0531  0.0272  0.0409
 1081YOPC   D3B15809  19.990  -0.547   6.198 -0.1389  0.0402  0.0389
 1081YOPC   C4B15810  19.790  -0.898   6.408  0.0439  0.0182 -0.1455
 1082YOPC   NC315811  15.157  13.688   5.133  0.2132 -0.0348 -0.2778
 1082YOPC   PO415812  15.535  13.417   5.211 -0.1009 -0.1066  0.0719
 1082YOPC   GL115813  15.607  13.546   5.531 -0.0803 -0.0208 -0.1753
 1082YOPC   GL215814  15.910  13.602   5.521 -0.0162 -0.0567 -0.1706
 1082YOPC   C1A15815  15.423  13.459   5.968  0.0419  0.1904  0.3488
 1082YOPC   D2A15816  15.535  13.079   6.120 -0.0514 -0.0050 -0.1730
 1082YOPC   C3A15817  15.671  13.168   6.611  0.0617 -0.2122  0.3388
 1082YOPC   C4A15818  15.335  13.276   6.919  0.2180 -0.0114 -0.3602
 1082YOPC   C1B15819  15.912  13.582   6.033  0.0123  0.0717 -0.0583
 1082YOPC   C2B15820  15.717  13.644   6.410 -0.0234 -0.2013 -0.1024
 1082YOPC   D3B15821  15.323  13.536   6.480  0.1366 -0.0131  0.2414
 1082YOPC   C4B15822  15.063  13.284   6.303 -0.1562 -0.1075 -0.1004
 1083YOPC   NC315823  14.669   2.574   4.714 -0.0754 -0.0867  0.1393
 1083YOPC   PO415824  14.258   2.380   4.680 -0.2310  0.0658  0.4016
 1083YOPC   GL115825  14.086   2.244   5.080 -0.1930 -0.0792 -0.4901
 1083YOPC   GL215826  14.333   2.157   5.320 -0.1011  0.0807 -0.3743
 1083YOPC   C1A15827  13.920   1.896   5.281  0.2291 -0.1801  0.1041
 1083YOPC   D2A15828  13.948   1.690   5.759  0.0749 -0.1004  0.1689
 1083YOPC   C3A15829  13.630   1.623   6.060  0.1012 -0.2321  0.0108
 1083YOPC   C4A15830  13.138   1.598   5.972  0.1789 -0.1210  0.2968
 1083YOPC   C1B15831  14.653   2.112   5.707 -0.0124  0.0545  0.1467
 1083YOPC   C2B15832  14.763   2.446   5.845  0.2910 -0.0518  0.1687
 1083YOPC   D3B15833  15.098   2.475   5.937  0.6364  0.2759  0.2009
 1083YOPC   C4B15834  15.420   2.431   6.194 -0.0027 -0.3477  0.0808
 1084YOPC   NC315835  18.158  17.648   4.931 -0.2259  0.1983 -0.2598
 1084YOPC   PO415836  18.573  17.536   4.819  0.1868 -0.1624  0.0976
 1084YOPC   GL115837  18.664  17.655   5.207  0.1187  0.2341 -0.2108
 1084YOPC   GL215838  18.719  17.419   5.397 -0.0113 -0.0181 -0.1417
 1084YOPC   C1A15839  18.939  17.848   5.532 -0.0677 -0.1965  0.3003
 1084YOPC   D2A15840  19.061  18.085   5.834 -0.3197 -0.3922  0.2589
 1084YOPC   C3A15841  19.329  17.819   6.018 -0.1562 -0.0139 -0.2180
 1084YOPC   C4A15842  19.721  17.745   6.132  0.2447  0.0099 -0.3208
 1084YOPC   C1B15843  18.812  17.325   5.741  0.0795 -0.0973  0.0339
 1084YOPC   C2B15844  18.622  17.265   6.027  0.1692 -0.0536  0.0027
 1084YOPC   D3B15845  18.192  17.340   6.013 -0.3226  0.0832 -0.0764
 1084YOPC   C4B15846  17.948  17.657   6.349  0.0127 -0.0207  0.2692
 1085YOPC   NC315847  15.961   6.426   5.001 -0.0772  0.0291  0.0739
 1085YOPC   PO415848  15.637   6.283   4.731  0.0200  0.0036 -0.3563
 1085YOPC   GL115849  15.559   5.978   5.040 -0.1887 -0.2092  0.2768
 1085YOPC   GL215850  15.563   6.233   5.282  0.1712  0.1583 -0.0387
 1085YOPC   C1A15851  15.725   5.811   5.510  0.0943 -0.0506 -0.2534
 1085YOPC   D2A15852  15.513   5.612   5.813  0.1396 -0.1653 -0.1177
 1085YOPC   C3A15853  15.529   5.447   6.288 -0.0461 -0.1093  0.1427
 1085YOPC   C4A15854  15.502   5.561   6.692  0.2932  0.2939  0.7275
 1085YOPC   C1B15855  15.682   6.329   5.608  0.0354  0.2108  0.2822
 1085YOPC   C2B15856  15.856   6.558   5.951  0.1510  0.1814  0.1274
 1085YOPC   D3B15857  15.834   6.362   6.274 -0.3628  0.0055 -0.1041
 1085YOPC   C4B15858  15.429   6.345   6.558  0.3969  0.0648  0.1289
 1086YOPC   NC315859  17.256  17.338   4.262  0.0867  0.0215 -0.1539
 1086YOPC   PO415860  17.022  17.284   4.576 -0.2484 -0.4572 -0.1499
 1086YOPC   GL115861  17.169  17.452   5.020  0.1120  0.0038  0.0912
 1086YOPC   GL215862  16.996  17.330   5.256 -0.1009 -0.3779 -0.0828
 1086YOPC   C1A15863  17.059  17.836   5.269 -0.0734  0.0371  0.1703
 1086YOPC   D2A15864  16.632  18.048   5.466  0.0158 -0.2952 -0.2783
 1086YOPC   C3A15865  16.379  18.056   5.842  0.4135  0.0333  0.1268
 1086YOPC   C4A15866  16.460  17.868   6.295  0.5079 -0.1440  0.1033
 1086YOPC   C1B15867  16.693  17.152   5.705 -0.0548  0.0231  0.0596
 1086YOPC   C2B15868  16.301  16.907   6.008 -0.0483  0.2409  0.2936
 1086YOPC   D3B15869  16.156  17.001   6.293 -0.0786 -0.0046 -0.0925
 1086YOPC   C4B15870  15.820  17.033   6.611  0.0432  0.3924  0.4629
 1087YOPC   NC315871   7.607   3.036   4.522 -0.1829  0.4545 -0.0357
 1087YOPC   PO415872   7.881   3.332   4.675 -0.0930 -0.1448 -0.0238
 1087YOPC   GL115873   7.842   3.445   5.054  0.2018  0.2016  0.0354
 1087YOPC   GL215874   7.665   3.235   5.263 -0.0596  0.1564 -0.0438
 1087YOPC   C1A15875   8.140   3.418   5.393  0.1093  0.1928 -0.1384
 1087YOPC   D2A15876   8.380   3.650   5.568  0.0750 -0.1607  0.1149
 1087YOPC   C3A15877   8.230   3.979   5.626 -0.3532 -0.0430 -0.1770
 1087YOPC   C4A15878   7.887   4.108   5.822 -0.1478 -0.1846 -0.1134
 1087YOPC   C1B15879   7.963   2.954   5.484  0.1018  0.0338  0.1873
 1087YOPC   C2B15880   8.010   2.574   5.766  0.1496 -0.1474  0.4491
 1087YOPC   D3B15881   7.893   2.557   6.163  0.0327 -0.2162  0.2330
 1087YOPC   C4B15882   7.935   2.751   6.570  0.0255  0.0333 -0.0858
 1088YOPC   NC315883   4.349  10.631   5.422 -0.0469 -0.0504 -0.0237
 1088YOPC   PO415884   4.297  10.190   5.257  0.1554  0.1573 -0.1516
 1088YOPC   GL115885   4.161  10.220   5.657  0.2999 -0.2821  0.2085
 1088YOPC   GL215886   4.279  10.057   5.857 -0.1016  0.1864 -0.0273
 1088YOPC   C1A15887   3.830  10.234   5.952 -0.0850  0.1966 -0.2462
 1088YOPC   D2A15888   3.641  10.498   6.149 -0.0650 -0.1600 -0.2040
 1088YOPC   C3A15889   3.506  10.974   6.256 -0.0754  0.1347 -0.0330
 1088YOPC   C4A15890   3.269  11.070   6.645  0.0726 -0.1794 -0.2233
 1088YOPC   C1B15891   4.318   9.776   6.155  0.2608 -0.0304  0.0967
 1088YOPC   C2B15892   4.626   9.500   6.470  0.0426  0.0630 -0.0903
 1088YOPC   D3B15893   4.535   9.360   6.959  0.0641 -0.2175  0.1358
 1088YOPC   C4B15894   4.624   9.231   7.361 -0.1491 -0.2273 -0.2785
 1089YOPC   NC315895  11.272   8.639   4.453  0.0871 -0.1503 -0.0326
 1089YOPC   PO415896  11.324   9.079   4.709 -0.0304  0.5268  0.2452
 1089YOPC   GL115897  11.602   9.160   4.946  0.0559  0.0835 -0.0813
 1089YOPC   GL215898  11.909   9.081   4.924  0.0441  0.0246  0.3960
 1089YOPC   C1A15899  11.637   9.286   5.316  0.4947 -0.1590  0.2275
 1089YOPC   D2A15900  11.595   9.663   5.532  0.2210  0.1961  0.0994
 1089YOPC   C3A15901  11.549   9.570   6.009  0.0918  0.0578  0.2968
 1089YOPC   C4A15902  11.676   9.896   6.315  0.4413 -0.2922  0.1226
 1089YOPC   C1B15903  11.887   8.660   5.086 -0.1442 -0.0530  0.1260
 1089YOPC   C2B15904  11.909   8.343   5.496 -0.2194 -0.0559 -0.1437
 1089YOPC   D3B15905  12.015   8.438   5.898 -0.0635 -0.1352  0.0022
 1089YOPC   C4B15906  12.080   8.901   5.956 -0.0114  0.2124  0.4109
 1090YOPC   NC315907   5.298   7.547   5.051 -0.1541 -0.0553  0.1055
 1090YOPC   PO415908   5.747   7.620   4.902 -0.1210 -0.1950 -0.0810
 1090YOPC   GL115909   5.822   7.562   5.283  0.0552 -0.1055 -0.1010
 1090YOPC   GL215910   6.087   7.748   5.421  0.1819 -0.0775  0.0720
 1090YOPC   C1A15911   5.903   7.360   5.729 -0.3500  0.0272  0.0731
 1090YOPC   D2A15912   6.023   7.271   6.102  0.2075 -0.2670  0.4727
 1090YOPC   C3A15913   5.737   7.670   6.292  0.0290  0.0311 -0.2151
 1090YOPC   C4A15914   5.639   8.025   6.060 -0.1980  0.1407  0.2369
 1090YOPC   C1B15915   6.066   7.819   5.804  0.1749 -0.0181 -0.0787
 1090YOPC   C2B15916   6.103   8.061   6.280  0.0310  0.0487  0.2958
 1090YOPC   D3B15917   6.418   8.160   6.575  0.1777 -0.5380  0.0581
 1090YOPC   C4B15918   6.807   7.972   6.601 -0.0860  0.0316  0.0083
 1091YOPC   NC315919  18.378  19.367   5.384  0.2745  0.0007 -0.1680
 1091YOPC   PO415920  18.284  19.823   5.298 -0.1679  0.1375 -0.0118
 1091YOPC   GL115921  18.363  19.934   5.714 -0.1866  0.2821 -0.1499
 1091YOPC   GL215922  18.205  20.193   5.817 -0.0101  0.2963 -0.0476
 1091YOPC   C1A15923  18.288  19.852   6.108  0.0531 -0.1135 -0.0310
 1091YOPC   D2A15924  18.342  19.884   6.517  0.4060 -0.1178 -0.1310
 1091YOPC   C3A15925  18.690  20.129   6.672 -0.2612 -0.0327  0.3292
 1091YOPC   C4A15926  18.786  20.580   6.762  0.0800  0.1924  0.0408
 1091YOPC   C1B15927  18.010  20.277   6.222  0.1958 -0.0576 -0.3055
 1091YOPC   C2B15928  17.668  20.143   6.416 -0.2098  0.0153  0.0375
 1091YOPC   D3B15929  17.673  19.978   6.872  0.0414  0.2163  0.1788
 1091YOPC   C4B15930  17.911  19.716   7.039 -0.2695  0.0394 -0.1186
 1092YOPC   NC315931  17.122  13.232   4.863  0.1648  0.0969  0.2174
 1092YOPC   PO415932  16.993  12.854   4.737  0.2308 -0.0187 -0.4461
 1092YOPC   GL115933  17.087  12.606   5.082  0.0841 -0.0450 -0.0981
 1092YOPC   GL215934  16.779  12.685   5.294  0.2536  0.1531  0.2258
 1092YOPC   C1A15935  17.210  12.630   5.487  0.2632  0.0107 -0.0275
 1092YOPC   D2A15936  17.020  12.932   5.852  0.3504  0.0975 -0.3157
 1092YOPC   C3A15937  16.652  12.977   6.110  0.0167  0.2509  0.5629
 1092YOPC   C4A15938  16.303  12.772   6.233 -0.4298  0.3603  0.1526
 1092YOPC   C1B15939  16.643  13.132   5.572 -0.0084  0.2878 -0.2463
 1092YOPC   C2B15940  16.858  13.417   5.801  0.3098 -0.3228 -0.1344
 1092YOPC   D3B15941  17.246  13.484   5.752  0.0148  0.2424 -0.1807
 1092YOPC   C4B15942  17.677  13.526   5.851 -0.0197  0.1331  0.1145
 1093YOPC   NC315943   2.109   7.897   4.867 -0.2030 -0.0655 -0.0254
 1093YOPC   PO415944   1.853   7.625   5.106 -0.1339  0.0049 -0.0355
 1093YOPC   GL115945   1.985   7.794   5.433  0.1088 -0.0379 -0.0596
 1093YOPC   GL215946   1.734   7.850   5.583 -0.1384 -0.0572  0.1041
 1093YOPC   C1A15947   2.220   7.964   5.729  0.1856 -0.2109  0.4551
 1093YOPC   D2A15948   2.251   8.097   6.180 -0.0665  0.4017 -0.0561
 1093YOPC   C3A15949   2.122   7.873   6.525 -0.0101 -0.1833 -0.4160
 1093YOPC   C4A15950   1.879   7.835   6.817 -0.2384  0.3206  0.0799
 1093YOPC   C1B15951   1.786   8.306   5.616  0.3773  0.1874 -0.0450
 1093YOPC   C2B15952   2.123   8.537   5.791  0.0182 -0.1376 -0.2196
 1093YOPC   D3B15953   2.480   8.497   6.063  0.0034 -0.1352  0.1877
 1093YOPC   C4B15954   2.580   8.404   6.437 -0.1173 -0.4115 -0.1487
 1094YOPC   NC315955   6.629   2.197   4.834  0.1243 -0.0558 -0.1332
 1094YOPC   PO415956   6.215   2.262   4.754 -0.2117 -0.1654 -0.2143
 1094YOPC   GL115957   6.391   2.568   5.259 -0.1677 -0.0177 -0.1126
 1094YOPC   GL215958   6.251   2.526   5.562  0.1966  0.2185 -0.0624
 1094YOPC   C1A15959   6.932   2.853   5.317  0.4262  0.0951 -0.1516
 1094YOPC   D2A15960   7.221   3.041   5.453 -0.3260  0.0930 -0.0268
 1094YOPC   C3A15961   7.307   3.271   5.729 -0.1086 -0.0095  0.0272
 1094YOPC   C4A15962   7.447   3.458   6.103 -0.1970 -0.4419 -0.0628
 1094YOPC   C1B15963   6.599   2.466   5.723 -0.0647 -0.0272  0.2392
 1094YOPC   C2B15964   7.027   2.707   5.825 -0.3025 -0.2688 -0.0710
 1094YOPC   D3B15965   7.112   3.084   6.173  0.2048 -0.0393  0.0576
 1094YOPC   C4B15966   7.201   3.183   6.560 -0.0456 -0.0869  0.1987
 1095YOPC   NC315967  17.954   2.695   5.142  0.1716 -0.4159  0.0921
 1095YOPC   PO415968  18.375   3.047   5.086 -0.0961  0.0544 -0.0360
 1095YOPC   GL115969  18.404   3.120   5.549 -0.0703  0.6410  0.1057
 1095YOPC   GL215970  18.700   3.269   5.614 -0.1704  0.2233 -0.1362
 1095YOPC   C1A15971  18.298   3.230   5.896  0.0017 -0.1905 -0.1435
 1095YOPC   D2A15972  18.292   3.186   6.327 -0.1199  0.0711  0.4207
 1095YOPC   C3A15973  18.480   3.002   6.747  0.2666 -0.1678 -0.1481
 1095YOPC   C4A15974  18.380   3.153   7.191  0.0573 -0.0978  0.0010
 1095YOPC   C1B15975  18.805   3.060   6.012 -0.1667 -0.0047  0.1786
 1095YOPC   C2B15976  18.864   2.937   6.384 -0.0689  0.1724 -0.0188
 1095YOPC   D3B15977  19.020   3.141   6.651 -0.3497 -0.0174  0.2064
 1095YOPC   C4B15978  19.002   3.406   6.986  0.2065 -0.1283  0.0880
 1096YOPC   NC315979  13.896   6.043   5.035  0.1266 -0.0272  0.1665
 1096YOPC   PO415980  14.209   6.416   5.127  0.2410  0.2847 -0.2107
 1096YOPC   GL115981  14.290   6.264   5.428  0.3170  0.0118  0.0003
 1096YOPC   GL215982  14.366   6.653   5.613  0.3108 -0.3401  0.1711
 1096YOPC   C1A15983  14.285   6.188   5.809 -0.1711 -0.0227 -0.1676
 1096YOPC   D2A15984  14.337   6.036   6.118 -0.0460 -0.0105 -0.0164
 1096YOPC   C3A15985  14.647   5.631   6.049  0.1018 -0.1868 -0.1658
 1096YOPC   C4A15986  15.031   5.587   5.985  0.2083  0.1945  0.1992
 1096YOPC   C1B15987  14.520   6.984   5.939  0.1933 -0.1246  0.1099
 1096YOPC   C2B15988  14.781   7.101   6.218  0.3412 -0.4051 -0.2983
 1096YOPC   D3B15989  15.201   7.016   6.477  0.0823 -0.2470 -0.2866
 1096YOPC   C4B15990  15.318   6.885   6.812 -0.0873  0.3200 -0.4036
 1097YOPC   NC315991   7.295  13.183   5.307 -0.0142  0.3090  0.1687
 1097YOPC   PO415992   6.904  13.302   5.271 -0.0100  0.0757  0.1464
 1097YOPC   GL115993   6.953  13.261   5.668  0.2003 -0.0959 -0.0924
 1097YOPC   GL215994   6.959  13.459   5.788 -0.0260 -0.0353 -0.0033
 1097YOPC   C1A15995   6.793  12.945   6.012  0.0878 -0.1084 -0.1580
 1097YOPC   D2A15996   6.691  12.627   6.183 -0.0987  0.2675  0.0839
 1097YOPC   C3A15997   6.645  12.663   6.558 -0.1019 -0.3122  0.0298
 1097YOPC   C4A15998   6.476  12.554   6.993  0.1327 -0.1778 -0.1037
 1097YOPC   C1B15999   7.128  13.438   6.196 -0.4565  0.2713  0.0276
 1097YOPC   C2B16000   7.057  13.348   6.479  0.1300  0.0081 -0.1168
 1097YOPC   D3B16001   6.730  13.193   6.562  0.1471 -0.0913 -0.0617
 1097YOPC   C4B16002   6.510  13.075   6.941  0.1675  0.0026 -0.2338
 1098YOPC   NC316003   2.619   7.050   4.824  0.0945  0.0295  0.2110
 1098YOPC   PO416004   2.757   7.022   5.057 -0.1494  0.1456 -0.1189
 1098YOPC   GL116005   2.737   7.025   5.546 -0.4007 -0.3229  0.3582
 1098YOPC   GL216006   2.855   6.677   5.535 -0.4933 -0.0334 -0.1105
 1098YOPC   C1A16007   2.766   7.202   5.875  0.1555  0.1228  0.4596
 1098YOPC   D2A16008   2.485   7.434   6.163 -0.0579  0.3685  0.0854
 1098YOPC   C3A16009   2.448   7.495   6.647  0.0450 -0.0155 -0.0699
 1098YOPC   C4A16010   2.414   7.827   6.912  0.1744  0.0161  0.0971
 1098YOPC   C1B16011   2.550   6.755   5.959  0.1793  0.0992 -0.5413
 1098YOPC   C2B16012   2.246   6.991   6.231 -0.1226 -0.0654  0.1828
 1098YOPC   D3B16013   2.253   6.929   6.635 -0.3116 -0.3646  0.1082
 1098YOPC   C4B16014   2.179   6.731   7.042 -0.2735 -0.1530  0.4087
 1099YOPC   NC316015   9.349   6.017   4.914 -0.0176  0.2255 -0.1513
 1099YOPC   PO416016   9.083   6.340   5.160 -0.2832 -0.0441  0.1467
 1099YOPC   GL116017   9.331   6.553   5.472 -0.0965  0.0163 -0.0343
 1099YOPC   GL216018   9.607   6.629   5.594 -0.1540  0.3108 -0.0708
 1099YOPC   C1A16019   9.409   6.405   5.994 -0.0267  0.4253  0.3690
 1099YOPC   D2A16020   9.220   6.162   6.284 -0.1916  0.0081  0.0284
 1099YOPC   C3A16021   9.412   6.037   6.691  0.1753 -0.0028 -0.0129
 1099YOPC   C4A16022   9.444   5.780   7.058 -0.1298 -0.1631  0.1111
 1099YOPC   C1B16023   9.417   6.868   5.988  0.0773  0.0485 -0.0378
 1099YOPC   C2B16024   9.480   6.802   6.382 -0.1002 -0.1974  0.0447
 1099YOPC   D3B16025   9.238   6.461   6.674  0.3250  0.1991 -0.1777
 1099YOPC   C4B16026   8.791   6.162   6.652  0.1650 -0.0520 -0.2851
 1100YOPC   NC316027   7.491  13.876   4.761  0.1240  0.2355 -0.0775
 1100YOPC   PO416028   7.485  14.129   5.107 -0.0352 -0.0317  0.2887
 1100YOPC   GL116029   7.505  14.092   5.558 -0.2847  0.0900 -0.0417
 1100YOPC   GL216030   7.199  14.049   5.686 -0.0063  0.0396  0.1231
 1100YOPC   C1A16031   7.573  14.103   6.037 -0.4618 -0.1817 -0.0387
 1100YOPC   D2A16032   7.948  14.419   6.184 -0.1026 -0.2106 -0.6013
 1100YOPC   C3A16033   7.994  14.474   6.562 -0.1917 -0.0411  0.1736
 1100YOPC   C4A16034   7.728  14.539   6.854  0.1610 -0.0986  0.0998
 1100YOPC   C1B16035   7.412  13.657   5.854  0.2460  0.2019 -0.2695
 1100YOPC   C2B16036   7.679  13.638   6.253  0.0700 -0.1533 -0.0361
 1100YOPC   D3B16037   7.570  13.533   6.535  0.1327 -0.2555 -0.2232
 1100YOPC   C4B16038   7.604  13.150   6.728 -0.0967  0.0344  0.0664
 1101YOPC   NC316039   1.073   4.909   4.979  0.0001 -0.0182  0.0021
 1101YOPC   PO416040   1.550   4.863   4.865  0.1245  0.2815  0.2230
 1101YOPC   GL116041   1.525   4.900   5.400  0.4263  0.0260  0.2657
 1101YOPC   GL216042   1.247   5.059   5.456 -0.0168 -0.0244  0.0426
 1101YOPC   C1A16043   1.708   5.145   5.721  0.1160 -0.3188  0.0406
 1101YOPC   D2A16044   1.813   5.124   6.120  0.1921  0.2995 -0.0140
 1101YOPC   C3A16045   1.754   4.874   6.380  0.4540  0.1339  0.2932
 1101YOPC   C4A16046   1.572   4.524   6.834 -0.0476 -0.2336  0.3279
 1101YOPC   C1B16047   1.145   4.617   5.594 -0.3668  0.2976 -0.2162
 1101YOPC   C2B16048   1.186   4.501   6.007 -0.0706  0.3378 -0.1783
 1101YOPC   D3B16049   1.539   4.473   6.229  0.2420  0.1455 -0.0386
 1101YOPC   C4B16050   1.947   4.313   6.369 -0.0636 -0.2261 -0.1486
 1102YOPC   NC316051  19.583   9.950   5.081  0.1038 -0.1552 -0.1015
 1102YOPC   PO416052  19.272  10.288   5.154  0.0233  0.0243  0.0549
 1102YOPC   GL116053  19.319  10.067   5.506 -0.1936 -0.0184  0.0511
 1102YOPC   GL216054  19.637  10.057   5.581  0.1399 -0.0430  0.0303
 1102YOPC   C1A16055  19.200  10.184   5.977 -0.1351 -0.0310 -0.0467
 1102YOPC   D2A16056  18.973  10.074   6.336 -0.1304 -0.1617  0.1959
 1102YOPC   C3A16057  18.915  10.238   6.792 -0.1480  0.3964 -0.1327
 1102YOPC   C4A16058  19.035  10.440   7.212 -0.1058  0.1620 -0.0758
 1102YOPC   C1B16059  19.659  10.063   6.065  0.3604 -0.3821 -0.0617
 1102YOPC   C2B16060  19.872  10.193   6.493  0.0758  0.1692 -0.0037
 1102YOPC   D3B16061  20.172  10.014   6.656 -0.3099 -0.1065 -0.3174
 1102YOPC   C4B16062  20.651  10.082   6.543 -0.2348  0.0778  0.0039
 1103YOPC   NC316063  17.111   9.820   4.511 -0.2772  0.0039  0.0547
 1103YOPC   PO416064  16.605   9.940   4.665  0.2061  0.0481  0.1964
 1103YOPC   GL116065  16.683   9.856   5.175 -0.0523 -0.2130 -0.1902
 1103YOPC   GL216066  16.993  10.000   5.115 -0.0098  0.1014  0.0572
 1103YOPC   C1A16067  17.076   9.615   5.408  0.0611  0.2149  0.0516
 1103YOPC   D2A16068  17.226   9.691   5.864 -0.2911  0.2603  0.2219
 1103YOPC   C3A16069  17.120   9.503   6.237  0.0147 -0.1920 -0.0161
 1103YOPC   C4A16070  17.136   9.232   6.539  0.0130 -0.2150 -0.1833
 1103YOPC   C1B16071  16.837   9.993   5.648 -0.2282  0.2222 -0.3403
 1103YOPC   C2B16072  16.565   9.747   5.944  0.3216 -0.0228 -0.0247
 1103YOPC   D3B16073  16.674   9.738   6.368  0.1108 -0.3138  0.1864
 1103YOPC   C4B16074  16.590   9.433   6.555 -0.2629 -0.1308 -0.1342
 1104YOPC   NC316075   0.322  13.102   5.263 -0.1575 -0.3704  0.1650
 1104YOPC   PO416076   0.333  13.586   5.308 -0.0482  0.1462 -0.2287
 1104YOPC   GL116077   0.388  13.725   5.658  0.0762  0.3594 -0.1546
 1104YOPC   GL216078   0.428  13.364   5.731 -0.3300  0.0526  0.1237
 1104YOPC   C1A16079   0.513  13.969   6.059  0.2183  0.1246  0.1234
 1104YOPC   D2A16080   0.219  14.117   6.274 -0.1765 -0.0163  0.1937
 1104YOPC   C3A16081  -0.121  14.004   6.462 -0.2547  0.1554 -0.1316
 1104YOPC   C4A16082  -0.417  13.672   6.445  0.0473  0.1484  0.0224
 1104YOPC   C1B16083   0.149  13.120   6.025 -0.0374  0.0903  0.1470
 1104YOPC   C2B16084   0.296  12.906   6.355  0.1289 -0.0226 -0.2293
 1104YOPC   D3B16085   0.189  12.958   6.834  0.0223 -0.0904  0.0670
 1104YOPC   C4B16086   0.354  13.193   7.234  0.1565  0.0010 -0.1364
 1105YOPC   NC316087   6.756  11.379   4.962  0.0935 -0.2115  0.0608
 1105YOPC   PO416088   7.067  11.136   5.112 -0.0204 -0.0900 -0.0021
 1105YOPC   GL116089   7.167  11.234   5.525 -0.3498  0.0053 -0.0383
 1105YOPC   GL216090   7.115  10.898   5.633  0.1353  0.2751  0.1630
 1105YOPC   C1A16091   7.105  11.631   5.856  0.1964 -0.0166  0.2377
 1105YOPC   D2A16092   7.180  11.888   6.179  0.1116 -0.1312  0.1374
 1105YOPC   C3A16093   7.323  11.843   6.493  0.0443 -0.0306 -0.2672
 1105YOPC   C4A16094   7.587  11.568   6.837  0.1758  0.0923 -0.0449
 1105YOPC   C1B16095   6.959  10.575   5.881  0.0654  0.0648 -0.1063
 1105YOPC   C2B16096   6.763  10.710   6.268 -0.0313 -0.1007  0.1884
 1105YOPC   D3B16097   6.538  10.388   6.571 -0.2111 -0.2465 -0.0480
 1105YOPC   C4B16098   6.227  10.319   6.919 -0.0681 -0.0825  0.1652
 1106YOPC   NC316099   3.230   0.792   4.818 -0.0583  0.0304  0.0200
 1106YOPC   PO416100   3.524   0.832   5.040  0.2611  0.1608 -0.0027
 1106YOPC   GL116101   3.287   1.018   5.363  0.3592 -0.0632  0.1519
 1106YOPC   GL216102   3.436   1.216   5.700  0.1598 -0.1139  0.0498
 1106YOPC   C1A16103   3.135   0.773   5.650  0.0641 -0.1470 -0.1018
 1106YOPC   D2A16104   2.901   0.840   5.950 -0.0150  0.0860 -0.1080
 1106YOPC   C3A16105   2.848   1.220   6.172 -0.3146 -0.1743  0.2566
 1106YOPC   C4A16106   2.737   1.460   6.445  0.0621  0.0706 -0.1622
 1106YOPC   C1B16107   3.475   1.472   6.114 -0.0055 -0.0038  0.2097
 1106YOPC   C2B16108   3.110   1.772   6.306 -0.0377  0.0024 -0.0613
 1106YOPC   D3B16109   2.950   2.079   6.019 -0.0741  0.0025  0.0744
 1106YOPC   C4B16110   2.863   2.421   6.110 -0.0432  0.1374 -0.2687
 1107YOPC   NC316111  14.175   4.251   4.999  0.0238  0.1050  0.2635
 1107YOPC   PO416112  14.578   4.029   4.919 -0.0592  0.2463 -0.0321
 1107YOPC   GL116113  14.581   4.227   5.309 -0.2898  0.0641 -0.2132
 1107YOPC   GL216114  14.754   4.553   5.486 -0.0658  0.2135  0.0138
 1107YOPC   C1A16115  14.296   4.274   5.698  0.0461  0.3329  0.1756
 1107YOPC   D2A16116  14.131   4.318   6.026 -0.0725  0.2959  0.0718
 1107YOPC   C3A16117  14.382   4.477   6.339  0.2122  0.4541  0.1173
 1107YOPC   C4A16118  14.699   4.686   6.333  0.0190 -0.0296  0.1355
 1107YOPC   C1B16119  14.940   4.929   5.743  0.0841  0.3051  0.0215
 1107YOPC   C2B16120  14.913   5.096   6.160 -0.1679  0.1821 -0.0445
 1107YOPC   D3B16121  14.429   5.069   6.236 -0.3139  0.4175  0.1382
 1107YOPC   C4B16122  14.205   4.965   6.646  0.1981  0.3344  0.2950
 1108YOPC   NC316123   9.954  14.125   4.783 -0.1346  0.2014  0.4417
 1108YOPC   PO416124  10.036  14.424   5.209  0.2266 -0.3049 -0.2573
 1108YOPC   GL116125   9.815  14.536   5.602  0.2505 -0.2127  0.0476
 1108YOPC   GL216126   9.521  14.544   5.780  0.1600  0.0830  0.1014
 1108YOPC   C1A16127   9.860  14.615   6.090 -0.3164  0.2002  0.0354
 1108YOPC   D2A16128  10.022  14.804   6.264 -0.0172  0.1261 -0.0825
 1108YOPC   C3A16129  10.174  14.533   6.549  0.2726 -0.1637  0.0674
 1108YOPC   C4A16130  10.611  14.452   6.814 -0.4835  0.2489 -0.4683
 1108YOPC   C1B16131   9.411  14.358   6.019 -0.1213  0.1882  0.2538
 1108YOPC   C2B16132   9.321  14.302   6.472 -0.0471 -0.0653  0.1945
 1108YOPC   D3B16133   9.597  14.580   6.560 -0.0879 -0.2104 -0.2305
 1108YOPC   C4B16134   9.871  14.951   6.678 -0.1991  0.0205 -0.0849
 1109YOPC   NC316135   5.343  17.537   5.144 -0.3031  0.3989 -0.0195
 1109YOPC   PO416136   5.344  17.130   5.045 -0.1224  0.2261  0.2674
 1109YOPC   GL116137   5.224  17.172   5.489 -0.0046 -0.0834 -0.2231
 1109YOPC   GL216138   5.214  16.809   5.579 -0.2287 -0.1132 -0.1894
 1109YOPC   C1A16139   5.189  17.350   5.945 -0.0075 -0.1448  0.2610
 1109YOPC   D2A16140   5.498  17.335   6.316  0.2844 -0.0042  0.2020
 1109YOPC   C3A16141   5.541  16.971   6.464  0.0938  0.1288 -0.0136
 1109YOPC   C4A16142   5.642  16.645   6.741 -0.4055  0.0621 -0.2850
 1109YOPC   C1B16143   5.195  16.816   6.075  0.1678  0.0695  0.1103
 1109YOPC   C2B16144   5.104  16.801   6.490  0.1195  0.0279 -0.4787
 1109YOPC   D3B16145   5.047  17.070   6.734 -0.0908 -0.0163  0.2173
 1109YOPC   C4B16146   5.184  17.420   6.920  0.0591 -0.2810 -0.4196
 1110YOPC   NC316147   1.752   7.063   4.428 -0.1838  0.0652 -0.4237
 1110YOPC   PO416148   1.834   7.048   4.904  0.1590  0.1052  0.1895
 1110YOPC   GL116149   1.840   7.119   5.317 -0.0296  0.1341  0.3158
 1110YOPC   GL216150   1.583   7.389   5.404  0.2372  0.0036 -0.1852
 1110YOPC   C1A16151   1.620   6.973   5.760  0.0765 -0.2287  0.0691
 1110YOPC   D2A16152   1.380   6.611   5.901  0.0085  0.0359 -0.0221
 1110YOPC   C3A16153   1.140   6.482   6.293  0.0270 -0.3502  0.0558
 1110YOPC   C4A16154   1.313   6.796   6.614  0.0859  0.1416  0.1767
 1110YOPC   C1B16155   1.442   7.432   5.914  0.1062  0.1308 -0.0001
 1110YOPC   C2B16156   1.111   7.455   6.236  0.0952 -0.0914 -0.0935
 1110YOPC   D3B16157   1.264   7.378   6.664 -0.1864  0.2908 -0.1392
 1110YOPC   C4B16158   1.572   7.476   6.974  0.5322 -0.1009 -0.1375
 1111YOPC   NC316159   0.419  14.697   4.883 -0.0762  0.0354 -0.0390
 1111YOPC   PO416160   0.868  14.642   5.127  0.0072  0.2500  0.0940
 1111YOPC   GL116161   0.779  14.569   5.478  0.0668 -0.3045 -0.0313
 1111YOPC   GL216162   0.780  14.307   5.698 -0.3940 -0.1732  0.2963
 1111YOPC   C1A16163   0.903  14.815   5.858  0.1914  0.0012 -0.0319
 1111YOPC   D2A16164   0.949  14.868   6.374  0.3680  0.1640  0.4765
 1111YOPC   C3A16165   0.921  15.076   6.841  0.0279 -0.0449  0.2159
 1111YOPC   C4A16166   0.946  14.633   7.106 -0.3006 -0.0968 -0.1135
 1111YOPC   C1B16167   0.688  14.434   6.082  0.1199  0.0747  0.1816
 1111YOPC   C2B16168   0.830  14.328   6.327 -0.0431  0.0301  0.1895
 1111YOPC   D3B16169   0.631  14.285   6.626 -0.0426  0.1684 -0.0288
 1111YOPC   C4B16170   0.436  14.496   6.966  0.2904  0.1943 -0.0451
 1112YOPC   NC316171  19.590  12.104   5.279  0.4015 -0.1122 -0.2474
 1112YOPC   PO416172  19.220  12.422   5.087  0.2302 -0.4251 -0.6758
 1112YOPC   GL116173  19.122  12.547   5.403  0.0816 -0.2008  0.0026
 1112YOPC   GL216174  19.297  12.928   5.389  0.2638 -0.1011  0.1330
 1112YOPC   C1A16175  18.931  12.390   5.860  0.0129 -0.0941  0.2309
 1112YOPC   D2A16176  18.851  12.294   6.216  0.1981 -0.3407  0.0304
 1112YOPC   C3A16177  19.106  12.044   6.493  0.1929  0.1785  0.3752
 1112YOPC   C4A16178  19.223  11.672   6.334  0.1551 -0.2067  0.0502
 1112YOPC   C1B16179  19.268  12.786   5.818  0.0999 -0.1365  0.4194
 1112YOPC   C2B16180  19.062  12.770   6.283 -0.1622 -0.0698 -0.1023
 1112YOPC   D3B16181  19.243  13.075   6.600 -0.0485  0.0920  0.1400
 1112YOPC   C4B16182  19.241  13.364   6.828  0.0154 -0.2395  0.1757
 1113YOPC   NC316183   5.866  18.269   5.335 -0.1182  0.2768 -0.1134
 1113YOPC   PO416184   5.827  18.694   5.509 -0.1212  0.0247 -0.1077
 1113YOPC   GL116185   5.972  18.931   5.950  0.0674 -0.0986  0.0787
 1113YOPC   GL216186   6.323  19.022   6.097  0.0032  0.1994 -0.0294
 1113YOPC   C1A16187   5.748  19.269   6.146  0.0252 -0.1057 -0.1154
 1113YOPC   D2A16188   5.432  19.237   6.360 -0.2205  0.3088 -0.0154
 1113YOPC   C3A16189   5.265  19.572   6.521 -0.1154 -0.4217 -0.2841
 1113YOPC   C4A16190   5.221  19.823   6.854 -0.3127  0.2335  0.1108
 1113YOPC   C1B16191   6.556  18.975   6.427 -0.2689 -0.3269  0.1299
 1113YOPC   C2B16192   6.898  19.211   6.695  0.0918 -0.2840  0.0728
 1113YOPC   D3B16193   6.669  19.401   7.019 -0.0332 -0.0917 -0.0340
 1113YOPC   C4B16194   6.575  19.867   7.120  0.0850  0.1379  0.2482
 1114YOPC   NC316195   1.404  11.719   4.941  0.1494 -0.0368 -0.0915
 1114YOPC   PO416196   1.251  11.477   5.147  0.1283 -0.0916  0.1689
 1114YOPC   GL116197   1.424  11.302   5.473 -0.1843  0.2492  0.0751
 1114YOPC   GL216198   1.310  10.995   5.413 -0.1546  0.6091  0.0712
 1114YOPC   C1A16199   1.304  11.198   5.909 -0.2250 -0.0376  0.1650
 1114YOPC   D2A16200   1.562  11.252   6.256 -0.1917 -0.1001  0.0058
 1114YOPC   C3A16201   1.470  11.270   6.735 -0.1472 -0.0396 -0.0818
 1114YOPC   C4A16202   1.398  11.422   7.071  0.2273 -0.4578 -0.1311
 1114YOPC   C1B16203   1.127  10.750   5.797  0.0760  0.3392  0.1803
 1114YOPC   C2B16204   1.016  10.473   6.148 -0.4490  0.2626  0.0850
 1114YOPC   D3B16205   1.124  10.350   6.582 -0.3117 -0.0273 -0.1650
 1114YOPC   C4B16206   1.147  10.202   6.981  0.1689 -0.0022 -0.0561
 1115YOPC   NC316207  16.072   7.756   4.605  0.0282 -0.0273  0.0123
 1115YOPC   PO416208  16.271   7.951   4.982 -0.0889 -0.2603  0.3287
 1115YOPC   GL116209  16.596   7.887   5.265 -0.0823  0.0026  0.0111
 1115YOPC   GL216210  16.839   7.598   5.308 -0.0219 -0.0347 -0.3253
 1115YOPC   C1A16211  16.503   8.055   5.706  0.1781 -0.1151  0.4754
 1115YOPC   D2A16212  16.414   8.163   6.032 -0.0446 -0.2167  0.1290
 1115YOPC   C3A16213  16.480   7.906   6.369  0.0077  0.4147 -0.0830
 1115YOPC   C4A16214  16.244   8.029   6.759 -0.0732 -0.0175  0.1482
 1115YOPC   C1B16215  16.947   7.571   5.737  0.0635 -0.0667  0.1803
 1115YOPC   C2B16216  16.757   7.620   6.102 -0.0673 -0.3420  0.1004
 1115YOPC   D3B16217  16.451   7.288   6.231 -0.2711 -0.1529 -0.0856
 1115YOPC   C4B16218  16.026   7.093   6.236  0.2215 -0.1225  0.0063
 1116YOPC   NC316219  13.079   2.647   4.152  0.0733  0.0385  0.1712
 1116YOPC   PO416220  13.121   2.570   4.531 -0.0023  0.1461 -0.1924
 1116YOPC   GL116221  13.251   2.505   4.946 -0.1452  0.1031 -0.2047
 1116YOPC   GL216222  13.072   2.570   5.177  0.3067 -0.5109 -0.3057
 1116YOPC   C1A16223  13.575   2.390   5.272 -0.2766 -0.1593  0.0948
 1116YOPC   D2A16224  13.854   2.353   5.575 -0.0157 -0.2027  0.0787
 1116YOPC   C3A16225  14.162   2.120   5.825  0.0864  0.1777  0.2885
 1116YOPC   C4A16226  14.444   2.183   6.250  0.1158 -0.1187 -0.1864
 1116YOPC   C1B16227  13.335   2.880   5.307 -0.3973 -0.2375  0.1225
 1116YOPC   C2B16228  13.750   2.920   5.496  0.0191  0.0326  0.3355
 1116YOPC   D3B16229  13.941   3.246   5.724 -0.3593 -0.0753 -0.4145
 1116YOPC   C4B16230  14.260   3.378   6.036 -0.3666 -0.4054  0.0685
 1117YOPC   NC316231  16.401  15.994   4.910 -0.2972  0.0671 -0.2371
 1117YOPC   PO416232  16.331  15.554   4.724 -0.2418  0.1958 -0.0350
 1117YOPC   GL116233  16.204  15.628   5.123 -0.0046  0.0565 -0.2953
 1117YOPC   GL216234  16.351  15.339   5.391  0.1989 -0.0654  0.0749
 1117YOPC   C1A16235  15.817  15.690   5.486 -0.3138 -0.0312  0.0872
 1117YOPC   D2A16236  15.833  15.508   5.908 -0.1154  0.0223  0.2852
 1117YOPC   C3A16237  15.624  15.184   6.067  0.1154  0.0797 -0.1308
 1117YOPC   C4A16238  15.407  15.036   6.428  0.1629  0.4998 -0.0727
 1117YOPC   C1B16239  16.299  15.386   5.895 -0.0534  0.0694  0.2926
 1117YOPC   C2B16240  16.074  15.168   6.257 -0.1099 -0.1069  0.3354
 1117YOPC   D3B16241  16.216  15.084   6.706 -0.0299 -0.1164 -0.0990
 1117YOPC   C4B16242  16.379  15.278   7.135  0.1627 -0.1838  0.3912
 1118YOPC   NC316243   3.770   5.358   4.667 -0.2216 -0.0430 -0.0225
 1118YOPC   PO416244   3.887   5.608   5.043  0.4484  0.2381 -0.2725
 1118YOPC   GL116245   4.048   5.640   5.475 -0.1244 -0.2789 -0.3594
 1118YOPC   GL216246   3.862   5.590   5.708 -0.0613  0.0649 -0.0048
 1118YOPC   C1A16247   4.011   6.090   5.705  0.2315 -0.0716  0.0644
 1118YOPC   D2A16248   4.146   6.311   6.021  0.0253  0.2046  0.1840
 1118YOPC   C3A16249   4.036   6.660   6.227  0.1359  0.1387  0.1662
 1118YOPC   C4A16250   3.815   7.031   6.434 -0.3561 -0.2204 -0.0255
 1118YOPC   C1B16251   3.856   5.809   6.147 -0.2478  0.0183 -0.1097
 1118YOPC   C2B16252   3.790   5.583   6.495 -0.3358 -0.0927  0.1990
 1118YOPC   D3B16253   3.907   5.353   6.716  0.1153 -0.2182  0.2047
 1118YOPC   C4B16254   3.897   5.228   7.189 -0.1133 -0.2543  0.1801
 1119YOPC   NC316255  11.900   2.730   4.369 -0.0693  0.3113 -0.0513
 1119YOPC   PO416256  11.641   2.509   4.733  0.5006 -0.0414  0.3617
 1119YOPC   GL116257  11.623   2.171   5.165  0.1388 -0.1098  0.0407
 1119YOPC   GL216258  11.365   2.090   5.191  0.2968 -0.1163 -0.0138
 1119YOPC   C1A16259  11.545   2.288   5.674  0.0040 -0.0124  0.0864
 1119YOPC   D2A16260  11.833   2.583   5.759  0.1980  0.1344 -0.4762
 1119YOPC   C3A16261  11.683   2.798   6.076  0.1971  0.0073  0.0041
 1119YOPC   C4A16262  11.592   2.672   6.528 -0.3857 -0.5236  0.1169
 1119YOPC   C1B16263  11.498   1.814   5.491  0.2593  0.0404 -0.2485
 1119YOPC   C2B16264  11.391   1.695   5.877  0.1954 -0.0835 -0.0058
 1119YOPC   D3B16265  11.272   1.858   6.294 -0.0557  0.3953 -0.1601
 1119YOPC   C4B16266  11.002   1.872   6.565  0.2270  0.0275  0.1403
 1120YOPC   NC316267  10.953   4.850   5.023 -0.1746 -0.3665 -0.0299
 1120YOPC   PO416268  11.234   4.615   4.865 -0.1421  0.0977 -0.0751
 1120YOPC   GL116269  11.247   4.545   5.285  0.1270 -0.0011 -0.3097
 1120YOPC   GL216270  11.370   4.794   5.417  0.0370 -0.3126 -0.5708
 1120YOPC   C1A16271  10.968   4.521   5.691  0.1259  0.1183  0.1337
 1120YOPC   D2A16272  10.616   4.301   5.762  0.0479  0.2156  0.2384
 1120YOPC   C3A16273  10.598   4.284   6.222  0.0108 -0.2776 -0.2791
 1120YOPC   C4A16274  10.419   4.240   6.566  0.2224 -0.1647  0.0891
 1120YOPC   C1B16275  11.434   4.616   5.838 -0.0967  0.0631 -0.1493
 1120YOPC   C2B16276  11.222   4.464   6.178 -0.2720  0.0074  0.2635
 1120YOPC   D3B16277  11.366   4.465   6.643 -0.1014 -0.2317  0.2163
 1120YOPC   C4B16278  11.359   4.119   6.885 -0.0183 -0.3102 -0.1030
 1121YOPC   NC316279  11.943  12.716   5.267 -0.2967  0.1240  0.4402
 1121YOPC   PO416280  12.213  12.431   5.087  0.0471 -0.0641 -0.2576
 1121YOPC   GL116281  12.274  12.209   5.386  0.0015 -0.1277  0.2061
 1121YOPC   GL216282  12.514  12.326   5.668 -0.0130 -0.5048  0.1477
 1121YOPC   C1A16283  12.131  12.011   5.720 -0.0552 -0.1379 -0.2498
 1121YOPC   D2A16284  12.029  11.700   6.065  0.0398  0.0461 -0.1385
 1121YOPC   C3A16285  11.787  11.849   6.467 -0.0762 -0.0659 -0.3525
 1121YOPC   C4A16286  11.820  12.211   6.575  0.4311 -0.0694  0.0111
 1121YOPC   C1B16287  12.867  12.059   5.794  0.0149 -0.1929  0.1352
 1121YOPC   C2B16288  13.031  11.675   5.697  0.3528 -0.2729  0.1994
 1121YOPC   D3B16289  13.471  11.547   5.976  0.1071 -0.3069  0.2321
 1121YOPC   C4B16290  13.849  11.463   5.847  0.2431 -0.1031 -0.0142
 1122YOPC   NC316291   0.626  17.194   5.245 -0.3321 -0.1228  0.0348
 1122YOPC   PO416292   0.780  17.492   5.037  0.0881 -0.0693  0.0711
 1122YOPC   GL116293   0.693  17.641   5.530 -0.3564  0.0539 -0.3092
 1122YOPC   GL216294   0.427  17.883   5.609 -0.2601  0.1254 -0.0518
 1122YOPC   C1A16295   0.778  17.547   5.851  0.5432  0.3192 -0.0448
 1122YOPC   D2A16296   0.807  17.433   6.237  0.1721 -0.1896 -0.2398
 1122YOPC   C3A16297   1.051  17.069   6.222  0.0713 -0.0599  0.2358
 1122YOPC   C4A16298   1.251  16.804   6.048  0.1154  0.1190 -0.2945
 1122YOPC   C1B16299   0.564  18.200   5.839  0.1125  0.1182 -0.1363
 1122YOPC   C2B16300   0.501  18.488   6.182 -0.1630  0.0139 -0.0477
 1122YOPC   D3B16301   0.514  18.360   6.552  0.3974  0.2432 -0.0817
 1122YOPC   C4B16302   0.258  18.603   6.861 -0.2983  0.0690 -0.5405
 1123YOPC   NC316303  18.825  17.038   4.941 -0.1069  0.0848  0.2763
 1123YOPC   PO416304  18.553  16.624   4.873  0.2126  0.4543 -0.0893
 1123YOPC   GL116305  18.737  16.510   5.240 -0.0166  0.0003  0.1427
 1123YOPC   GL216306  18.673  16.817   5.394 -0.1049  0.1134 -0.1322
 1123YOPC   C1A16307  18.664  16.415   5.696 -0.1510  0.1291  0.3136
 1123YOPC   D2A16308  18.521  16.496   6.127  0.0089  0.6091  0.0172
 1123YOPC   C3A16309  18.358  16.840   6.035 -0.2167 -0.0497 -0.0262
 1123YOPC   C4A16310  18.375  17.128   5.616  0.1389 -0.0013 -0.0164
 1123YOPC   C1B16311  18.839  16.865   5.770 -0.0019  0.0146  0.0348
 1123YOPC   C2B16312  18.930  16.862   6.177  0.2067 -0.1842 -0.0348
 1123YOPC   D3B16313  18.674  16.912   6.464  0.2680 -0.1373  0.0382
 1123YOPC   C4B16314  18.409  16.566   6.633  0.2127  0.0078  0.2914
 1124YOPC   NC316315  18.743  14.594   4.691 -0.2837 -0.1839 -0.0026
 1124YOPC   PO416316  18.654  14.984   4.831  0.3474  0.2180  0.1403
 1124YOPC   GL116317  18.434  15.004   5.170  0.0049  0.0835  0.4034
 1124YOPC   GL216318  18.452  14.733   5.480  0.4878 -0.1014  0.2703
 1124YOPC   C1A16319  18.275  15.280   5.445 -0.2322 -0.1131  0.1465
 1124YOPC   D2A16320  18.431  15.432   5.858 -0.3232 -0.0726 -0.1874
 1124YOPC   C3A16321  18.567  15.696   6.279  0.2814  0.3150  0.1958
 1124YOPC   C4A16322  18.242  15.735   6.590 -0.0573  0.1494 -0.1701
 1124YOPC   C1B16323  18.627  14.927   5.776  0.0627 -0.4382 -0.0469
 1124YOPC   C2B16324  18.869  15.289   5.895 -0.3610  0.1402  0.3298
 1124YOPC   D3B16325  19.401  15.382   5.968 -0.2878 -0.2560  0.1866
 1124YOPC   C4B16326  19.666  15.465   6.373 -0.1806 -0.1626  0.0101
 1125YOPC   NC316327   4.653   9.509   5.280 -0.1941  0.0631  0.4161
 1125YOPC   PO416328   4.997   9.283   5.543  0.0005 -0.0949 -0.0391
 1125YOPC   GL116329   5.034   9.180   6.007  0.0590 -0.0786  0.0178
 1125YOPC   GL216330   4.775   9.107   6.228  0.1399 -0.1118  0.1071
 1125YOPC   C1A16331   5.219   9.446   6.293  0.1243 -0.0787 -0.0359
 1125YOPC   D2A16332   5.176   9.306   6.629 -0.0670  0.1634  0.0302
 1125YOPC   C3A16333   5.487   9.544   6.759 -0.1160 -0.0962 -0.0809
 1125YOPC   C4A16334   5.496  10.013   6.913  0.1187 -0.1065  0.0146
 1125YOPC   C1B16335   4.832   8.937   6.581 -0.0885 -0.2247  0.1140
 1125YOPC   C2B16336   4.940   9.043   7.038 -0.0340  0.0934 -0.0929
 1125YOPC   D3B16337   5.342   9.279   7.198 -0.0628 -0.3544  0.1871
 1125YOPC   C4B16338   5.705   8.992   7.336 -0.0006 -0.1119  0.0396
 1126YOPC   NC316339  12.267   8.811   4.418  0.0844 -0.0007 -0.4157
 1126YOPC   PO416340  12.519   8.698   4.706  0.0210  0.0251 -0.1930
 1126YOPC   GL116341  12.340   8.822   5.147 -0.0618  0.2618 -0.0662
 1126YOPC   GL216342  12.613   8.940   5.208  0.0341  0.2777 -0.4839
 1126YOPC   C1A16343  11.940   8.916   5.488 -0.1077 -0.1813  0.0554
 1126YOPC   D2A16344  11.880   9.303   5.762  0.5174  0.2457  0.0286
 1126YOPC   C3A16345  11.613   9.141   6.138  0.1211  0.0775 -0.0040
 1126YOPC   C4A16346  11.483   9.008   6.611  0.0906 -0.0189  0.1367
 1126YOPC   C1B16347  12.499   8.702   5.633 -0.0365 -0.0451 -0.2191
 1126YOPC   C2B16348  12.579   8.508   6.009 -0.0074  0.1145 -0.0996
 1126YOPC   D3B16349  12.308   8.664   6.338  0.2948 -0.2853 -0.1157
 1126YOPC   C4B16350  12.483   9.004   6.643 -0.2071 -0.2262 -0.1449
 1127YOPC   NC316351   7.770  14.565   5.188  0.0089  0.0215  0.0906
 1127YOPC   PO416352   8.117  14.845   5.331 -0.2639 -0.0120 -0.1709
 1127YOPC   GL116353   8.011  15.112   5.665 -0.2318 -0.2775  0.2323
 1127YOPC   GL216354   8.178  15.044   5.900  0.0547 -0.0490  0.1488
 1127YOPC   C1A16355   7.725  15.464   5.765  0.1324 -0.2514  0.0605
 1127YOPC   D2A16356   7.550  15.769   5.919  0.2016 -0.0432  0.0659
 1127YOPC   C3A16357   7.206  16.094   5.847 -0.0482  0.0531  0.0461
 1127YOPC   C4A16358   6.932  16.095   5.558  0.0519 -0.2040 -0.3368
 1127YOPC   C1B16359   8.669  15.023   5.988 -0.1106  0.0478 -0.0968
 1127YOPC   C2B16360   9.110  14.819   6.001  0.1053  0.2828 -0.0432
 1127YOPC   D3B16361   9.181  14.846   6.376 -0.1849 -0.2842  0.0137
 1127YOPC   C4B16362   9.393  14.949   6.773 -0.0185  0.0377  0.1168
 1128YOPC   NC316363  11.529  11.316   4.846  0.0377  0.1223 -0.3789
 1128YOPC   PO416364  11.400  11.686   5.083  0.1622  0.2065  0.0328
 1128YOPC   GL116365  11.099  11.656   5.544 -0.0948  0.1009 -0.0340
 1128YOPC   GL216366  10.870  11.941   5.567 -0.1897  0.0469 -0.1774
 1128YOPC   C1A16367  11.008  11.811   6.041 -0.0329 -0.3042  0.2931
 1128YOPC   D2A16368  11.111  11.671   6.468 -0.0080 -0.1211  0.3627
 1128YOPC   C3A16369  11.138  11.346   6.693  0.0880  0.0574 -0.3063
 1128YOPC   C4A16370  11.116  10.946   6.995 -0.1341  0.2322  0.0347
 1128YOPC   C1B16371  10.562  12.128   5.781  0.2053 -0.0853 -0.2734
 1128YOPC   C2B16372  10.329  12.194   6.088  0.2250  0.0663 -0.1624
 1128YOPC   D3B16373  10.308  11.872   6.383  0.2450  0.2092  0.0406
 1128YOPC   C4B16374  10.139  11.626   6.852 -0.1576  0.0935  0.0545
 1129YOPC   NC316375  15.832  12.369   3.910  0.0773  0.1610  0.0514
 1129YOPC   PO416376  16.060  12.506   4.321  0.0695 -0.2220 -0.1699
 1129YOPC   GL116377  16.159  12.639   4.765 -0.4813 -0.3373 -0.2947
 1129YOPC   GL216378  16.250  12.903   4.787 -0.1322  0.0733  0.0750
 1129YOPC   C1A16379  16.179  12.695   5.230  0.0598 -0.0786 -0.1519
 1129YOPC   D2A16380  16.262  12.722   5.650  0.1687 -0.0475 -0.0345
 1129YOPC   C3A16381  16.010  12.978   5.924 -0.3160 -0.2803  0.0637
 1129YOPC   C4A16382  16.057  13.239   6.313 -0.0197 -0.1280  0.0614
 1129YOPC   C1B16383  16.130  13.166   5.221  0.0914  0.1311 -0.0628
 1129YOPC   C2B16384  15.865  13.109   5.497 -0.0165  0.2288 -0.1312
 1129YOPC   D3B16385  15.510  12.813   5.527  0.1366 -0.1151 -0.0747
 1129YOPC   C4B16386  15.364  12.458   5.792 -0.1515 -0.0209  0.2963
 1130YOPC   NC316387  19.413  11.325   5.060  0.1558  0.1075  0.3230
 1130YOPC   PO416388  19.052  11.420   5.155 -0.1893  0.1349  0.1120
 1130YOPC   GL116389  18.824  11.495   5.521  0.1826  0.0426  0.0506
 1130YOPC   GL216390  18.577  11.350   5.535  0.0234 -0.4567  0.0789
 1130YOPC   C1A16391  18.888  11.346   6.019  0.0626 -0.0570  0.3221
 1130YOPC   D2A16392  18.832  11.036   6.251  0.1894 -0.1223 -0.0177
 1130YOPC   C3A16393  18.922  10.901   6.646  0.1188  0.1946  0.3867
 1130YOPC   C4A16394  19.034  11.092   7.034  0.0035 -0.1714  0.0369
 1130YOPC   C1B16395  18.428  11.560   5.902 -0.0947 -0.3266 -0.3326
 1130YOPC   C2B16396  18.558  11.544   6.370 -0.2084 -0.1229  0.1747
 1130YOPC   D3B16397  18.444  11.203   6.660  0.0210  0.1124  0.0463
 1130YOPC   C4B16398  18.396  10.975   6.990  0.0339  0.1232  0.1948
 1131YOPC   NC316399   9.936   1.113   4.993 -0.1881  0.2600 -0.1716
 1131YOPC   PO416400   9.498   1.322   4.862 -0.0587  0.2148  0.1041
 1131YOPC   GL116401   9.757   1.444   5.286 -0.0417  0.2574 -0.1432
 1131YOPC   GL216402   9.946   1.214   5.473 -0.0663 -0.2511  0.2166
 1131YOPC   C1A16403   9.651   1.577   5.706 -0.2850 -0.1384  0.0524
 1131YOPC   D2A16404   9.734   1.562   6.202 -0.0487 -0.1760  0.2484
 1131YOPC   C3A16405   9.496   1.853   6.469 -0.3092  0.0063 -0.0306
 1131YOPC   C4A16406   9.112   1.981   6.753  0.2144  0.0767  0.0124
 1131YOPC   C1B16407   9.883   1.132   5.930 -0.0812  0.0181 -0.0653
 1131YOPC   C2B16408   9.757   1.108   6.332 -0.2966 -0.4039 -0.1329
 1131YOPC   D3B16409   9.784   0.805   6.735  0.0406 -0.0896  0.5386
 1131YOPC   C4B16410  10.101   0.423   6.780 -0.3838  0.3397  0.1553
 1132YOPC   NC316411   6.790   5.739   4.674  0.1960 -0.0447  0.2624
 1132YOPC   PO416412   6.612   5.696   5.003 -0.0860  0.0327  0.2990
 1132YOPC   GL116413   6.760   5.406   5.314 -0.1372  0.2359 -0.0424
 1132YOPC   GL216414   6.686   5.146   5.184  0.0222 -0.2691 -0.2118
 1132YOPC   C1A16415   6.670   5.473   5.696  0.0123 -0.0437  0.1879
 1132YOPC   D2A16416   6.954   5.620   6.008  0.0540 -0.3091  0.1131
 1132YOPC   C3A16417   6.781   5.657   6.382 -0.1000 -0.0181  0.0489
 1132YOPC   C4A16418   6.762   5.233   6.558 -0.2328 -0.0090 -0.1594
 1132YOPC   C1B16419   6.557   5.018   5.674 -0.6140  0.1252  0.5303
 1132YOPC   C2B16420   6.643   5.207   6.089  0.2261 -0.2466 -0.0681
 1132YOPC   D3B16421   7.126   5.171   6.162  0.1147  0.0462 -0.1112
 1132YOPC   C4B16422   7.553   5.009   6.362  0.0208  0.1917  0.0983
 1133YOPC   NC316423   1.732  12.846   5.186  0.1775 -0.2680  0.0104
 1133YOPC   PO416424   1.254  12.981   5.314  0.2640 -0.0023  0.0110
 1133YOPC   GL116425   1.214  12.938   5.772 -0.0883  0.0638 -0.0398
 1133YOPC   GL216426   1.373  13.241   6.029 -0.0793 -0.0765  0.1734
 1133YOPC   C1A16427   1.262  12.590   6.052  0.1924 -0.4151 -0.3752
 1133YOPC   D2A16428   1.458  12.268   6.323  0.0867  0.1676  0.1865
 1133YOPC   C3A16429   1.554  12.432   6.590 -0.0936  0.0764  0.1833
 1133YOPC   C4A16430   1.856  12.157   6.794 -0.2014 -0.1142 -0.3053
 1133YOPC   C1B16431   1.513  13.266   6.512 -0.1317  0.1044  0.4398
 1133YOPC   C2B16432   1.450  13.387   6.959  0.1671 -0.3017 -0.0680
 1133YOPC   D3B16433   1.512  13.128   7.263 -0.0126 -0.2114 -0.0165
 1133YOPC   C4B16434   1.593  13.064   7.752  0.2973 -0.0505  0.0218
 1134YOPC   NC316435   9.166  12.032   5.418  0.0900  0.0040  0.2092
 1134YOPC   PO416436   8.789  12.098   5.265  0.0439  0.1491  0.1193
 1134YOPC   GL116437   8.607  11.874   5.565 -0.0811 -0.2166  0.0609
 1134YOPC   GL216438   8.284  11.672   5.610 -0.3187 -0.0242  0.2822
 1134YOPC   C1A16439   8.720  11.855   5.918 -0.0788  0.0376  0.2941
 1134YOPC   D2A16440   8.754  11.651   6.176 -0.1881 -0.0812 -0.1370
 1134YOPC   C3A16441   8.936  11.786   6.589  0.0870 -0.1304  0.0645
 1134YOPC   C4A16442   8.944  12.300   6.760  0.2371  0.4473  0.0635
 1134YOPC   C1B16443   8.130  11.328   5.890 -0.0875  0.0582  0.0702
 1134YOPC   C2B16444   8.225  11.084   6.310 -0.5397  0.0473  0.0031
 1134YOPC   D3B16445   7.955  10.990   6.694 -0.3013 -0.2893  0.1440
 1134YOPC   C4B16446   7.560  10.898   6.727 -0.0364 -0.4089 -0.1556
 1135YOPC   NC316447   8.842   7.462   4.741 -0.0389  0.1593  0.2354
 1135YOPC   PO416448   9.271   7.275   4.808  0.1437 -0.5734  0.0302
 1135YOPC   GL116449   9.319   7.494   5.198  0.0442  0.5503  0.1496
 1135YOPC   GL216450   9.583   7.326   5.375  0.0196  0.0883 -0.1027
 1135YOPC   C1A16451   9.394   7.929   5.331  0.1661  0.3026  0.0780
 1135YOPC   D2A16452   9.506   8.131   5.705 -0.0741  0.0754  0.0742
 1135YOPC   C3A16453   9.883   8.292   6.096  0.1790  0.4815  0.3991
 1135YOPC   C4A16454  10.203   8.543   6.326  0.1141 -0.0915 -0.0042
 1135YOPC   C1B16455   9.661   7.325   5.846 -0.1087  0.3553 -0.1719
 1135YOPC   C2B16456   9.819   7.230   6.178 -0.0028  0.1045 -0.1109
 1135YOPC   D3B16457   9.572   7.451   6.448 -0.2475 -0.1054 -0.0133
 1135YOPC   C4B16458   9.428   7.473   6.862 -0.2291 -0.0606 -0.1437
 1136YOPC   NC316459  15.770  17.910   5.314 -0.2619 -0.0684 -0.2529
 1136YOPC   PO416460  15.485  18.311   5.107 -0.0450 -0.3263 -0.1105
 1136YOPC   GL116461  15.552  18.296   5.577 -0.0498 -0.1765  0.2459
 1136YOPC   GL216462  15.270  18.151   5.552  0.0073 -0.0232  0.1555
 1136YOPC   C1A16463  15.447  17.989   6.016  0.1352 -0.0597  0.0527
 1136YOPC   D2A16464  15.557  17.886   6.439 -0.1765 -0.1562  0.3973
 1136YOPC   C3A16465  15.237  17.644   6.724  0.2782  0.0371 -0.0022
 1136YOPC   C4A16466  14.886  17.677   6.923  0.3675  0.0257 -0.2659
 1136YOPC   C1B16467  14.972  18.200   5.902 -0.2195  0.0465  0.2710
 1136YOPC   C2B16468  14.975  17.978   6.249 -0.0585  0.3553  0.0422
 1136YOPC   D3B16469  14.799  17.567   6.379 -0.1426 -0.1146 -0.1552
 1136YOPC   C4B16470  14.475  17.218   6.414 -0.0601  0.2752  0.1464
 1137YOPC   NC316471  13.799   7.578   4.773 -0.4418 -0.0535  0.0515
 1137YOPC   PO416472  13.379   7.610   5.029 -0.2417  0.1693 -0.1231
 1137YOPC   GL116473  13.292   7.919   5.432 -0.1785  0.0295 -0.2716
 1137YOPC   GL216474  13.083   8.112   5.461  0.2961  0.5372 -0.0770
 1137YOPC   C1A16475  13.584   8.143   5.623  0.3705  0.1890 -0.2190
 1137YOPC   D2A16476  13.456   8.191   5.968  0.1248  0.0728  0.2233
 1137YOPC   C3A16477  13.392   8.292   6.479  0.1097 -0.0195 -0.1034
 1137YOPC   C4A16478  13.023   8.111   6.669  0.0344  0.1593  0.0500
 1137YOPC   C1B16479  13.044   8.315   5.772  0.1458 -0.2709 -0.2772
 1137YOPC   C2B16480  13.090   8.551   6.193 -0.1761 -0.2552 -0.1468
 1137YOPC   D3B16481  12.713   8.500   6.556 -0.1745  0.1141 -0.0294
 1137YOPC   C4B16482  12.486   8.191   6.625 -0.3553 -0.4515  0.1960
 1138YOPC   NC316483   4.180  17.925   4.851 -0.0646  0.4167  0.2204
 1138YOPC   PO416484   4.398  17.960   5.282  0.1932 -0.1615 -0.1967
 1138YOPC   GL116485   4.681  17.952   5.693  0.0436  0.0824 -0.0968
 1138YOPC   GL216486   4.685  18.223   5.895 -0.0242  0.3188 -0.2273
 1138YOPC   C1A16487   4.782  17.790   6.098  0.3649 -0.2322  0.0239
 1138YOPC   D2A16488   4.736  17.925   6.581  0.1121 -0.0145 -0.1458
 1138YOPC   C3A16489   4.652  17.767   6.897 -0.1010 -0.0469  0.0955
 1138YOPC   C4A16490   4.266  17.462   6.931  0.4036 -0.0279 -0.4306
 1138YOPC   C1B16491   4.503  18.362   6.191 -0.2992 -0.1718 -0.0654
 1138YOPC   C2B16492   4.223  18.618   6.501  0.2836 -0.1072  0.2291
 1138YOPC   D3B16493   4.389  18.982   6.711  0.4091 -0.0785  0.0513
 1138YOPC   C4B16494   4.487  19.116   7.110 -0.0723 -0.0814 -0.2227
 1139YOPC   NC316495  10.023  17.789   4.743 -0.0768 -0.0831 -0.1367
 1139YOPC   PO416496  10.112  17.404   4.832 -0.2585 -0.0623  0.3199
 1139YOPC   GL116497   9.851  17.530   5.199 -0.0233  0.2339  0.1515
 1139YOPC   GL216498   9.875  17.903   5.194  0.0640  0.0773  0.2004
 1139YOPC   C1A16499   9.680  17.692   5.633  0.0815 -0.0614  0.0515
 1139YOPC   D2A16500   9.736  17.587   6.081 -0.0382 -0.0023  0.0005
 1139YOPC   C3A16501   9.704  17.829   6.332  0.0330  0.0984 -0.1051
 1139YOPC   C4A16502   9.500  17.836   6.688 -0.2707  0.1654 -0.1046
 1139YOPC   C1B16503  10.136  17.822   5.701  0.1153  0.2350 -0.2882
 1139YOPC   C2B16504  10.176  17.941   6.154 -0.0391  0.0377 -0.0499
 1139YOPC   D3B16505   9.898  18.273   6.326 -0.0200 -0.3620 -0.1462
 1139YOPC   C4B16506   9.605  18.373   6.136 -0.1058 -0.3712 -0.2338
 1140YOPC   NC316507   6.693   6.695   4.926 -0.0333  0.1853  0.3038
 1140YOPC   PO416508   6.276   6.542   5.160  0.0682 -0.1200  0.5600
 1140YOPC   GL116509   6.359   6.447   5.538 -0.1848  0.0549  0.2191
 1140YOPC   GL216510   6.077   6.465   5.691 -0.0616 -0.0984 -0.0858
 1140YOPC   C1A16511   6.737   6.496   5.765  0.1418  0.2800  0.4213
 1140YOPC   D2A16512   7.044   6.620   6.039 -0.0367  0.1788 -0.0036
 1140YOPC   C3A16513   7.145   6.576   6.466  0.0181  0.2709 -0.0660
 1140YOPC   C4A16514   7.076   6.456   6.947 -0.4128  0.2595 -0.2560
 1140YOPC   C1B16515   6.118   6.309   6.009 -0.1090  0.0573 -0.3279
 1140YOPC   C2B16516   6.426   6.179   6.189 -0.2241  0.0088 -0.0692
 1140YOPC   D3B16517   6.830   6.214   6.148  0.1807 -0.0614  0.1193
 1140YOPC   C4B16518   7.166   6.000   6.284 -0.0134  0.0181 -0.3285
 1141YOPC   NC316519   4.852   8.978   5.213 -0.1286 -0.0337  0.3227
 1141YOPC   PO416520   4.663   8.625   5.346 -0.3060  0.3145  0.2401
 1141YOPC   GL116521   4.740   8.390   5.788 -0.0984 -0.4016 -0.4925
 1141YOPC   GL216522   4.977   8.247   5.634 -0.1770 -0.2358 -0.0472
 1141YOPC   C1A16523   4.798   8.468   6.291 -0.0059 -0.3385  0.0490
 1141YOPC   D2A16524   4.900   8.331   6.661 -0.4462 -0.1949 -0.0546
 1141YOPC   C3A16525   4.675   8.117   6.916  0.0951 -0.0777  0.0618
 1141YOPC   C4A16526   4.585   7.859   7.226  0.0480  0.4055 -0.2026
 1141YOPC   C1B16527   5.180   7.990   5.932  0.3096 -0.0765 -0.3806
 1141YOPC   C2B16528   5.228   8.128   6.352 -0.2897  0.1756  0.2781
 1141YOPC   D3B16529   5.534   7.951   6.675  0.0253 -0.2426  0.3152
 1141YOPC   C4B16530   5.707   7.897   7.081  0.0033 -0.1003  0.0240
 1142YOPC   NC316531  12.754   0.189   4.971  0.2293  0.0966  0.3346
 1142YOPC   PO416532  12.639   0.702   4.956  0.0482  0.2036 -0.2129
 1142YOPC   GL116533  12.540   0.495   5.425  0.0777  0.1972 -0.0489
 1142YOPC   GL216534  12.220   0.620   5.509  0.0982  0.2444 -0.0046
 1142YOPC   C1A16535  12.977   0.574   5.672 -0.4172 -0.0369  0.0071
 1142YOPC   D2A16536  13.178   0.240   5.892  0.0660 -0.3041 -0.0776
 1142YOPC   C3A16537  13.614   0.323   6.024 -0.1025  0.1094 -0.1150
 1142YOPC   C4A16538  14.009   0.150   5.822  0.2656 -0.1352 -0.1783
 1142YOPC   C1B16539  12.177   1.042   5.537  0.2774  0.0340  0.0873
 1142YOPC   C2B16540  11.768   1.198   5.496  0.0675 -0.5382  0.2143
 1142YOPC   D3B16541  11.524   1.159   5.947  0.2260 -0.2461  0.0975
 1142YOPC   C4B16542  11.680   0.986   6.342 -0.1342 -0.0738  0.1451
 1143YOPC   NC316543  13.631   5.701   4.765 -0.0196  0.2101 -0.0492
 1143YOPC   PO416544  13.953   5.556   4.956 -0.1219  0.1495 -0.0410
 1143YOPC   GL116545  13.981   5.600   5.298  0.3077 -0.2669 -0.1592
 1143YOPC   GL216546  14.065   5.300   5.457  0.0081 -0.1720 -0.2176
 1143YOPC   C1A16547  13.897   5.882   5.651 -0.1680 -0.1515  0.1863
 1143YOPC   D2A16548  13.844   5.833   6.090 -0.0539  0.0595  0.0496
 1143YOPC   C3A16549  13.953   5.980   6.437 -0.0892 -0.2480 -0.0655
 1143YOPC   C4A16550  14.256   5.633   6.412 -0.2277  0.1761  0.0276
 1143YOPC   C1B16551  13.771   5.367   5.721  0.1167 -0.0778  0.0652
 1143YOPC   C2B16552  13.545   5.419   6.113  0.2283 -0.0645  0.0242
 1143YOPC   D3B16553  13.714   5.521   6.433 -0.0748  0.2049 -0.0451
 1143YOPC   C4B16554  13.744   5.746   6.828  0.1913 -0.1886  0.0186
 1144YOPC   NC316555   8.148  16.700   4.469  0.1888  0.0048  0.0921
 1144YOPC   PO416556   8.333  16.658   4.915  0.1042 -0.2411 -0.1432
 1144YOPC   GL116557   8.177  16.787   5.277  0.0490  0.2264 -0.0575
 1144YOPC   GL216558   7.893  16.509   5.319  0.3609 -0.0187  0.1082
 1144YOPC   C1A16559   8.441  16.941   5.703 -0.1069  0.2189 -0.0584
 1144YOPC   D2A16560   8.889  17.044   5.956 -0.0894  0.2802 -0.0173
 1144YOPC   C3A16561   8.834  17.158   6.356 -0.0149  0.0222 -0.0666
 1144YOPC   C4A16562   9.053  17.164   6.681  0.1910  0.0212  0.0321
 1144YOPC   C1B16563   8.045  16.386   5.747  0.0995  0.4466  0.3264
 1144YOPC   C2B16564   8.364  16.222   5.961 -0.0110 -0.1147 -0.2298
 1144YOPC   D3B16565   8.827  16.504   5.857  0.0792 -0.3697  0.0847
 1144YOPC   C4B16566   9.137  16.184   5.978  0.2167  0.0152 -0.0966
 1145YOPC   NC316567  15.689  12.390   4.706  0.2475  0.1106  0.0215
 1145YOPC   PO416568  15.382  12.511   4.969 -0.1201 -0.0511 -0.1294
 1145YOPC   GL116569  15.089  12.448   5.239  0.0045  0.1102 -0.4272
 1145YOPC   GL216570  14.705  12.381   5.148 -0.2027 -0.1200  0.0365
 1145YOPC   C1A16571  14.922  12.522   5.606 -0.1470 -0.0649  0.0019
 1145YOPC   D2A16572  14.862  12.363   6.029 -0.2242  0.1574 -0.3295
 1145YOPC   C3A16573  14.984  12.088   6.306  0.2320 -0.3719 -0.1071
 1145YOPC   C4A16574  14.808  12.066   6.798  0.2100  0.4100  0.0146
 1145YOPC   C1B16575  14.849  12.038   5.507  0.0732  0.1960  0.1861
 1145YOPC   C2B16576  14.927  11.844   5.892 -0.0290 -0.0740  0.3521
 1145YOPC   D3B16577  14.910  11.399   5.807 -0.3363  0.2686 -0.0385
 1145YOPC   C4B16578  14.677  11.090   5.807  0.2310  0.0005 -0.0508
 1146ERGO   ROH16579  12.717  17.098   5.576 -0.1284  0.0126  0.1041
 1146ERGO    R116580  12.799  17.184   5.833 -0.2109  0.0602  0.1143
 1146ERGO    R216581  12.722  17.426   5.940 -0.2875  0.0553  0.0648
 1146ERGO    R316582  12.637  17.271   6.147 -0.3070  0.0648  0.0645
 1146ERGO    R416583  12.712  17.527   6.271 -0.3493  0.0873  0.0537
 1146ERGO    R516584  12.783  17.328   6.328 -0.3391  0.0964  0.0831
 1146ERGO    C116585  12.625  17.440   6.657 -0.4034  0.1147  0.0469
 1146ERGO    C216586  12.466  17.585   7.078 -0.0217  0.1157  0.0278
 1147ERGO   ROH16587   3.170  12.870   5.807  0.0231 -0.1447 -0.0984
 1147ERGO    R116588   3.024  12.841   6.048  0.0253  0.0186 -0.0774
 1147ERGO    R216589   3.063  12.629   6.221 -0.0442  0.0843  0.0147
 1147ERGO    R316590   3.101  12.827   6.404  0.0370  0.1518 -0.0734
 1147ERGO    R416591   2.991  12.603   6.558 -0.1465  0.2919  0.0112
 1147ERGO    R516592   2.914  12.807   6.553 -0.0164  0.3423 -0.1088
 1147ERGO    C116593   2.985  12.774   6.926 -0.1298  0.4761 -0.0736
 1147ERGO    C216594   3.155  12.609   7.303  0.1804 -0.4142  0.2363
 1148ERGO   ROH16595   4.226   3.187   5.855 -0.1111 -0.1421  0.1403
 1148ERGO    R116596   4.273   3.266   6.123 -0.0941 -0.2345  0.1659
 1148ERGO    R216597   4.407   3.106   6.305  0.0257 -0.2517  0.0740
 1148ERGO    R316598   4.563   3.326   6.335 -0.0779 -0.1859  0.1255
 1148ERGO    R416599   4.553   3.206   6.601  0.0040 -0.2475  0.0828
 1148ERGO    R516600   4.504   3.412   6.550 -0.0952 -0.2660  0.1447
 1148ERGO    C116601   4.784   3.471   6.802 -0.1058 -0.1833  0.1364
 1148ERGO    C216602   4.959   3.386   7.062  0.0757  0.1571  0.1312
 1149ERGO   ROH16603   6.130  12.456   5.592 -0.2611 -0.0300  0.0218
 1149ERGO    R116604   6.171  12.492   5.869 -0.2629 -0.0871  0.0291
 1149ERGO    R216605   6.203  12.742   5.983  0.0610 -0.1299  0.0330
 1149ERGO    R316606   5.999  12.660   6.143 -0.0853  0.1537 -0.0018
 1149ERGO    R416607   6.159  12.839   6.312  0.3455 -0.3266  0.1339
 1149ERGO    R516608   6.099  12.634   6.359 -0.0809 -0.2571 -0.0419
 1149ERGO    C116609   5.941  12.819   6.653  0.3736 -0.1747  0.1601
 1149ERGO    C216610   6.008  13.049   6.860  0.2143  0.0763 -0.3702
 1150ERGO   ROH16611  18.686   8.792   5.163  0.2349 -0.0181 -0.0244
 1150ERGO    R116612  18.458   8.744   5.324  0.2837  0.1556  0.0977
 1150ERGO    R216613  18.342   8.494   5.347 -0.0787  0.3047 -0.0914
 1150ERGO    R316614  18.377   8.538   5.613  0.1935 -0.0404 -0.0626
 1150ERGO    R416615  18.138   8.368   5.596 -0.2050  0.4853 -0.1009
 1150ERGO    R516616  18.155   8.560   5.699  0.2809  0.3598  0.0932
 1150ERGO    C116617  18.052   8.336   5.991 -0.0231  0.2664 -0.0795
 1150ERGO    C216618  17.922   7.974   6.120  0.1896 -0.0700 -0.1191
 1151ERGO   ROH16619   9.964  13.999   5.597  0.6482 -0.0412  0.0089
 1151ERGO    R116620   9.817  14.049   5.833  0.4027  0.0238 -0.1539
 1151ERGO    R216621   9.825  13.880   6.052  0.1951  0.0972 -0.0923
 1151ERGO    R316622   9.894  14.107   6.184  0.0404  0.1441 -0.0892
 1151ERGO    R416623   9.769  13.938   6.388  0.2263  0.0094 -0.0715
 1151ERGO    R516624   9.715  14.143   6.339  0.0419 -0.0243 -0.0404
 1151ERGO    C116625   9.802  14.185   6.708  0.0992  0.0023 -0.0567
 1151ERGO    C216626   9.994  14.197   7.043  0.1461  0.1606  0.0221
 1152ERGO   ROH16627   2.137   6.971   5.614  0.0350  0.1034 -0.0408
 1152ERGO    R116628   2.150   7.172   5.812 -0.0110  0.0154  0.0533
 1152ERGO    R216629   2.033   7.421   5.780  0.0060  0.0368  0.1318
 1152ERGO    R316630   1.913   7.358   6.015 -0.0602 -0.0675  0.0708
 1152ERGO    R416631   1.863   7.645   5.981 -0.0187 -0.0482  0.2056
 1152ERGO    R516632   1.952   7.549   6.155 -0.0747 -0.1448  0.1779
 1152ERGO    C116633   1.652   7.717   6.320 -0.0952 -0.1956  0.1913
 1152ERGO    C216634   1.334   7.935   6.295 -0.1363  0.1016 -0.0707
 1153ERGO   ROH16635   1.484  13.782   5.848 -0.2758 -0.2578  0.3246
 1153ERGO    R116636   1.538  13.697   6.113 -0.0665 -0.2191  0.2966
 1153ERGO    R216637   1.737  13.516   6.173  0.0391 -0.1459  0.1766
 1153ERGO    R316638   1.819  13.711   6.343  0.0867 -0.1036  0.1052
 1153ERGO    R416639   1.991  13.483   6.406 -0.0458 -0.1604  0.2678
 1153ERGO    R516640   1.870  13.596   6.547 -0.0312 -0.0306  0.1770
 1153ERGO    C116641   2.216  13.648   6.700 -0.0506 -0.1290  0.2539
 1153ERGO    C216642   2.480  13.564   6.851  0.1022 -0.0839  0.0802
 1154ERGO   ROH16643   9.610  15.560   5.715 -0.2180 -0.2148  0.0508
 1154ERGO    R116644   9.549  15.708   5.948  0.0175 -0.1939  0.1031
 1154ERGO    R216645   9.293  15.728   6.050  0.0300  0.2090  0.0922
 1154ERGO    R316646   9.411  15.639   6.277 -0.1310 -0.0881  0.0616
 1154ERGO    R416647   9.180  15.793   6.370  0.1886  0.3515  0.1193
 1154ERGO    R516648   9.387  15.819   6.432  0.2466 -0.0803  0.1110
 1154ERGO    C116649   9.226  15.746   6.770  0.1300  0.1556  0.1063
 1154ERGO    C216650   9.121  15.674   7.018  0.2818  0.3107 -0.2178
 1155ERGO   ROH16651   5.668   0.823   5.492 -0.0008 -0.0893  0.1897
 1155ERGO    R116652   5.695   0.875   5.769  0.0025 -0.0489  0.1812
 1155ERGO    R216653   5.653   1.126   5.878 -0.0148 -0.0403  0.1460
 1155ERGO    R316654   5.480   0.991   6.039  0.0016 -0.0297  0.1736
 1155ERGO    R416655   5.623   1.173   6.219 -0.1462  0.1646  0.1081
 1155ERGO    R516656   5.602   0.957   6.242 -0.0417  0.1630  0.2370
 1155ERGO    C116657   5.443   1.074   6.568 -0.2074  0.2938  0.1120
 1155ERGO    C216658   5.268   0.997   6.949 -0.3690  0.1287  0.1137
 1156ERGO   ROH16659  10.723  11.269   5.532 -0.0158  0.1422  0.0192
 1156ERGO    R116660  10.921  11.245   5.734  0.0647  0.0059 -0.0739
 1156ERGO    R216661  10.865  11.285   6.002  0.2346  0.1204 -0.0538
 1156ERGO    R316662  10.975  11.037   6.028  0.0180  0.0227 -0.0536
 1156ERGO    R416663  10.996  11.156   6.295  0.2699  0.0676 -0.0927
 1156ERGO    R516664  11.158  11.068   6.178  0.1282 -0.1124 -0.1581
 1156ERGO    C116665  11.174  10.848   6.489  0.0871 -0.0548 -0.1152
 1156ERGO    C216666  11.210  10.559   6.734 -0.2038 -0.0198 -0.2810
 1157ERGO   ROH16667   0.123  16.819   6.353  0.2916  0.1448  0.3322
 1157ERGO    R116668   0.064  16.550   6.417  0.0015  0.2045  0.3307
 1157ERGO    R216669   0.259  16.356   6.443 -0.2315 -0.1214 -0.1614
 1157ERGO    R316670   0.144  16.318   6.686  0.2050 -0.0357  0.0676
 1157ERGO    R416671   0.247  16.054   6.610 -0.3499 -0.1682 -0.2550
 1157ERGO    R516672   0.043  16.101   6.670 -0.1626  0.1226  0.1858
 1157ERGO    C116673   0.132  15.842   6.935 -0.0089 -0.1151 -0.0944
 1157ERGO    C216674   0.165  15.676   7.205  0.0726 -0.0197 -0.1259
 1158ERGO   ROH16675   1.104  12.176   5.878  0.2007 -0.0192  0.0565
 1158ERGO    R116676   1.028  12.162   6.151  0.0760 -0.0257  0.0220
 1158ERGO    R216677   0.864  11.963   6.250  0.1079 -0.0838 -0.0394
 1158ERGO    R316678   1.069  11.926   6.425  0.0409  0.0141  0.0611
 1158ERGO    R416679   0.848  11.766   6.533  0.0618 -0.0764 -0.0367
 1158ERGO    R516680   0.962  11.919   6.639 -0.0563 -0.0221  0.0108
 1158ERGO    C116681   1.030  11.617   6.863 -0.0281  0.0197  0.0593
 1158ERGO    C216682   0.957  11.249   6.919  0.3911  0.0259  0.0864
 1159ERGO   ROH16683   9.554  15.048   5.533 -0.1926  0.1127  0.0241
 1159ERGO    R116684   9.602  15.025   5.811 -0.1805  0.0794  0.0190
 1159ERGO    R216685   9.748  15.211   5.953 -0.1014  0.0169  0.0178
 1159ERGO    R316686   9.527  15.220   6.110 -0.0865  0.0903  0.0362
 1159ERGO    R416687   9.743  15.319   6.281 -0.0269 -0.0339  0.0362
 1159ERGO    R516688   9.605  15.156   6.327 -0.0969  0.0191  0.0201
 1159ERGO    C116689   9.531  15.389   6.620  0.0307  0.0056  0.0642
 1159ERGO    C216690   9.548  15.382   6.992  0.0998 -0.0929 -0.1063
 1160ERGO   ROH16691   8.780   7.530   5.623  0.0699 -0.1757 -0.0442
 1160ERGO    R116692   8.601   7.516   5.842  0.0737 -0.0791 -0.0342
 1160ERGO    R216693   8.687   7.518   6.105  0.0921 -0.1628 -0.0382
 1160ERGO    R316694   8.514   7.727   6.126  0.2320 -0.0488 -0.0078
 1160ERGO    R416695   8.547   7.629   6.401  0.1220 -0.1454 -0.0307
 1160ERGO    R516696   8.359   7.658   6.295  0.1584  0.0132 -0.0514
 1160ERGO    C116697   8.303   7.890   6.593  0.2707 -0.0283  0.0022
 1160ERGO    C216698   8.206   7.894   6.905 -0.1617  0.0969 -0.0182
 1161ERGO   ROH16699  16.832   4.907   5.241 -0.1307 -0.0746  0.3120
 1161ERGO    R116700  16.849   4.690   5.422  0.0269 -0.1049  0.2630
 1161ERGO    R216701  17.077   4.636   5.569  0.0485  0.0637  0.2958
 1161ERGO    R316702  16.906   4.648   5.779 -0.0069 -0.1392  0.2640
 1161ERGO    R416703  17.120   4.470   5.869  0.0847 -0.0431  0.2316
 1161ERGO    R516704  16.906   4.427   5.869  0.1121 -0.1790  0.1657
 1161ERGO    C116705  16.983   4.384   6.241  0.0536 -0.2958  0.1644
 1161ERGO    C216706  16.904   4.367   6.641 -0.1504  0.0754 -0.0539
 1162ERGO   ROH16707  13.474   7.003   5.389 -0.0212 -0.0233 -0.0019
 1162ERGO    R116708  13.373   7.132   5.620 -0.1308 -0.0162 -0.0530
 1162ERGO    R216709  13.483   7.365   5.721 -0.1032 -0.0773  0.0614
 1162ERGO    R316710  13.228   7.456   5.699 -0.0502  0.0334 -0.1064
 1162ERGO    R416711  13.361   7.649   5.874 -0.0896 -0.0510  0.0223
 1162ERGO    R516712  13.176   7.542   5.917 -0.1675  0.0188 -0.1269
 1162ERGO    C116713  13.051   7.901   5.943 -0.0319  0.0681 -0.1579
 1162ERGO    C216714  12.909   8.108   6.206 -0.1627  0.3194 -0.1041
 1163ERGO   ROH16715   7.094  18.267   5.585 -0.1115  0.1337  0.0371
 1163ERGO    R116716   7.206  18.392   5.814 -0.0382  0.0612  0.0422
 1163ERGO    R216717   7.050  18.507   6.011  0.0268  0.1528  0.0444
 1163ERGO    R316718   7.194  18.344   6.174 -0.0751  0.0583  0.0397
 1163ERGO    R416719   7.065  18.534   6.355  0.1847  0.2384  0.0319
 1163ERGO    R516720   7.277  18.488   6.345  0.1342  0.0238 -0.0340
 1163ERGO    C116721   7.208  18.396   6.709  0.1809  0.1993  0.0202
 1163ERGO    C216722   7.050  18.190   6.990  0.0374 -0.0165  0.0910
 1164ERGO   ROH16723  10.475  11.737   9.189  0.1246  0.0785 -0.0013
 1164ERGO    R116724  10.538  11.928   8.989  0.1514  0.0110 -0.0577
 1164ERGO    R216725  10.593  11.856   8.727 -0.0922 -0.0568 -0.0939
 1164ERGO    R316726  10.395  12.034   8.671  0.0204  0.1120  0.0337
 1164ERGO    R416727  10.553  12.019   8.425 -0.1034  0.0371 -0.0421
 1164ERGO    R516728  10.500  12.200   8.535  0.0891  0.0575  0.0198
 1164ERGO    C116729  10.343  12.281   8.197 -0.0040  0.2502  0.1079
 1164ERGO    C216730  10.320  12.493   7.935  0.0545  0.0843 -0.1334
 1165ERGO   ROH16731  12.665  19.460   5.787  0.2710  0.0502  0.0521
 1165ERGO    R116732  12.608  19.665   5.972  0.1424  0.0032  0.0663
 1165ERGO    R216733  12.799  19.771   6.142  0.0707  0.0889  0.0992
 1165ERGO    R316734  12.720  20.007   6.032 -0.0414  0.0563  0.1104
 1165ERGO    R416735  12.838  20.081   6.290  0.2455  0.1368 -0.0438
 1165ERGO    R516736  12.639  20.135   6.218  0.1681  0.1197  0.1577
 1165ERGO    C116737  12.786  20.482   6.274  0.2421  0.1341 -0.1167
 1165ERGO    C216738  12.929  20.916   6.388 -0.1744 -0.0646 -0.0099
 1166ERGO   ROH16739  14.652   6.561   6.033 -0.0321 -0.1044  0.0644
 1166ERGO    R116740  14.693   6.494   6.305  0.0880 -0.1889  0.0267
 1166ERGO    R216741  14.945   6.467   6.416  0.1430  0.1350 -0.0083
 1166ERGO    R316742  14.851   6.649   6.594 -0.1248 -0.0980  0.0961
 1166ERGO    R416743  15.011   6.464   6.755  0.2831  0.1306 -0.0351
 1166ERGO    R516744  14.804   6.521   6.791  0.1857 -0.2609  0.0696
 1166ERGO    C116745  14.962   6.633   7.120  0.1133 -0.0908  0.0474
 1166ERGO    C216746  14.830   6.813   7.406 -0.2799  0.1572  0.1501
 1167ERGO   ROH16747  19.091  18.570   5.952  0.0606  0.0814  0.1773
 1167ERGO    R116748  18.913  18.432   6.123 -0.0207  0.0401  0.0607
 1167ERGO    R216749  18.908  18.472   6.396 -0.0638 -0.1169  0.0839
 1167ERGO    R316750  18.644  18.520   6.351 -0.0389 -0.0039  0.0567
 1167ERGO    R416751  18.656  18.420   6.627 -0.1113 -0.0441  0.0484
 1167ERGO    R516752  18.531  18.342   6.466 -0.1241  0.0261  0.0222
 1167ERGO    C116753  18.262  18.435   6.720 -0.1155  0.1043  0.0022
 1167ERGO    C216754  18.028  18.273   6.975 -0.0558  0.0590  0.0414
 1168ERGO   ROH16755  15.879   2.452   5.374 -0.2119  0.0826 -0.1034
 1168ERGO    R116756  15.840   2.288   5.601 -0.1914  0.2310  0.0082
 1168ERGO    R216757  16.049   2.202   5.759 -0.1508  0.1305 -0.1011
 1168ERGO    R316758  15.902   2.313   5.959  0.0892  0.3601 -0.0465
 1168ERGO    R416759  16.047   2.093   6.087 -0.2234  0.1109 -0.1074
 1168ERGO    R516760  15.832   2.127   6.092 -0.1731  0.4610 -0.0372
 1168ERGO    C116761  15.908   2.134   6.466 -0.0404  0.3150 -0.0599
 1168ERGO    C216762  15.734   1.929   6.720  0.1093 -0.2883 -0.1160
 1169ERGO   ROH16763   8.186  18.848   5.373  0.0706  0.1935 -0.1332
 1169ERGO    R116764   8.172  18.732   5.631  0.0473  0.1147 -0.1696
 1169ERGO    R216765   8.189  18.881   5.863  0.1324  0.0311 -0.1226
 1169ERGO    R316766   7.954  18.758   5.921  0.0870  0.1102 -0.1386
 1169ERGO    R416767   8.073  18.819   6.182  0.1804 -0.0857 -0.1280
 1169ERGO    R516768   8.003  18.624   6.113  0.0719 -0.0185 -0.2208
 1169ERGO    C116769   7.785  18.667   6.423  0.1659 -0.0794 -0.1461
 1169ERGO    C216770   7.948  18.724   6.753 -0.1701 -0.2161 -0.3916
 1170ERGO   ROH16771  14.854   7.073   5.620 -0.1414  0.2242 -0.0652
 1170ERGO    R116772  15.070   6.922   5.721 -0.1384  0.1559 -0.1701
 1170ERGO    R216773  15.090   6.850   5.988  0.0006  0.2039 -0.1662
 1170ERGO    R316774  15.114   6.600   5.884 -0.1684  0.1720 -0.1294
 1170ERGO    R416775  15.265   6.589   6.134 -0.0726  0.1461 -0.1832
 1170ERGO    R516776  15.337   6.533   5.937 -0.1788  0.0711 -0.2039
 1170ERGO    C116777  15.388   6.203   6.121 -0.2738  0.0825 -0.1583
 1170ERGO    C216778  15.323   5.901   6.282 -0.0785  0.0932 -0.0697
 1171ERGO   ROH16779   3.377   7.290   5.789 -0.1904  0.0626  0.0238
 1171ERGO    R116780   3.274   7.335   6.049 -0.1533 -0.1039  0.0690
 1171ERGO    R216781   3.196   7.128   6.216 -0.0014 -0.2194  0.0028
 1171ERGO    R316782   3.369   7.247   6.389 -0.0233 -0.1984  0.0089
 1171ERGO    R416783   3.240   7.035   6.546  0.0136 -0.2301 -0.0031
 1171ERGO    R516784   3.253   7.246   6.599 -0.0238 -0.2309  0.0081
 1171ERGO    C116785   3.427   7.093   6.901  0.0017 -0.2166 -0.0008
 1171ERGO    C216786   3.766   7.077   6.989 -0.0480 -0.3498  0.2147
 1172ERGO   ROH16787  14.224   9.677   5.085 -0.0315  0.2456  0.0847
 1172ERGO    R116788  14.360   9.720   5.329 -0.0577  0.1161  0.1225
 1172ERGO    R216789  14.385   9.524   5.522 -0.1596  0.0431  0.0603
 1172ERGO    R316790  14.650   9.580   5.498 -0.1348 -0.0418  0.1267
 1172ERGO    R416791  14.611   9.524   5.783 -0.2275 -0.0238  0.1199
 1172ERGO    R516792  14.703   9.702   5.698 -0.1480 -0.0536  0.1387
 1172ERGO    C116793  14.991   9.576   5.914 -0.2438 -0.1425  0.2170
 1172ERGO    C216794  15.210   9.667   6.208 -0.3328 -0.2748 -0.1014
 1173ERGO   ROH16795  16.534   4.920   8.349 -0.1739 -0.1601  0.0560
 1173ERGO    R116796  16.516   4.956   8.069 -0.0532 -0.1297  0.0516
 1173ERGO    R216797  16.617   4.772   7.889 -0.1186 -0.1884  0.0773
 1173ERGO    R316798  16.364   4.778   7.790 -0.0811 -0.0073 -0.0126
 1173ERGO    R416799  16.522   4.645   7.582 -0.1087 -0.1871  0.0734
 1173ERGO    R516800  16.393   4.818   7.555  0.0380 -0.0855 -0.0144
 1173ERGO    C116801  16.229   4.577   7.310 -0.0674 -0.0162 -0.0133
 1173ERGO    C216802  16.028   4.510   7.091 -0.3239  0.1200  0.0476
 1174ERGO   ROH16803   7.606  14.105   6.503  0.0169  0.0591 -0.0292
 1174ERGO    R116804   7.740  13.994   6.727 -0.0122  0.0228 -0.0306
 1174ERGO    R216805   7.997  14.066   6.797  0.0024 -0.0416 -0.0288
 1174ERGO    R316806   7.882  14.117   7.038  0.0161 -0.0187 -0.0263
 1174ERGO    R416807   8.155  14.028   7.102  0.0934  0.1882 -0.0443
 1174ERGO    R516808   7.969  13.946   7.182  0.1613  0.0951  0.0272
 1174ERGO    C116809   8.139  14.053   7.506  0.1592  0.3436 -0.0508
 1174ERGO    C216810   8.084  14.010   7.803 -0.5063 -0.0024 -0.2274
 1175ERGO   ROH16811  19.201   2.880   5.646  0.2118  0.0596  0.0519
 1175ERGO    R116812  19.251   2.724   5.876  0.1319  0.0555  0.0656
 1175ERGO    R216813  19.464   2.772   6.045  0.0682  0.0532  0.1387
 1175ERGO    R316814  19.269   2.780   6.235  0.0052  0.0441  0.0762
 1175ERGO    R416815  19.520   2.766   6.386 -0.0413 -0.2100  0.1552
 1175ERGO    R516816  19.348   2.634   6.408 -0.1356 -0.1253  0.0067
 1175ERGO    C116817  19.370   2.771   6.763 -0.1640 -0.3719  0.1062
 1175ERGO    C216818  19.502   2.931   7.062  0.0442 -0.1954 -0.1892
 1176ERGO   ROH16819  17.685   2.840   5.582 -0.1752 -0.1395 -0.0481
 1176ERGO    R116820  17.559   3.088   5.634 -0.1625 -0.1304 -0.0583
 1176ERGO    R216821  17.284   3.116   5.646 -0.1611 -0.1283  0.0059
 1176ERGO    R316822  17.338   3.224   5.889 -0.0989 -0.0884 -0.0256
 1176ERGO    R416823  17.070   3.321   5.822 -0.0793 -0.0265 -0.0124
 1176ERGO    R516824  17.241   3.442   5.880 -0.0370 -0.0628 -0.0622
 1176ERGO    C116825  16.995   3.542   6.154  0.0269  0.0702 -0.0526
 1176ERGO    C216826  16.758   3.523   6.468 -0.2714  0.1253 -0.4340
 1177ERGO   ROH16827   9.994   6.963   5.668 -0.0636 -0.1286 -0.0014
 1177ERGO    R116828  10.058   6.743   5.835 -0.0783 -0.1385 -0.0077
 1177ERGO    R216829  10.023   6.748   6.109 -0.0474 -0.1331 -0.0006
 1177ERGO    R316830   9.879   6.523   6.062 -0.0879 -0.1089  0.0121
 1177ERGO    R416831  10.003   6.477   6.323  0.1523 -0.2512 -0.1289
 1177ERGO    R516832  10.013   6.346   6.150 -0.0062 -0.1564 -0.2086
 1177ERGO    C116833   9.856   6.108   6.404  0.2306 -0.2972 -0.1916
 1177ERGO    C216834   9.859   5.779   6.584 -0.0159  0.0948 -0.2149
 1178ERGO   ROH16835  13.834   2.130   7.525  0.0381 -0.1803  0.0004
 1178ERGO    R116836  13.949   2.140   7.267  0.2054  0.0906  0.0821
 1178ERGO    R216837  13.804   2.092   7.037  0.5031 -0.4308 -0.0126
 1178ERGO    R316838  13.901   2.335   6.963 -0.1750 -0.1329 -0.0088
 1178ERGO    R416839  13.852   2.195   6.710  0.5089 -0.4147 -0.0073
 1178ERGO    R516840  14.039   2.288   6.773  0.1746  0.2073  0.1461
 1178ERGO    C116841  13.972   2.482   6.451 -0.1242 -0.1257 -0.0006
 1178ERGO    C216842  13.895   2.418   6.179 -0.0367 -0.2375  0.0232
 1179ERGO   ROH16843  17.998  17.644   5.440 -0.0516 -0.1420  0.1143
 1179ERGO    R116844  18.148  17.643   5.680  0.0133 -0.1151  0.0743
 1179ERGO    R216845  18.425  17.633   5.682  0.0179 -0.0546 -0.0003
 1179ERGO    R316846  18.399  17.856   5.835  0.0086 -0.0637  0.0111
 1179ERGO    R416847  18.650  17.733   5.924  0.0176 -0.0485 -0.0028
 1179ERGO    R516848  18.482  17.790   6.050  0.0196 -0.0661  0.0048
 1179ERGO    C116849  18.757  18.001   6.209  0.0086 -0.0536  0.0065
 1179ERGO    C216850  18.966  17.972   6.363  0.2631 -0.1698  0.1550
 1180ERGO   ROH16851   0.948   9.141   5.514 -0.0535 -0.0399  0.1350
 1180ERGO    R116852   0.820   9.008   5.728 -0.0500 -0.1096  0.0948
 1180ERGO    R216853   0.930   8.788   5.854 -0.0301 -0.1290  0.0471
 1180ERGO    R316854   0.894   8.938   6.078 -0.0609 -0.1878  0.0813
 1180ERGO    R416855   0.890   8.660   6.173 -0.0250 -0.2098  0.0153
 1180ERGO    R516856   0.737   8.812   6.209 -0.0476 -0.2409  0.0452
 1180ERGO    C116857   0.832   8.727   6.568 -0.0510 -0.3121  0.0287
 1180ERGO    C216858   0.774   8.725   6.965 -0.2336 -0.0446 -0.2234
 1181ERGO   ROH16859   8.436  13.891   5.688  0.2389  0.0124  0.1646
 1181ERGO    R116860   8.543  14.122   5.814  0.2770 -0.0871  0.3149
 1181ERGO    R216861   8.400  14.357   5.838  0.4965  0.0765  0.0112
 1181ERGO    R316862   8.459  14.328   6.102 -0.0099  0.0585  0.1339
 1181ERGO    R416863   8.394  14.613   6.070  0.5901  0.1939 -0.1125
 1181ERGO    R516864   8.575  14.530   6.159  0.2940 -0.1342  0.2391
 1181ERGO    C116865   8.446  14.735   6.453  0.1692  0.2453 -0.0693
 1181ERGO    C216866   8.290  14.793   6.796 -0.1732  0.1708 -0.1492
 1182ERGO   ROH16867   5.079   5.817   5.817 -0.0170 -0.1693 -0.0434
 1182ERGO    R116868   5.280   5.763   6.010  0.0634 -0.0688 -0.0973
 1182ERGO    R216869   5.280   5.878   6.261  0.0931 -0.0409 -0.1079
 1182ERGO    R316870   5.293   5.619   6.344  0.2197 -0.0280 -0.0862
 1182ERGO    R416871   5.274   5.775   6.591 -0.1178 -0.0355 -0.1095
 1182ERGO    R516872   5.426   5.627   6.543  0.0386  0.0805  0.0303
 1182ERGO    C116873   5.282   5.473   6.861 -0.1218 -0.0203 -0.0899
 1182ERGO    C216874   5.354   5.284   7.247  0.1166  0.3159  0.2185
 1183ERGO   ROH16875   2.699  18.835   5.572  0.0217 -0.0943  0.1051
 1183ERGO    R116876   2.796  18.756   5.825 -0.1022 -0.1031  0.1502
 1183ERGO    R216877   2.925  18.931   5.996  0.0724 -0.1783  0.0959
 1183ERGO    R316878   2.735  18.848   6.172 -0.0475  0.1066  0.1061
 1183ERGO    R416879   2.969  18.908   6.339  0.1071 -0.3726  0.0796
 1183ERGO    R516880   2.856  18.721   6.335 -0.2376 -0.1733  0.0383
 1183ERGO    C116881   2.816  18.816   6.703  0.0147 -0.2185  0.0796
 1183ERGO    C216882   2.694  19.009   7.030  0.3129 -0.0693 -0.1017
 1184ERGO   ROH16883   3.649  18.991   5.469 -0.0365 -0.1196  0.0417
 1184ERGO    R116884   3.781  18.901   5.704 -0.0293 -0.0858  0.0493
 1184ERGO    R216885   3.969  19.055   5.836 -0.0666 -0.0475  0.0483
 1184ERGO    R316886   3.807  19.010   6.050 -0.0621 -0.0708  0.0484
 1184ERGO    R416887   4.059  19.104   6.167 -0.0569 -0.0666  0.0494
 1184ERGO    R516888   3.953  18.921   6.217 -0.0502 -0.0789  0.0385
 1184ERGO    C116889   3.959  19.090   6.559 -0.0471 -0.0996  0.0502
 1184ERGO    C216890   3.878  19.319   6.788  0.0736  0.3044  0.2061
 1185ERGO   ROH16891  10.251   3.616   5.181 -0.1165 -0.0318  0.0751
 1185ERGO    R116892  10.418   3.756   5.361  0.0175 -0.1171  0.0178
 1185ERGO    R216893  10.324   3.868   5.596  0.1023  0.1506 -0.0744
 1185ERGO    R316894  10.522   3.720   5.708 -0.0982 -0.0194  0.0643
 1185ERGO    R416895  10.391   3.852   5.935 -0.0206  0.2587 -0.0438
 1185ERGO    R516896  10.604   3.856   5.888  0.0033 -0.0109  0.0149
 1185ERGO    C116897  10.616   3.704   6.237 -0.2804  0.1622  0.1043
 1185ERGO    C216898  10.584   3.810   6.554  0.1748 -0.3315  0.0873
 1186ERGO   ROH16899  14.281  16.139   5.657  0.0330 -0.3076 -0.0121
 1186ERGO    R116900  14.457  16.051   5.861  0.0748  0.0022  0.0932
 1186ERGO    R216901  14.498  16.193   6.095 -0.3115  0.0825  0.1220
 1186ERGO    R316902  14.430  15.957   6.211  0.0301 -0.0426  0.0769
 1186ERGO    R416903  14.559  16.109   6.425 -0.2923  0.1524  0.1354
 1186ERGO    R516904  14.611  15.908   6.360  0.0587  0.2392  0.1365
 1186ERGO    C116905  14.530  15.839   6.726  0.0396  0.0758  0.1008
 1186ERGO    C216906  14.241  15.749   6.872 -0.0558 -0.3707  0.1642
 1187ERGO   ROH16907   3.216   9.851   5.704 -0.2835  0.1304  0.0820
 1187ERGO    R116908   3.361   9.840   5.947 -0.2283 -0.0043  0.0430
 1187ERGO    R216909   3.376  10.053   6.121  0.0396 -0.0084  0.0252
 1187ERGO    R316910   3.285   9.871   6.302 -0.0993  0.0954  0.0626
 1187ERGO    R416911   3.408  10.083   6.464  0.2113 -0.0382  0.0130
 1187ERGO    R516912   3.453   9.870   6.473 -0.0291 -0.0937 -0.0036
 1187ERGO    C116913   3.342   9.930   6.833  0.1809  0.0417  0.0410
 1187ERGO    C216914   3.387  10.135   7.093  0.2135  0.4224  0.1959
 1188ERGO   ROH16915   6.598   5.909   5.488  0.0273  0.2081  0.0358
 1188ERGO    R116916   6.470   5.925   5.741  0.1379  0.1595  0.0952
 1188ERGO    R216917   6.243   5.780   5.802 -0.0675  0.4447  0.0288
 1188ERGO    R316918   6.393   5.695   6.012 -0.1185  0.0081 -0.1015
 1188ERGO    R416919   6.118   5.626   6.085 -0.2221  0.4775 -0.0206
 1188ERGO    R516920   6.259   5.742   6.204  0.0619  0.1305 -0.0030
 1188ERGO    C116921   6.187   5.458   6.448 -0.3599  0.0867 -0.1716
 1188ERGO    C216922   6.267   5.240   6.647 -0.2464  0.2112  0.1533
 1189ERGO   ROH16923  17.699   2.270   5.715 -0.1910 -0.0723 -0.0247
 1189ERGO    R116924  17.591   2.210   5.970 -0.0389  0.0824  0.0781
 1189ERGO    R216925  17.551   1.951   6.058 -0.3390  0.1331  0.1084
 1189ERGO    R316926  17.701   2.034   6.269 -0.0094 -0.0871 -0.0329
 1189ERGO    R416927  17.573   1.787   6.361 -0.1713  0.0330  0.0433
 1189ERGO    R516928  17.568   1.981   6.461  0.1514  0.0092  0.1035
 1189ERGO    C116929  17.727   1.769   6.736  0.2358 -0.2320 -0.1271
 1189ERGO    C216930  17.987   1.635   6.914  0.0299 -0.2225  0.1383
 1190ERGO   ROH16931  14.627   0.290   5.738  0.2767  0.1690  0.2857
 1190ERGO    R116932  14.437   0.447   5.876  0.1647  0.1954  0.1083
 1190ERGO    R216933  14.361   0.393   6.137 -0.1585  0.1497  0.0168
 1190ERGO    R316934  14.432   0.653   6.176 -0.1098  0.1140  0.1606
 1190ERGO    R416935  14.235   0.597   6.386 -0.1997  0.0798  0.0521
 1190ERGO    R516936  14.229   0.761   6.242 -0.1008  0.1402  0.1266
 1190ERGO    C116937  14.228   0.959   6.568 -0.1781  0.0056  0.2077
 1190ERGO    C216938  14.281   1.215   6.848 -0.0669 -0.0274  0.1106
 1191ERGO   ROH16939   9.317  11.626   5.708  0.0760 -0.2338 -0.0974
 1191ERGO    R116940   9.309  11.450   5.930 -0.0259 -0.1583 -0.0408
 1191ERGO    R216941   9.435  11.507   6.169 -0.0152 -0.1419 -0.0521
 1191ERGO    R316942   9.188  11.462   6.273 -0.0449  0.0120 -0.0524
 1191ERGO    R416943   9.367  11.461   6.505 -0.0727  0.0867 -0.0304
 1191ERGO    R516944   9.225  11.305   6.450 -0.1238  0.1045  0.0482
 1191ERGO    C116945   9.096  11.392   6.797 -0.1340  0.3643 -0.0180
 1191ERGO    C216946   8.814  11.426   6.921 -0.0599  0.1120  0.1053
 1192ERGO   ROH16947  17.840  19.370   5.812  0.1006 -0.0035  0.1837
 1192ERGO    R116948  17.667  19.343   6.035  0.0919 -0.0248  0.1741
 1192ERGO    R216949  17.427  19.477   6.054  0.1111  0.0036  0.1950
 1192ERGO    R316950  17.327  19.227   6.094  0.0746  0.0094  0.1439
 1192ERGO    R416951  17.110  19.407   6.174  0.1382  0.0279  0.2824
 1192ERGO    R516952  17.196  19.246   6.294  0.1484 -0.0315  0.1977
 1192ERGO    C116953  16.832  19.132   6.281  0.1199  0.0475  0.2852
 1192ERGO    C216954  16.527  19.125   6.023 -0.0217  0.2284 -0.3481
 1193ERGO   ROH16955   8.123   3.532   7.175  0.2817  0.2163 -0.1687
 1193ERGO    R116956   8.164   3.483   6.899  0.3032  0.1702 -0.1578
 1193ERGO    R216957   8.402   3.382   6.800  0.2448 -0.0343 -0.1015
 1193ERGO    R316958   8.238   3.195   6.690  0.1093  0.0976 -0.1265
 1193ERGO    R416959   8.478   3.193   6.521  0.0716 -0.0094 -0.1666
 1193ERGO    R516960   8.272   3.218   6.454  0.0792  0.1372 -0.1238
 1193ERGO    C116961   8.368   2.907   6.255 -0.1566  0.1288 -0.2279
 1193ERGO    C216962   8.346   2.835   5.922  0.3282 -0.2571  0.2636
 1194ERGO   ROH16963  16.606  16.779   5.377  0.1049  0.1451  0.0146
 1194ERGO    R116964  16.569  16.693   5.644  0.0129 -0.0284 -0.0522
 1194ERGO    R216965  16.681  16.460   5.743  0.2715  0.0846 -0.0709
 1194ERGO    R316966  16.781  16.627   5.932 -0.1182  0.1490  0.0872
 1194ERGO    R416967  16.760  16.366   6.066  0.4612 -0.0362 -0.1508
 1194ERGO    R516968  16.677  16.555   6.136  0.0222 -0.2790  0.0190
 1194ERGO    C116969  16.900  16.468   6.432  0.2061 -0.0465 -0.0489
 1194ERGO    C216970  16.962  16.581   6.649 -0.1030 -0.0804 -0.0870
 1195ERGO   ROH16971   3.214  16.755   5.725 -0.0754 -0.1489  0.0430
 1195ERGO    R116972   3.048  16.771   5.953 -0.0803 -0.1770  0.0416
 1195ERGO    R216973   3.008  16.557   6.124  0.2119 -0.0947  0.2226
 1195ERGO    R316974   3.089  16.734   6.313 -0.0011  0.1719  0.0713
 1195ERGO    R416975   2.880  16.576   6.444  0.3809 -0.1596  0.2947
 1195ERGO    R516976   2.888  16.793   6.430 -0.0437 -0.1458  0.1651
 1195ERGO    C116977   2.882  16.753   6.809  0.2794  0.0529  0.1947
 1195ERGO    C216978   2.803  16.647   7.172 -0.0369  0.2068  0.2214
 1196ERGO   ROH16979   4.306   4.484   5.544 -0.1017  0.1286 -0.1505
 1196ERGO    R116980   4.476   4.589   5.745 -0.1258  0.0471 -0.0858
 1196ERGO    R216981   4.711   4.723   5.686 -0.1015  0.0472 -0.0009
 1196ERGO    R316982   4.601   4.917   5.840 -0.1121  0.0046  0.0436
 1196ERGO    R416983   4.886   4.920   5.909 -0.1357 -0.0939  0.1513
 1196ERGO    R516984   4.719   4.902   6.048 -0.1920 -0.1158  0.0810
 1196ERGO    C116985   4.884   5.218   6.184 -0.1656 -0.2162  0.2817
 1196ERGO    C216986   4.843   5.600   6.242  0.0094  0.2190  0.2066
 1197ERGO   ROH16987   3.855   8.039   6.086 -0.0192  0.0827 -0.0349
 1197ERGO    R116988   3.861   8.001   6.367 -0.1578 -0.0134 -0.0422
 1197ERGO    R216989   3.808   8.205   6.545  0.2080  0.0546  0.0096
 1197ERGO    R316990   3.625   8.029   6.643 -0.1764  0.3833 -0.0959
 1197ERGO    R416991   3.754   8.142   6.881  0.3198 -0.2908 -0.0337
 1197ERGO    R516992   3.733   7.930   6.833 -0.2723 -0.1769 -0.3214
 1197ERGO    C116993   3.550   7.941   7.168  0.0241 -0.1831 -0.1579
 1197ERGO    C216994   3.308   7.950   7.462  0.2385 -0.1142  0.3339
 1198ERGO   ROH16995   6.144   0.913   5.543  0.0010  0.1799 -0.0590
 1198ERGO    R116996   6.139   0.832   5.815  0.0648  0.0456 -0.0972
 1198ERGO    R216997   6.263   0.976   6.015  0.1170 -0.0581 -0.0571
 1198ERGO    R316998   6.017   0.969   6.129  0.1453 -0.1069  0.0025
 1198ERGO    R416999   6.190   1.082   6.336  0.1684 -0.0222 -0.0569
 1198ERGO    R517000   6.058   0.910   6.357  0.2189 -0.0574  0.0041
 1198ERGO    C117001   5.916   1.137   6.630  0.2249 -0.0472 -0.0009
 1198ERGO    C217002   5.682   1.487   6.690  0.0422  0.4461  0.0955
 1199ERGO   ROH17003   3.090   3.733   5.890  0.1858  0.0378 -0.1189
 1199ERGO    R117004   2.964   3.564   6.080  0.2454  0.0402 -0.0760
 1199ERGO    R217005   3.107   3.397   6.247  0.3102  0.1725  0.0093
 1199ERGO    R317006   2.967   3.525   6.442  0.2143  0.1752 -0.0619
 1199ERGO    R417007   3.098   3.301   6.579 -0.0981  0.0074 -0.0430
 1199ERGO    R517008   2.885   3.348   6.582 -0.0630  0.1672 -0.2316
 1199ERGO    C117009   2.962   3.365   6.955 -0.4259 -0.0862 -0.1404
 1199ERGO    C217010   3.147   3.411   7.274 -0.0822  0.0960  0.1269
 1200ERGO   ROH17011   5.491   2.168   5.307 -0.0113  0.3629 -0.0491
 1200ERGO    R117012   5.471   2.196   5.587 -0.0514 -0.1417  0.0077
 1200ERGO    R217013   5.322   2.396   5.706  0.3564 -0.0175  0.3326
 1200ERGO    R317014   5.205   2.187   5.836 -0.1785 -0.0237 -0.1220
 1200ERGO    R417015   5.122   2.425   5.987  0.4043 -0.1107  0.3774
 1200ERGO    R517016   5.218   2.246   6.068 -0.0391 -0.5430  0.0170
 1200ERGO    C117017   4.896   2.246   6.271 -0.0699 -0.1707 -0.0233
 1200ERGO    C217018   4.753   2.301   6.546  0.0538  0.1284 -0.0479
 1201ERGO   ROH17019  13.490  12.225   5.542 -0.2490 -0.1770 -0.1372
 1201ERGO    R117020  13.561  12.053   5.755 -0.1480 -0.0270 -0.0484
 1201ERGO    R217021  13.820  11.965   5.796 -0.0909  0.1700  0.0161
 1201ERGO    R317022  13.782  12.067   6.044 -0.1808  0.2621 -0.0346
 1201ERGO    R417023  14.027  11.908   6.067 -0.2109  0.2324  0.1217
 1201ERGO    R517024  13.849  11.892   6.193 -0.2675  0.3015  0.0546
 1201ERGO    C117025  14.111  11.972   6.459 -0.3651  0.3552  0.1356
 1201ERGO    C217026  14.382  11.901   6.655 -0.0286  0.1823  0.3313
 1202ERGO   ROH17027  16.083   8.949   4.810  0.0954  0.1462  0.0914
 1202ERGO    R117028  15.932   9.023   5.038  0.0105  0.1183  0.0448
 1202ERGO    R217029  15.684   8.915   5.094  0.0180  0.0645 -0.0272
 1202ERGO    R317030  15.800   8.855   5.332 -0.0407  0.0963  0.0096
 1202ERGO    R417031  15.514   8.878   5.392 -0.0776 -0.0536 -0.0954
 1202ERGO    R517032  15.676   8.983   5.492 -0.1665  0.0177 -0.0221
 1202ERGO    C117033  15.523   8.800   5.790 -0.1884 -0.0926 -0.1005
 1202ERGO    C217034  15.414   8.698   6.037  0.1969 -0.0087 -0.1749
 1203ERGO   ROH17035   7.720   6.168   5.598 -0.0488  0.0169  0.0558
 1203ERGO    R117036   7.907   6.228   5.803 -0.1808  0.0343  0.1734
 1203ERGO    R217037   7.882   6.131   6.060 -0.1512 -0.2507  0.0755
 1203ERGO    R317038   8.135   6.041   6.016 -0.0313  0.0837  0.0574
 1203ERGO    R417039   8.088   5.997   6.303 -0.0985 -0.3366 -0.0166
 1203ERGO    R517040   8.255   6.105   6.213 -0.1803 -0.0350  0.1872
 1203ERGO    C117041   8.446   5.835   6.403  0.0448 -0.0727 -0.0873
 1203ERGO    C217042   8.467   5.846   6.599  0.2927 -0.1888  0.0067
 1204ERGO   ROH17043   5.360  14.529   6.179 -0.1249  0.0296 -0.0104
 1204ERGO    R117044   5.493  14.758   6.278 -0.0921 -0.0254  0.0720
 1204ERGO    R217045   5.369  14.944   6.442 -0.0724 -0.0539  0.1144
 1204ERGO    R317046   5.580  14.893   6.605 -0.0970 -0.1387  0.1212
 1204ERGO    R417047   5.457  15.135   6.716 -0.0306 -0.1065  0.1384
 1204ERGO    R517048   5.666  15.109   6.660 -0.0323 -0.1680  0.1466
 1204ERGO    C117049   5.706  15.198   7.029 -0.0293 -0.2167  0.1588
 1204ERGO    C217050   5.747  15.378   7.305  0.1306 -0.2497 -0.0594
 1205ERGO   ROH17051  18.145  13.348   5.139  0.1013 -0.0245 -0.0297
 1205ERGO    R117052  18.142  13.379   5.421  0.1202 -0.1044 -0.0198
 1205ERGO    R217053  18.284  13.213   5.589  0.1565 -0.1355 -0.0759
 1205ERGO    R317054  18.387  13.447   5.682  0.1335 -0.1474 -0.0221
 1205ERGO    R417055  18.460  13.247   5.885  0.1144 -0.1755 -0.0469
 1205ERGO    R517056  18.355  13.436   5.919  0.1028 -0.1876 -0.0297
 1205ERGO    C117057  18.659  13.487   6.144  0.0683 -0.2098  0.0205
 1205ERGO    C217058  18.930  13.397   6.411  0.0353 -0.0399 -0.1525
 1206ERGO   ROH17059   0.820   3.023   5.693 -0.1620  0.1246 -0.0209
 1206ERGO    R117060   0.713   2.885   5.916 -0.2429  0.2095 -0.0075
 1206ERGO    R217061   0.870   2.785   6.119 -0.2753 -0.0837 -0.1262
 1206ERGO    R317062   0.704   2.931   6.277  0.0193  0.1093  0.0148
 1206ERGO    R417063   0.752   2.683   6.427 -0.6217 -0.2432 -0.3044
 1206ERGO    R517064   0.558   2.768   6.375 -0.4145  0.3068 -0.2639
 1206ERGO    C117065   0.528   2.762   6.756 -0.5469 -0.1550 -0.2759
 1206ERGO    C217066   0.442   2.808   7.104  0.1230  0.1178 -0.1772
 1207ERGO   ROH17067   2.636   0.735   5.471  0.1111  0.1565  0.0818
 1207ERGO    R117068   2.442   0.879   5.618  0.0225  0.0229  0.0965
 1207ERGO    R217069   2.304   0.770   5.830  0.1892 -0.0396  0.1691
 1207ERGO    R317070   2.397   0.989   5.962  0.0254  0.0880  0.0779
 1207ERGO    R417071   2.181   0.885   6.132  0.0193  0.0555  0.0652
 1207ERGO    R517072   2.200   1.089   6.056 -0.0688  0.0299 -0.0446
 1207ERGO    C117073   2.196   1.157   6.431 -0.2335  0.2306 -0.0809
 1207ERGO    C217074   2.136   1.372   6.732  0.5701 -0.1206 -0.1107
 1208ERGO   ROH17075  18.998  14.367   5.634  0.1771 -0.1302 -0.0029
 1208ERGO    R117076  19.070  14.399   5.906  0.0755  0.1199 -0.0034
 1208ERGO    R217077  18.914  14.541   6.086 -0.2139 -0.0803 -0.0956
 1208ERGO    R317078  18.928  14.310   6.229  0.1799  0.0019  0.0124
 1208ERGO    R417079  18.811  14.505   6.414 -0.3077 -0.1282 -0.1296
 1208ERGO    R517080  18.986  14.381   6.450 -0.0639  0.2295  0.0130
 1208ERGO    C117081  18.764  14.268   6.739  0.0075 -0.0790 -0.0480
 1208ERGO    C217082  18.564  14.036   6.870  0.1136  0.0296  0.1104
 1209ERGO   ROH17083  15.170   4.239   5.563 -0.0037 -0.3127 -0.0596
 1209ERGO    R117084  15.306   4.356   5.782 -0.0883 -0.1762 -0.0795
 1209ERGO    R217085  15.190   4.549   5.943 -0.2365 -0.2469 -0.1011
 1209ERGO    R317086  15.257   4.376   6.142 -0.0917 -0.1686 -0.0804
 1209ERGO    R417087  15.232   4.636   6.275 -0.3026 -0.1732 -0.1114
 1209ERGO    R517088  15.404   4.503   6.283 -0.1920 -0.0318 -0.0974
 1209ERGO    C117089  15.320   4.526   6.655 -0.2051 -0.0568 -0.0981
 1209ERGO    C217090  15.085   4.583   6.950  0.3311  0.1814  0.4179
 1210ERGO   ROH17091   2.942  15.079   5.767 -0.0620  0.2087  0.1510
 1210ERGO    R117092   2.987  14.871   5.954 -0.1059  0.2537  0.2102
 1210ERGO    R217093   2.852  14.857   6.195 -0.3186  0.1938  0.0844
 1210ERGO    R317094   2.789  14.607   6.108 -0.0840  0.1425  0.0530
 1210ERGO    R417095   2.769  14.590   6.399 -0.1010  0.1031  0.0582
 1210ERGO    R517096   2.887  14.461   6.270  0.0347  0.2169  0.0559
 1210ERGO    C117097   2.662  14.201   6.436  0.2458  0.0022  0.0135
 1210ERGO    C217098   2.605  13.938   6.551 -0.3960 -0.1513  0.0625
 1211ERGO   ROH17099   3.812  12.539   5.967 -0.2688  0.0699 -0.0148
 1211ERGO    R117100   3.813  12.812   6.043 -0.1051  0.0679 -0.0039
 1211ERGO    R217101   3.606  12.928   6.185 -0.0439  0.1916 -0.0085
 1211ERGO    R317102   3.805  12.999   6.355 -0.0064  0.0585  0.0035
 1211ERGO    R417103   3.570  13.141   6.454  0.0418  0.0500  0.1159
 1211ERGO    R517104   3.762  13.229   6.405  0.0492  0.0380  0.1384
 1211ERGO    C117105   3.736  13.332   6.771  0.1270 -0.1574  0.1995
 1211ERGO    C217106   3.681  13.491   7.098  0.0982  0.2330  0.1365
 1212ERGO   ROH17107  19.447   9.521   5.495  0.0780  0.1056 -0.0318
 1212ERGO    R117108  19.458   9.613   5.762 -0.0784  0.1190 -0.0292
 1212ERGO    R217109  19.231   9.668   5.910 -0.1730 -0.1275 -0.0760
 1212ERGO    R317110  19.343   9.496   6.087 -0.0202 -0.0071 -0.0537
 1212ERGO    R417111  19.122   9.621   6.235 -0.2244 -0.2884 -0.1159
 1212ERGO    R517112  19.331   9.610   6.297 -0.2304 -0.0386 -0.0473
 1212ERGO    C117113  19.165   9.431   6.590 -0.1107 -0.2690 -0.1181
 1212ERGO    C217114  19.154   9.249   6.888 -0.1775 -0.0033  0.0761
 1213ERGO   ROH17115  14.156   4.645   5.368 -0.3402 -0.0322 -0.0621
 1213ERGO    R117116  14.075   4.827   5.569 -0.2591 -0.0144 -0.0433
 1213ERGO    R217117  13.829   4.813   5.693 -0.2456  0.0435  0.0070
 1213ERGO    R317118  13.979   4.808   5.919 -0.1974 -0.0007 -0.0274
 1213ERGO    R417119  13.743   4.970   5.988 -0.0923  0.1175  0.0114
 1213ERGO    R517120  13.953   5.028   6.012 -0.0651  0.0169 -0.0439
 1213ERGO    C117121  13.834   5.057   6.373  0.0422  0.1192 -0.0184
 1213ERGO    C217122  13.723   4.985   6.724  0.0070  0.1131 -0.1437
 1214ERGO   ROH17123   5.441   3.282   5.467 -0.0137 -0.1255  0.1614
 1214ERGO    R117124   5.518   3.547   5.529 -0.0654 -0.0793  0.0331
 1214ERGO    R217125   5.335   3.744   5.591 -0.0996 -0.1079  0.0264
 1214ERGO    R317126   5.487   3.771   5.815 -0.0233  0.0185 -0.0390
 1214ERGO    R417127   5.320   4.012   5.809 -0.0338  0.0058 -0.1069
 1214ERGO    R517128   5.538   4.005   5.825 -0.0296  0.0253 -0.1781
 1214ERGO    C117129   5.455   4.193   6.146  0.0761  0.1906 -0.2459
 1214ERGO    C217130   5.194   4.228   6.402 -0.1225 -0.0427  0.4546
 1215ERGO   ROH17131  11.832   7.052   5.599 -0.1426 -0.1233  0.1702
 1215ERGO    R117132  11.904   6.987   5.865 -0.0773  0.0223  0.1897
 1215ERGO    R217133  12.160   6.913   5.936 -0.1072 -0.1626  0.1251
 1215ERGO    R317134  12.134   7.116   6.116  0.1652  0.0115 -0.0254
 1215ERGO    R417135  12.346   6.944   6.226  0.1152 -0.0373 -0.0275
 1215ERGO    R517136  12.164   7.010   6.329  0.2372  0.1786  0.0449
 1215ERGO    C117137  12.429   7.152   6.564  0.5005  0.1992 -0.2576
 1215ERGO    C217138  12.554   7.224   6.777  0.2587  0.0887 -0.3423
 1216ERGO   ROH17139  11.551  19.476   5.682  0.1154  0.0716  0.0775
 1216ERGO    R117140  11.512  19.447   5.961  0.0494 -0.0141  0.0603
 1216ERGO    R217141  11.667  19.279   6.116  0.0461 -0.0272  0.0567
 1216ERGO    R317142  11.706  19.504   6.263 -0.0383 -0.0574  0.1242
 1216ERGO    R417143  11.874  19.302   6.391  0.2504  0.0400 -0.1011
 1216ERGO    R517144  11.724  19.426   6.488  0.2169 -0.1400  0.0758
 1216ERGO    C117145  12.032  19.527   6.690  0.2902  0.0509 -0.1296
 1216ERGO    C217146  12.370  19.537   6.833  0.0955  0.2283  0.0830
 1217ERGO   ROH17147  18.075  15.809   5.531  0.0935  0.2047  0.1424
 1217ERGO    R117148  17.965  15.673   5.754 -0.0111  0.1542  0.0610
 1217ERGO    R217149  17.999  15.762   6.013 -0.0925  0.0690  0.1011
 1217ERGO    R317150  17.728  15.751   6.019 -0.0964  0.1107 -0.0024
 1217ERGO    R417151  17.809  15.724   6.299 -0.2147  0.2728  0.0489
 1217ERGO    R517152  17.678  15.589   6.189 -0.1878  0.2223  0.0789
 1217ERGO    C117153  17.443  15.691   6.471 -0.2892  0.4307 -0.0787
 1217ERGO    C217154  17.253  15.725   6.714  0.1188 -0.2331  0.0928
 1218ERGO   ROH17155   4.151  14.256   5.663  0.1220  0.0260  0.1209
 1218ERGO    R117156   4.120  14.306   5.940  0.1848 -0.1333  0.1573
 1218ERGO    R217157   3.884  14.400   6.050  0.3185  0.1440  0.2120
 1218ERGO    R317158   3.909  14.181   6.209 -0.0194 -0.0181  0.0539
 1218ERGO    R417159   3.723  14.356   6.352  0.4051  0.2777  0.2789
 1218ERGO    R517160   3.906  14.269   6.432  0.2909 -0.1447  0.1161
 1218ERGO    C117161   3.653  14.124   6.678  0.1383  0.2032  0.1694
 1218ERGO    C217162   3.625  13.878   6.797  0.2412 -0.1740 -0.1592
 1219ERGO   ROH17163   2.161  10.558   5.697 -0.1686 -0.1619 -0.0098
 1219ERGO    R117164   2.080  10.628   5.959 -0.1957 -0.1824 -0.0124
 1219ERGO    R217165   1.928  10.460   6.117 -0.0805 -0.2611  0.0173
 1219ERGO    R317166   2.130  10.497   6.295 -0.0909 -0.1128 -0.0007
 1219ERGO    R417167   1.888  10.481   6.460 -0.1011  0.0319 -0.0015
 1219ERGO    R517168   2.037  10.641   6.462 -0.0988  0.0320 -0.1283
 1219ERGO    C117169   2.055  10.529   6.826 -0.1229  0.3417 -0.0292
 1219ERGO    C217170   2.075  10.655   7.090  0.0345 -0.4210 -0.2992
 1220ERGO   ROH17171   7.457  13.091   5.789 -0.1134 -0.4520 -0.1459
 1220ERGO    R117172   7.332  12.914   5.971 -0.1758 -0.2740 -0.0097
 1220ERGO    R217173   7.441  12.853   6.217 -0.0945 -0.2773 -0.0396
 1220ERGO    R317174   7.197  12.932   6.308  0.0232 -0.0205  0.0574
 1220ERGO    R417175   7.325  12.807   6.540  0.0272 -0.0269  0.0412
 1220ERGO    R517176   7.130  12.758   6.458 -0.0571  0.1109  0.1699
 1220ERGO    C117177   7.029  12.855   6.813  0.2086  0.3601  0.1793
 1220ERGO    C217178   6.914  12.855   7.129  0.0437  0.1947 -0.2848
 1221ERGO   ROH17179   5.115  14.122   5.901  0.0769  0.2526 -0.1231
 1221ERGO    R117180   4.992  14.114   6.155 -0.0939  0.2938 -0.2026
 1221ERGO    R217181   5.123  14.022   6.381 -0.3561 -0.0084 -0.1627
 1221ERGO    R317182   5.049  14.264   6.482 -0.0795  0.0495 -0.0917
 1221ERGO    R417183   5.045  14.083   6.712 -0.0035  0.0620 -0.0891
 1221ERGO    R517184   4.883  14.212   6.646  0.0329  0.1832  0.0641
 1221ERGO    C117185   4.931  14.345   7.000  0.4614  0.1574  0.0203
 1221ERGO    C217186   5.135  14.370   7.316  0.1596 -0.2514  0.0317
 1222ERGO   ROH17187   8.895  19.625   5.360 -0.1898  0.1859 -0.0184
 1222ERGO    R117188   8.775  19.633   5.616  0.0199 -0.1056  0.0944
 1222ERGO    R217189   8.912  19.570   5.847  0.3604  0.1186 -0.0395
 1222ERGO    R317190   8.826  19.815   5.927 -0.0603 -0.0594  0.0807
 1222ERGO    R417191   8.943  19.695   6.168  0.5258  0.1677 -0.0732
 1222ERGO    R517192   8.743  19.779   6.149  0.3079 -0.2540  0.1961
 1222ERGO    C117193   8.880  19.997   6.430  0.2270  0.0290  0.0200
 1222ERGO    C217194   8.994  20.074   6.783 -0.1605 -0.2890  0.0864
 1223ERGO   ROH17195   7.786   1.200   5.899 -0.0492 -0.2270 -0.1235
 1223ERGO    R117196   7.730   0.936   5.986 -0.0774 -0.2053 -0.0751
 1223ERGO    R217197   7.927   0.744   6.013 -0.0924 -0.2127 -0.0085
 1223ERGO    R317198   7.827   0.724   6.265 -0.1272 -0.1519 -0.0172
 1223ERGO    R417199   7.964   0.469   6.219 -0.0688 -0.1375  0.0886
 1223ERGO    R517200   7.758   0.496   6.284 -0.0831 -0.1592  0.0474
 1223ERGO    C117201   7.892   0.290   6.575 -0.0878 -0.0365  0.1369
 1223ERGO    C217202   8.105   0.195   6.837 -0.1521 -0.7011  0.1597
 1224ERGO   ROH17203  19.410  11.023   6.025  0.0687 -0.1353  0.1749
 1224ERGO    R117204  19.385  11.221   6.226 -0.0371 -0.0882  0.1115
 1224ERGO    R217205  19.324  11.159   6.488  0.1066 -0.0498  0.1357
 1224ERGO    R317206  19.550  11.301   6.540 -0.0049  0.1786  0.0355
 1224ERGO    R417207  19.448  11.226   6.804  0.4982 -0.5169  0.0950
 1224ERGO    R517208  19.498  11.427   6.737  0.0987 -0.2803  0.3920
 1224ERGO    C117209  19.732  11.397   7.037  0.6216 -0.5746 -0.0229
 1224ERGO    C217210  20.052  11.418   7.253  0.1848 -0.0410 -0.2321
 1225ERGO   ROH17211  10.466   2.006   5.397 -0.1178 -0.3516 -0.0544
 1225ERGO    R117212  10.574   1.977   5.657 -0.0381 -0.0782 -0.0540
 1225ERGO    R217213  10.670   2.191   5.803 -0.1757  0.1061 -0.2282
 1225ERGO    R317214  10.496   2.099   5.991 -0.0640  0.1023 -0.1252
 1225ERGO    R417215  10.638   2.320   6.122  0.0319  0.0811 -0.1958
 1225ERGO    R517216  10.617   2.116   6.197  0.0661  0.0771 -0.1991
 1225ERGO    C117217  10.456   2.309   6.485  0.2577  0.0629 -0.0802
 1225ERGO    C217218  10.424   2.516   6.827 -0.5815  0.0200 -0.0384
 1226ERGO   ROH17219   0.062  11.738   5.680 -0.1618 -0.0514 -0.3075
 1226ERGO    R117220   0.028  11.875   5.925 -0.1528  0.0216 -0.3463
 1226ERGO    R217221  -0.219  11.959   6.016 -0.1731 -0.0973 -0.2850
 1226ERGO    R317222  -0.151  11.817   6.237  0.0009  0.0276 -0.2565
 1226ERGO    R417223  -0.321  12.034   6.337 -0.3718 -0.2319 -0.3151
 1226ERGO    R517224  -0.121  11.983   6.407 -0.3041  0.0923 -0.2621
 1226ERGO    C117225  -0.317  11.944   6.732 -0.3240 -0.1930 -0.3059
 1226ERGO    C217226  -0.536  11.829   7.026 -0.1991  0.4500  0.2332
 1227ERGO   ROH17227  17.041   0.300   5.428  0.0318  0.1428 -0.3058
 1227ERGO    R117228  17.188   0.329   5.668 -0.0743  0.0479 -0.2281
 1227ERGO    R217229  17.459   0.384   5.671 -0.0536 -0.0548 -0.0860
 1227ERGO    R317230  17.382   0.591   5.829 -0.0527 -0.0514 -0.0900
 1227ERGO    R417231  17.632   0.496   5.948 -0.0011  0.0123 -0.1460
 1227ERGO    R517232  17.442   0.523   6.051  0.0208 -0.0135 -0.0979
 1227ERGO    C117233  17.661   0.757   6.258  0.0303  0.0546 -0.1847
 1227ERGO    C217234  17.904   0.868   6.453 -0.1296  0.0787  0.2495
 1228ERGO   ROH17235  17.994   2.218   5.131 -0.3826 -0.0905  0.0699
 1228ERGO    R117236  17.920   2.090   5.373 -0.0560 -0.0328  0.2069
 1228ERGO    R217237  18.059   1.875   5.475 -0.0440 -0.1589 -0.0485
 1228ERGO    R317238  18.073   2.030   5.698  0.4931 -0.1647 -0.0661
 1228ERGO    R417239  18.063   1.755   5.799 -0.2924 -0.1337 -0.0349
 1228ERGO    R517240  17.932   1.919   5.856  0.2088  0.2719 -0.0059
 1228ERGO    C117241  18.079   1.831   6.197  0.0670 -0.1245 -0.0434
 1228ERGO    C217242  18.111   1.662   6.417 -0.0584 -0.0244 -0.2309
 1229ERGO   ROH17243  12.231   9.758   5.072  0.1725  0.1542 -0.0392
 1229ERGO    R117244  12.193   9.638   5.325  0.0575  0.0065 -0.1235
 1229ERGO    R217245  12.242   9.370   5.372  0.2699  0.0260 -0.1977
 1229ERGO    R317246  12.400   9.467   5.571  0.0033  0.0963 -0.0165
 1229ERGO    R417247  12.396   9.178   5.615  0.3345  0.0637 -0.2099
 1229ERGO    R517248  12.347   9.332   5.761  0.0340 -0.0925 -0.1441
 1229ERGO    C117249  12.634   9.157   5.943  0.1220  0.1517 -0.0469
 1229ERGO    C217250  12.711   8.984   6.201  0.1368  0.2637  0.1766
 1230ERGO   ROH17251   1.584   0.066   5.526  0.1109 -0.0676 -0.3099
 1230ERGO    R117252   1.563  -0.002   5.800  0.0272  0.0226 -0.2938
 1230ERGO    R217253   1.783  -0.027   5.964 -0.0112 -0.0959 -0.2616
 1230ERGO    R317254   1.649   0.153   6.118  0.1028  0.0461 -0.3251
 1230ERGO    R417255   1.843   0.027   6.300 -0.1527 -0.2072 -0.2173
 1230ERGO    R517256   1.627   0.043   6.331 -0.1573  0.0436 -0.3493
 1230ERGO    C117257   1.752   0.227   6.641 -0.1281 -0.1386 -0.2512
 1230ERGO    C217258   1.858   0.220   6.964 -0.0044  0.1834  0.1881
 1231ERGO   ROH17259   4.495   5.794   5.661 -0.0156  0.0941  0.1346
 1231ERGO    R117260   4.355   5.853   5.900  0.0952  0.1011  0.2001
 1231ERGO    R217261   4.396   5.714   6.135  0.1058  0.0142  0.1541
 1231ERGO    R317262   4.441   5.962   6.236  0.2694 -0.0342  0.1990
 1231ERGO    R417263   4.340   5.807   6.463 -0.4371  0.1565  0.0296
 1231ERGO    R517264   4.262   5.997   6.391 -0.0062  0.2625 -0.1742
 1231ERGO    C117265   4.350   6.095   6.749 -0.5999  0.1938 -0.0007
 1231ERGO    C217266   4.336   6.365   7.018 -0.0510 -0.3936 -0.1460
 1232ERGO   ROH17267   0.737   0.546   5.504  0.3216  0.0532 -0.1339
 1232ERGO    R117268   0.846   0.672   5.733  0.1335  0.0699 -0.0514
 1232ERGO    R217269   0.689   0.802   5.920 -0.0262  0.0557 -0.1696
 1232ERGO    R317270   0.817   0.636   6.094 -0.1384  0.0710 -0.0722
 1232ERGO    R417271   0.605   0.763   6.253 -0.2811  0.0281 -0.2352
 1232ERGO    R517272   0.818   0.757   6.301 -0.3204  0.0604 -0.0663
 1232ERGO    C117273   0.676   0.585   6.610 -0.5347  0.0264 -0.1820
 1232ERGO    C217274   0.726   0.672   6.945  0.0238  0.0405 -0.1378
 1233ERGO   ROH17275   5.196   8.541   5.952 -0.0538  0.0481 -0.0290
 1233ERGO    R117276   5.338   8.590   6.192 -0.0171 -0.1200 -0.0144
 1233ERGO    R217277   5.281   8.804   6.358  0.2687 -0.0024 -0.0602
 1233ERGO    R317278   5.260   8.609   6.547 -0.0493  0.0561 -0.0301
 1233ERGO    R417279   5.312   8.854   6.698  0.1109  0.0376 -0.0512
 1233ERGO    R517280   5.423   8.668   6.711 -0.0878 -0.0781  0.0580
 1233ERGO    C117281   5.310   8.701   7.074 -0.2796  0.1157 -0.0177
 1233ERGO    C217282   5.253   8.757   7.292 -0.0002  0.3881 -0.1908
 1234ERGO   ROH17283   7.149  15.595   5.510 -0.0063  0.3201 -0.0486
 1234ERGO    R117284   7.024  15.648   5.758 -0.1817  0.2651 -0.1236
 1234ERGO    R217285   6.769  15.561   5.817 -0.0805 -0.0875 -0.1780
 1234ERGO    R317286   6.891  15.452   6.034  0.0056  0.2066 -0.0742
 1234ERGO    R417287   6.607  15.460   6.106 -0.0025  0.0251 -0.0941
 1234ERGO    R517288   6.772  15.543   6.221 -0.0775  0.2689 -0.1582
 1234ERGO    C117289   6.627  15.300   6.477  0.1238  0.3666  0.0522
 1234ERGO    C217290   6.465  15.114   6.770 -0.1734  0.1070  0.0428
 1235ERGO   ROH17291   7.637  19.665   5.292 -0.2083 -0.1061 -0.1285
 1235ERGO    R117292   7.728  19.725   5.553 -0.0657 -0.1696 -0.1624
 1235ERGO    R217293   7.597  19.904   5.719  0.1876  0.0141 -0.1551
 1235ERGO    R317294   7.599  19.694   5.892 -0.0132  0.0385 -0.1213
 1235ERGO    R417295   7.687  19.924   6.052  0.1977 -0.0101 -0.1567
 1235ERGO    R517296   7.791  19.734   6.031  0.0226 -0.1143 -0.1230
 1235ERGO    C117297   7.740  19.740   6.409  0.0151 -0.0012 -0.1258
 1235ERGO    C217298   7.922  19.689   6.695 -0.0865  0.3930  0.0184
 1236ERGO   ROH17299  19.799  13.869   5.628  0.1793  0.0840 -0.0426
 1236ERGO    R117300  19.859  13.831   5.901  0.0129 -0.0185 -0.0198
 1236ERGO    R217301  19.771  13.611   6.044  0.0539 -0.1474 -0.1975
 1236ERGO    R317302  20.035  13.583   6.101  0.0338 -0.0086 -0.0235
 1236ERGO    R417303  19.896  13.461   6.329 -0.0660 -0.4185 -0.2843
 1236ERGO    R517304  20.048  13.616   6.338 -0.1908 -0.3003  0.0397
 1236ERGO    C117305  20.217  13.346   6.549 -0.1548 -0.4462 -0.1715
 1236ERGO    C217306  20.497  13.225   6.684  0.1875  0.1799 -0.0320
 1237ERGO   ROH17307   4.906   7.358   5.510 -0.0017  0.1170 -0.0336
 1237ERGO    R117308   4.906   7.552   5.715 -0.0279  0.0728  0.0076
 1237ERGO    R217309   4.726   7.761   5.722 -0.0401  0.0574  0.0394
 1237ERGO    R317310   4.675   7.666   5.972 -0.0515  0.0042  0.0178
 1237ERGO    R417311   4.633   7.955   5.993 -0.4126 -0.0389 -0.0126
 1237ERGO    R517312   4.763   7.833   6.119 -0.3250  0.1205  0.0577
 1237ERGO    C117313   4.532   7.978   6.385 -0.6401 -0.1449 -0.0630
 1237ERGO    C217314   4.254   7.977   6.729 -0.1321 -0.1801  0.1435
 1238ERGO   ROH17315  17.517   6.842   5.544  0.4582  0.0429  0.1546
 1238ERGO    R117316  17.509   6.822   5.826  0.2638 -0.0436  0.1457
 1238ERGO    R217317  17.324   6.957   5.980  0.3260  0.1278  0.0798
 1238ERGO    R317318  17.271   6.709   6.077 -0.0274  0.1530 -0.0384
 1238ERGO    R417319  17.251   6.885   6.310  0.3151  0.0559  0.0611
 1238ERGO    R517320  17.373   6.706   6.293  0.0342 -0.1252 -0.0716
 1238ERGO    C117321  17.158   6.610   6.593 -0.0229  0.0377 -0.0608
 1238ERGO    C217322  17.148   6.571   6.880 -0.0354 -0.3468 -0.0960
 1239ERGO   ROH17323   9.351  16.753   5.934  0.2947 -0.0989  0.0210
 1239ERGO    R117324   9.414  16.660   6.194  0.0160 -0.1847  0.0598
 1239ERGO    R217325   9.524  16.823   6.388  0.0835 -0.3228  0.1342
 1239ERGO    R317326   9.311  16.738   6.534 -0.1144 -0.0779 -0.0020
 1239ERGO    R417327   9.469  16.900   6.720 -0.0189 -0.2862  0.1098
 1239ERGO    R517328   9.401  16.695   6.751 -0.2923 -0.2131  0.0503
 1239ERGO    C117329   9.236  16.865   7.051 -0.2642 -0.0353 -0.0323
 1239ERGO    C217330   9.212  17.151   7.316 -0.0290 -0.0418  0.2389
 1240ERGO   ROH17331   0.453   6.692   5.667 -0.0645 -0.2500 -0.1526
 1240ERGO    R117332   0.413   6.668   5.946  0.0115 -0.1369 -0.1313
 1240ERGO    R217333   0.379   6.423   6.070  0.0961 -0.0899 -0.0161
 1240ERGO    R317334   0.585   6.510   6.225  0.1165  0.0228 -0.1049
 1240ERGO    R417335   0.525   6.242   6.326  0.0084  0.1630  0.2190
 1240ERGO    R517336   0.536   6.425   6.443  0.0670  0.3049 -0.0012
 1240ERGO    C117337   0.803   6.217   6.620 -0.0236  0.4160  0.2727
 1240ERGO    C217338   0.933   5.958   6.833  0.0661 -0.1156  0.0936
 1241ERGO   ROH17339   4.216  10.402   6.243 -0.0930  0.0589 -0.0920
 1241ERGO    R117340   4.169  10.190   6.425 -0.0454  0.0036 -0.1474
 1241ERGO    R217341   3.981  10.207   6.628 -0.0078 -0.0711 -0.1238
 1241ERGO    R317342   3.888   9.977   6.516 -0.0092 -0.0564 -0.1602
 1241ERGO    R417343   3.802   9.963   6.795 -0.2093  0.0237 -0.1946
 1241ERGO    R517344   3.915   9.812   6.687 -0.1771 -0.0397 -0.1019
 1241ERGO    C117345   3.610   9.606   6.787 -0.3278  0.0927 -0.2700
 1241ERGO    C217346   3.390   9.319   6.732 -0.0665 -0.1741  0.3196
 1242ERGO   ROH17347   1.256  14.529   5.656 -0.1736 -0.1252  0.1917
 1242ERGO    R117348   1.240  14.425   5.919 -0.1149 -0.1584  0.1815
 1242ERGO    R217349   1.141  14.173   5.974 -0.0877 -0.1678  0.1687
 1242ERGO    R317350   1.380  14.143   6.101 -0.0621 -0.1722  0.1214
 1242ERGO    R417351   1.191  13.989   6.263 -0.0232 -0.2287  0.1202
 1242ERGO    R517352   1.325  14.145   6.333 -0.0253 -0.2289  0.1330
 1242ERGO    C117353   1.444  13.854   6.549  0.0384 -0.2683  0.0476
 1242ERGO    C217354   1.494  13.839   6.782  0.1327 -0.1497  0.1166
 1243ERGO   ROH17355  14.000  17.918   5.843 -0.1733  0.1699 -0.1720
 1243ERGO    R117356  13.929  17.854   6.109 -0.1170  0.0530 -0.1851
 1243ERGO    R217357  14.016  18.001   6.326 -0.0040 -0.0924 -0.1330
 1243ERGO    R317358  13.750  18.015   6.382  0.0170 -0.0309 -0.0440
 1243ERGO    R417359  13.882  18.088   6.633  0.1257  0.0836 -0.1246
 1243ERGO    R517360  13.731  17.933   6.606  0.0928  0.0848  0.0091
 1243ERGO    C117361  13.555  18.151   6.864  0.2213  0.2438 -0.0361
 1243ERGO    C217362  13.293  18.114   7.166  0.0832  0.1788 -0.1846
 1244ERGO   ROH17363   4.861  12.846   5.436  0.1390 -0.0820 -0.0602
 1244ERGO    R117364   4.764  12.852   5.702 -0.0293 -0.2386 -0.1160
 1244ERGO    R217365   4.763  12.629   5.865  0.3798 -0.2180 -0.0720
 1244ERGO    R317366   4.900  12.791   6.034 -0.0713  0.1369 -0.0251
 1244ERGO    R417367   4.675  12.690   6.193  0.2609 -0.6580 -0.0146
 1244ERGO    R517368   4.730  12.899   6.164 -0.3932 -0.4505  0.0784
 1244ERGO    C117369   4.753  12.878   6.544 -0.2318 -0.5812  0.0628
 1244ERGO    C217370   4.750  13.061   6.834  0.0969 -0.0878  0.1323
 1245ERGO   ROH17371   6.849   0.721   5.555  0.0861  0.0249  0.0424
 1245ERGO    R117372   6.703   0.855   5.757  0.0657  0.0075  0.0393
 1245ERGO    R217373   6.657   0.744   6.005  0.0686 -0.0006  0.0369
 1245ERGO    R317374   6.768   0.976   6.094  0.0427  0.0095  0.0427
 1245ERGO    R417375   6.765   0.799   6.329  0.3180 -0.0919 -0.0284
 1245ERGO    R517376   6.682   1.001   6.317  0.2190 -0.1225  0.1273
 1245ERGO    C117377   6.932   1.049   6.601  0.4389 -0.1356 -0.0610
 1245ERGO    C217378   7.170   1.060   6.709 -0.1572 -0.0101  0.0576
 1246ERGO   ROH17379  10.893  15.102   5.447 -0.0568  0.0198  0.0492
 1246ERGO    R117380  10.800  14.961   5.675 -0.2589 -0.0000 -0.0426
 1246ERGO    R217381  10.930  14.972   5.919 -0.2059 -0.3919 -0.0477
 1246ERGO    R317382  10.685  15.047   6.009 -0.0763 -0.0533  0.0355
 1246ERGO    R417383  10.799  14.889   6.228 -0.1685 -0.1136  0.0445
 1246ERGO    R517384  10.606  14.857   6.133 -0.2550  0.0870  0.1437
 1246ERGO    C117385  10.493  14.912   6.493 -0.0251  0.3664  0.1764
 1246ERGO    C217386  10.372  14.888   6.728 -0.2333  0.1293 -0.1525
 1247ERGO   ROH17387  10.005  12.407   5.530 -0.1945  0.0873 -0.0674
 1247ERGO    R117388  10.224  12.458   5.702 -0.2184 -0.0822  0.0168
 1247ERGO    R217389  10.353  12.703   5.710  0.0910 -0.2325 -0.0728
 1247ERGO    R317390  10.298  12.686   5.976 -0.0804  0.0023 -0.0913
 1247ERGO    R417391  10.533  12.861   5.958  0.2113 -0.3903 -0.0591
 1247ERGO    R517392  10.513  12.681   6.080 -0.1465 -0.2913  0.0298
 1247ERGO    C117393  10.587  12.937   6.353  0.1207 -0.2619 -0.0684
 1247ERGO    C217394  10.737  13.003   6.658 -0.0601  0.2411  0.1768
 1248ERGO   ROH17395   4.548   1.654   5.669  0.2213  0.0390  0.1377
 1248ERGO    R117396   4.441   1.465   5.850 -0.0994  0.1011  0.0191
 1248ERGO    R217397   4.592   1.348   6.051 -0.2929 -0.2734 -0.0432
 1248ERGO    R317398   4.392   1.441   6.210 -0.1481 -0.0359  0.0038
 1248ERGO    R417399   4.544   1.260   6.382 -0.1381  0.0367  0.0654
 1248ERGO    R517400   4.330   1.254   6.345 -0.1631  0.1123  0.2047
 1248ERGO    C117401   4.330   1.297   6.724  0.0881  0.4403  0.1727
 1248ERGO    C217402   4.445   1.362   6.972  0.2431 -0.1401  0.0481
 1249ERGO   ROH17403   2.170   5.942   5.457  0.0069  0.1173 -0.1144
 1249ERGO    R117404   2.128   6.096   5.691 -0.0431  0.1444 -0.1398
 1249ERGO    R217405   2.215   6.015   5.940 -0.1691  0.1315 -0.0939
 1249ERGO    R317406   2.336   6.259   5.941 -0.0948  0.0935 -0.0653
 1249ERGO    R417407   2.322   6.181   6.224 -0.1713  0.0967 -0.0740
 1249ERGO    R517408   2.249   6.367   6.137 -0.0957  0.1178 -0.0828
 1249ERGO    C117409   2.497   6.506   6.391 -0.1027  0.0407 -0.0356
 1249ERGO    C217410   2.547   6.556   6.703 -0.2954  0.3868  0.0675
 1250ERGO   ROH17411  14.088  15.167   5.898 -0.2094 -0.0354  0.0747
 1250ERGO    R117412  14.341  15.049   5.947 -0.1431  0.0942  0.0491
 1250ERGO    R217413  14.509  15.135   6.149 -0.1901  0.1448  0.0682
 1250ERGO    R317414  14.502  14.873   6.222 -0.0463  0.1242  0.0116
 1250ERGO    R417415  14.709  14.990   6.391 -0.1328  0.2055  0.0574
 1250ERGO    R517416  14.730  14.816   6.263 -0.0185  0.2455  0.0231
 1250ERGO    C117417  14.819  14.660   6.599  0.0355  0.2214 -0.0022
 1250ERGO    C217418  14.943  14.355   6.803  0.0212 -0.1859  0.5163
 1251ERGO   ROH17419  13.277  18.573   5.647 -0.2723  0.0224  0.0125
 1251ERGO    R117420  13.055  18.610   5.818 -0.1959  0.1154  0.0929
 1251ERGO    R217421  13.017  18.461   6.047 -0.2076  0.0886  0.0744
 1251ERGO    R317422  13.001  18.705   6.165 -0.0273  0.0739  0.1311
 1251ERGO    R417423  12.959  18.514   6.384 -0.3982  0.0541  0.0484
 1251ERGO    R517424  12.829  18.681   6.330 -0.1782  0.2135 -0.0026
 1251ERGO    C117425  12.912  18.775   6.690 -0.3397  0.0202  0.0864
 1251ERGO    C217426  12.854  18.738   7.109 -0.0087 -0.0384 -0.3898
 1252ERGO   ROH17427   1.616  18.126   5.820  0.0124  0.0355 -0.0430
 1252ERGO    R117428   1.553  18.230   6.076  0.0884  0.0740 -0.0396
 1252ERGO    R217429   1.469  18.069   6.285 -0.0429  0.1295 -0.0493
 1252ERGO    R317430   1.675  18.188   6.416  0.0491 -0.0388 -0.0389
 1252ERGO    R417431   1.518  18.057   6.626 -0.1083  0.1459 -0.0390
 1252ERGO    R517432   1.578  18.267   6.620  0.0896  0.0905 -0.0686
 1252ERGO    C117433   1.741  18.161   6.949 -0.0600 -0.0025 -0.0232
 1252ERGO    C217434   1.801  18.167   7.339  0.2365 -0.0310  0.0307
 1253ERGO   ROH17435   8.351  15.863   6.339  0.1579  0.2980 -0.0004
 1253ERGO    R117436   8.346  15.929   6.615 -0.0175  0.2098  0.0195
 1253ERGO    R217437   8.113  15.925   6.764 -0.0962  0.0361 -0.0949
 1253ERGO    R317438   8.258  15.761   6.925 -0.0847  0.0624 -0.0804
 1253ERGO    R417439   8.080  15.905   7.107 -0.0285  0.1173 -0.0842
 1253ERGO    R517440   8.297  15.890   7.122 -0.0336  0.0995 -0.1201
 1253ERGO    C117441   8.197  15.739   7.458  0.0218  0.1892 -0.0644
 1253ERGO    C217442   8.129  15.694   7.754 -0.1905 -0.1126 -0.0570
 1254ERGO   ROH17443   9.571  16.979   5.456 -0.1482  0.0535  0.0747
 1254ERGO    R117444   9.705  17.099   5.674 -0.1667  0.0642  0.0807
 1254ERGO    R217445   9.689  16.999   5.932 -0.1711  0.0622  0.0828
 1254ERGO    R317446   9.960  16.999   5.914 -0.1707  0.0816  0.0903
 1254ERGO    R417447   9.903  17.040   6.200 -0.1726  0.1307  0.0741
 1254ERGO    R517448  10.029  17.165   6.073 -0.1829  0.1141  0.0563
 1254ERGO    C117449  10.282  17.063   6.340 -0.1732  0.1888  0.0759
 1254ERGO    C217450  10.436  17.271   6.703  0.1715  0.2142 -0.1906
 1255ERGO   ROH17451   9.293   4.998   5.293 -0.0709 -0.0557  0.2858
 1255ERGO    R117452   9.372   5.177   5.497  0.0776  0.1161  0.0796
 1255ERGO    R217453   9.407   5.099   5.759 -0.1087  0.4125  0.1935
 1255ERGO    R317454   9.653   5.209   5.726  0.0414  0.0748  0.1318
 1255ERGO    R417455   9.601   5.228   6.014 -0.0158  0.4386  0.1111
 1255ERGO    R517456   9.658   5.392   5.882  0.2226  0.2381 -0.0528
 1255ERGO    C117457   9.945   5.407   6.132  0.1790  0.1369  0.0053
 1255ERGO    C217458  10.159   5.172   6.361 -0.1046 -0.3720  0.0010
 1256ERGO   ROH17459   9.889   7.860   5.313  0.1885  0.0965  0.0146
 1256ERGO    R117460   9.832   7.727   5.557 -0.0266  0.1057 -0.0293
 1256ERGO    R217461  10.020   7.694   5.756 -0.1391 -0.0772  0.0488
 1256ERGO    R317462   9.830   7.812   5.910 -0.1123  0.0549 -0.0173
 1256ERGO    R417463  10.058   7.772   6.091 -0.1436  0.0504  0.0204
 1256ERGO    R517464   9.852   7.706   6.124 -0.1698  0.1364  0.0297
 1256ERGO    C117465   9.901   7.928   6.430 -0.1212  0.2486 -0.0582
 1256ERGO    C217466   9.806   7.914   6.727  0.0916  0.0587  0.0922
 1257ERGO   ROH17467  18.948   3.780   5.695  0.2299  0.1582 -0.0199
 1257ERGO    R117468  18.896   3.608   5.913  0.0698  0.0864 -0.1113
 1257ERGO    R217469  18.986   3.661   6.169  0.2225 -0.1891 -0.0974
 1257ERGO    R317470  18.723   3.630   6.233  0.1962  0.1212 -0.0463
 1257ERGO    R417471  18.865   3.597   6.487  0.2077 -0.1410 -0.0943
 1257ERGO    R517472  18.722   3.458   6.399  0.0131  0.0699 -0.1046
 1257ERGO    C117473  18.548   3.531   6.731  0.1743  0.1784 -0.0445
 1257ERGO    C217474  18.522   3.633   7.126 -0.0582 -0.1957 -0.1873
 1258ERGO   ROH17475   6.680  11.382   5.735 -0.1324 -0.0305  0.2309
 1258ERGO    R117476   6.668  11.566   5.950  0.0207  0.1143  0.1186
 1258ERGO    R217477   6.577  11.495   6.202 -0.1137  0.3624  0.1427
 1258ERGO    R317478   6.816  11.597   6.281 -0.0174  0.1489  0.1328
 1258ERGO    R417479   6.654  11.594   6.524 -0.0039  0.2684  0.1461
 1258ERGO    R517480   6.760  11.765   6.441  0.1390  0.1856  0.1523
 1258ERGO    C117481   6.923  11.748   6.785  0.1506  0.0133  0.1388
 1258ERGO    C217482   7.038  11.597   7.080 -0.2195  0.3218 -0.0466
 1259ERGO   ROH17483   2.812  11.530   5.996  0.1691 -0.1993  0.0467
 1259ERGO    R117484   2.622  11.686   6.135  0.0906 -0.1692 -0.0926
 1259ERGO    R217485   2.412  11.575   6.276  0.1187 -0.1465 -0.0318
 1259ERGO    R317486   2.512  11.725   6.479  0.0366  0.0475 -0.1326
 1259ERGO    R417487   2.256  11.626   6.580  0.2194 -0.2659  0.0408
 1259ERGO    R517488   2.321  11.834   6.573 -0.0581 -0.1780 -0.0584
 1259ERGO    C117489   2.259  11.797   6.948  0.2009 -0.1534 -0.0117
 1259ERGO    C217490   2.200  11.771   7.281  0.0480 -0.0396 -0.0833
 1260ERGO   ROH17491   3.880  17.192   5.375  0.1175  0.1689 -0.0080
 1260ERGO    R117492   3.745  17.218   5.623 -0.0556  0.0251 -0.0839
 1260ERGO    R217493   3.599  17.011   5.735  0.0498 -0.1190 -0.1980
 1260ERGO    R317494   3.760  17.057   5.949 -0.1114 -0.0047 -0.0962
 1260ERGO    R417495   3.562  16.864   6.045  0.0126 -0.1990 -0.2404
 1260ERGO    R517496   3.612  17.055   6.137 -0.2145 -0.1687 -0.1797
 1260ERGO    C117497   3.692  16.821   6.427 -0.1604 -0.1383 -0.1695
 1260ERGO    C217498   3.564  16.621   6.664 -0.2219  0.0884 -0.2903
 1261ERGO   ROH17499  17.390  10.856   5.592 -0.1209 -0.3755 -0.0503
 1261ERGO    R117500  17.560  10.770   5.801 -0.2172 -0.2996  0.0610
 1261ERGO    R217501  17.756  10.932   5.908 -0.0753 -0.3571 -0.1076
 1261ERGO    R317502  17.632  10.872   6.143 -0.1510  0.0224 -0.0450
 1261ERGO    R417503  17.862  11.037   6.220  0.3478 -0.5728 -0.1725
 1261ERGO    R517504  17.811  10.839   6.298 -0.1601 -0.4348 -0.1153
 1261ERGO    C117505  17.807  11.042   6.622  0.5233 -0.3422 -0.1515
 1261ERGO    C217506  17.987  11.243   6.821  0.1549 -0.0560  0.0368
 1262ERGO   ROH17507   1.979   2.303   5.434 -0.0043  0.0938 -0.0479
 1262ERGO    R117508   2.079   2.301   5.699 -0.1730 -0.0722  0.0162
 1262ERGO    R217509   2.032   2.093   5.875 -0.1056 -0.2831 -0.2163
 1262ERGO    R317510   2.303   2.092   5.896 -0.1148 -0.0658 -0.0402
 1262ERGO    R417511   2.207   2.047   6.169 -0.2653 -0.0334 -0.0780
 1262ERGO    R517512   2.347   2.201   6.105 -0.3386  0.0538 -0.0483
 1262ERGO    C117513   2.564   2.020   6.360 -0.3670  0.3160  0.1678
 1262ERGO    C217514   2.647   1.934   6.604  0.0364 -0.1429 -0.1292
 1263ERGO   ROH17515  13.172  15.973   5.882 -0.0748 -0.1442 -0.0344
 1263ERGO    R117516  13.393  16.115   5.987 -0.0571 -0.0685 -0.1739
 1263ERGO    R217517  13.397  16.390   6.009 -0.1800 -0.0790 -0.0864
 1263ERGO    R317518  13.456  16.336   6.269  0.0721 -0.1316 -0.1498
 1263ERGO    R417519  13.603  16.583   6.209 -0.3421  0.1443 -0.1289
 1263ERGO    R517520  13.686  16.399   6.292  0.0018  0.2155 -0.2762
 1263ERGO    C117521  13.778  16.645   6.569 -0.2000  0.2246 -0.2131
 1263ERGO    C217522  14.088  16.784   6.750  0.4343  0.2246  0.0485
 1264ERGO   ROH17523  13.263  17.210   6.624  0.0186 -0.1928 -0.1930
 1264ERGO    R117524  13.479  17.100   6.770  0.0912 -0.0653 -0.2043
 1264ERGO    R217525  13.662  17.257   6.904 -0.0857  0.0396 -0.0882
 1264ERGO    R317526  13.592  17.103   7.116  0.0178 -0.1363 -0.1783
 1264ERGO    R417527  13.885  17.102   7.119  0.0340  0.3683  0.0324
 1264ERGO    R517528  13.755  16.927   7.119  0.3251  0.1366 -0.1083
 1264ERGO    C117529  13.948  16.867   7.443  0.2007  0.3946  0.0182
 1264ERGO    C217530  13.965  16.761   7.712 -0.0544 -0.1903 -0.0702
 1265ERGO   ROH17531   8.926   8.001   5.644 -0.2072  0.1545 -0.3173
 1265ERGO    R117532   8.821   7.952   5.902  0.0124 -0.0345 -0.2601
 1265ERGO    R217533   8.957   8.017   6.134  0.1236 -0.0164 -0.3293
 1265ERGO    R317534   8.729   8.151   6.193  0.0530 -0.2236 -0.1156
 1265ERGO    R417535   8.857   8.106   6.452  0.3162 -0.1500 -0.2297
 1265ERGO    R517536   8.653   8.053   6.398  0.3129 -0.3204 -0.0625
 1265ERGO    C117537   8.584   8.284   6.693  0.3620 -0.4222  0.0289
 1265ERGO    C217538   8.500   8.346   6.984  0.1296  0.3316 -0.0127
 1266ERGO   ROH17539   6.845  16.657   5.511 -0.3891  0.1182 -0.1624
 1266ERGO    R117540   6.786  16.565   5.772 -0.0364 -0.0568 -0.1396
 1266ERGO    R217541   6.984  16.492   5.952  0.2390  0.3291 -0.2700
 1266ERGO    R317542   6.858  16.672   6.112 -0.0555  0.0422 -0.1667
 1266ERGO    R417543   7.032  16.520   6.293  0.2790  0.2900 -0.2724
 1266ERGO    R517544   6.818  16.552   6.316  0.2186 -0.1138 -0.1995
 1266ERGO    C117545   6.942  16.705   6.642  0.0259 -0.0023 -0.1769
 1266ERGO    C217546   6.911  16.712   6.901 -0.1297  0.2308  0.0016
 1267ERGO   ROH17547   1.118  16.463   5.664  0.2166  0.0440  0.1984
 1267ERGO    R117548   1.223  16.240   5.802  0.2469  0.0245  0.1463
 1267ERGO    R217549   1.281  16.245   6.072  0.2222 -0.0403  0.1584
 1267ERGO    R317550   1.120  16.026   6.078  0.2598 -0.0695  0.0773
 1267ERGO    R417551   1.265  16.020   6.333  0.2063 -0.1064  0.0994
 1267ERGO    R517552   1.252  15.858   6.186  0.2626 -0.0718  0.0626
 1267ERGO    C117553   1.105  15.683   6.492  0.2323 -0.1722 -0.0111
 1267ERGO    C217554   1.002  15.590   6.847  0.2403  0.0723 -0.0784
 1268ERGO   ROH17555   6.661  19.480   5.480  0.0302 -0.2739  0.0704
 1268ERGO    R117556   6.600  19.577   5.738  0.0542 -0.1468  0.0284
 1268ERGO    R217557   6.617  19.420   5.964 -0.1150 -0.0909  0.0796
 1268ERGO    R317558   6.778  19.620   6.053  0.0248 -0.1888  0.0514
 1268ERGO    R417559   6.696  19.478   6.296 -0.3716  0.1130  0.1085
 1268ERGO    R517560   6.676  19.691   6.258 -0.0990  0.1074 -0.1051
 1268ERGO    C117561   6.893  19.700   6.572 -0.3899  0.1398  0.0990
 1268ERGO    C217562   7.035  19.755   6.932  0.2510 -0.0090  0.0375
 1269ERGO   ROH17563  17.696   9.490   5.340  0.0225 -0.1214 -0.0823
 1269ERGO    R117564  17.525   9.431   5.559 -0.0004  0.0207 -0.0608
 1269ERGO    R217565  17.335   9.230   5.549 -0.0922  0.1034  0.0034
 1269ERGO    R317566  17.461   9.145   5.774 -0.1263  0.1132  0.0261
 1269ERGO    R417567  17.201   9.010   5.779 -0.0830  0.0237 -0.0676
 1269ERGO    R517568  17.288   9.130   5.938 -0.1687  0.0299 -0.0250
 1269ERGO    C117569  17.242   8.801   6.124 -0.1096 -0.0135 -0.0877
 1269ERGO    C217570  17.278   8.628   6.459 -0.0585 -0.0681 -0.0987
 1270ERGO   ROH17571  12.046  12.542   5.688  0.2716  0.2601 -0.1297
 1270ERGO    R117572  12.136  12.545   5.956  0.1652  0.3784 -0.0941
 1270ERGO    R217573  12.128  12.772   6.113 -0.2188  0.3660 -0.0855
 1270ERGO    R317574  11.991  12.610   6.283 -0.0581  0.1604 -0.1480
 1270ERGO    R417575  12.079  12.833   6.450 -0.3928  0.2448 -0.0868
 1270ERGO    R517576  12.113  12.622   6.489 -0.1309  0.2815 -0.1136
 1270ERGO    C117577  11.923  12.717   6.805 -0.3430 -0.0188 -0.1461
 1270ERGO    C217578  11.898  12.492   7.112  0.2693  0.1484 -0.3607
 1271ERGO   ROH17579   3.025   5.761   5.458 -0.0915 -0.1898 -0.0304
 1271ERGO    R117580   2.998   5.684   5.729 -0.1672 -0.0917 -0.0091
 1271ERGO    R217581   3.208   5.577   5.875 -0.2483 -0.1848  0.0426
 1271ERGO    R317582   3.148   5.779   6.047 -0.1345 -0.0926 -0.0246
 1271ERGO    R417583   3.324   5.600   6.199 -0.1979 -0.1144  0.0198
 1271ERGO    R517584   3.127   5.671   6.260 -0.1574 -0.0020  0.0186
 1271ERGO    C117585   3.335   5.803   6.550 -0.0617  0.0132 -0.0566
 1271ERGO    C217586   3.579   5.839   6.846 -0.0589  0.0474 -0.0766
 1272ERGO   ROH17587   9.662  13.549   5.726 -0.0478  0.0261  0.1319
 1272ERGO    R117588   9.546  13.463   5.969 -0.2286 -0.2007 -0.0312
 1272ERGO    R217589   9.498  13.196   6.025  0.3543 -0.3211 -0.0497
 1272ERGO    R317590   9.644  13.250   6.248 -0.1283  0.1157  0.1811
 1272ERGO    R417591   9.503  13.001   6.310  0.3948 -0.2427  0.0039
 1272ERGO    R517592   9.502  13.183   6.429 -0.2620 -0.1983 -0.0296
 1272ERGO    C117593   9.643  12.937   6.685 -0.0347  0.2128  0.2518
 1272ERGO    C217594   9.840  12.688   6.971  0.3076 -0.0443  0.2552
 1273ERGO   ROH17595   1.626  10.817   5.747  0.0479 -0.1656 -0.0065
 1273ERGO    R117596   1.616  10.684   5.996  0.0715 -0.0365  0.0656
 1273ERGO    R217597   1.692  10.806   6.233 -0.0024  0.1235  0.0172
 1273ERGO    R317598   1.444  10.730   6.313  0.0154  0.0706  0.0176
 1273ERGO    R417599   1.570  10.838   6.555  0.0426 -0.0767  0.0549
 1273ERGO    R517600   1.477  10.643   6.534  0.0469 -0.0593 -0.0443
 1273ERGO    C117601   1.266  10.786   6.818  0.0856 -0.2429  0.0771
 1273ERGO    C217602   1.092  10.773   7.030 -0.0704 -0.0032 -0.0409
 1274ERGO   ROH17603  16.864   8.478   5.095 -0.1037  0.0414  0.0968
 1274ERGO    R117604  16.830   8.457   5.375  0.0440  0.0739  0.1170
 1274ERGO    R217605  16.852   8.674   5.544 -0.1180  0.1410  0.0494
 1274ERGO    R317606  16.605   8.596   5.625  0.0011 -0.1101  0.1829
 1274ERGO    R417607  16.721   8.728   5.860 -0.0586  0.1457  0.0743
 1274ERGO    R517608  16.636   8.528   5.853  0.1710  0.0373  0.2078
 1274ERGO    C117609  16.413   8.685   6.119  0.0880 -0.0873  0.2142
 1274ERGO    C217610  16.285   8.583   6.412  0.0725 -0.1149  0.1181
 1275ERGO   ROH17611   2.031  15.654   5.836  0.0504 -0.0760 -0.1528
 1275ERGO    R117612   1.895  15.439   5.961  0.0589 -0.0832 -0.1554
 1275ERGO    R217613   1.972  15.176   5.930  0.1463 -0.0711 -0.0581
 1275ERGO    R317614   1.977  15.179   6.202  0.0341 -0.0000 -0.0568
 1275ERGO    R417615   1.914  14.901   6.132  0.1731 -0.0418 -0.0107
 1275ERGO    R517616   1.800  15.030   6.266  0.0676 -0.0528 -0.0904
 1275ERGO    C117617   1.884  14.744   6.504  0.0834  0.0420  0.0181
 1275ERGO    C217618   1.885  14.672   6.817  0.0414  0.0260  0.2838
 1276ERGO   ROH17619  13.702  19.436   5.218 -0.2083  0.0463 -0.0249
 1276ERGO    R117620  13.811  19.479   5.475 -0.1163 -0.0350 -0.0504
 1276ERGO    R217621  13.696  19.651   5.658  0.1034  0.1195 -0.0590
 1276ERGO    R317622  13.703  19.432   5.819 -0.1101  0.1354 -0.0233
 1276ERGO    R417623  13.750  19.659   5.999  0.2191  0.1206 -0.0764
 1276ERGO    R517624  13.875  19.482   5.978  0.0034 -0.0385 -0.0852
 1276ERGO    C117625  13.789  19.459   6.349  0.0861  0.1363 -0.0530
 1276ERGO    C217626  13.984  19.580   6.649 -0.3217  0.0743  0.3296
 1277ERGO   ROH17627   4.079  14.691   5.653 -0.0456 -0.0465 -0.0072
 1277ERGO    R117628   4.092  14.835   5.897 -0.0455  0.0278 -0.0497
 1277ERGO    R217629   3.883  14.840   6.078 -0.0170  0.0142 -0.0093
 1277ERGO    R317630   4.074  14.756   6.252  0.0441  0.1208 -0.0255
 1277ERGO    R417631   3.835  14.794   6.417  0.0033 -0.1565 -0.0294
 1277ERGO    R517632   4.032  14.881   6.452 -0.0803  0.0056  0.0173
 1277ERGO    C117633   3.986  14.689   6.778  0.0724 -0.1559 -0.0564
 1277ERGO    C217634   3.973  14.463   7.049 -0.1167  0.1056 -0.0328
 1278ERGO   ROH17635  15.049  17.480   9.039  0.1582  0.3348  0.1590
 1278ERGO    R117636  15.160  17.643   8.837  0.0458  0.2483  0.0250
 1278ERGO    R217637  15.416  17.606   8.739  0.0706  0.3360  0.0467
 1278ERGO    R317638  15.287  17.596   8.499  0.0648  0.0608  0.0584
 1278ERGO    R417639  15.557  17.691   8.436 -0.0375  0.2913 -0.0166
 1278ERGO    R517640  15.370  17.787   8.380 -0.1355  0.0692 -0.0658
 1278ERGO    C117641  15.520  17.731   8.034 -0.1059  0.0072 -0.0426
 1278ERGO    C217642  15.466  17.803   7.701 -0.1257  0.0646 -0.1781
 1279ERGO   ROH17643   7.842   7.286   5.522  0.1135 -0.0512 -0.1042
 1279ERGO    R117644   7.702   7.220   5.758  0.0310 -0.1300 -0.1743
 1279ERGO    R217645   7.610   6.965   5.811  0.2791 -0.2186 -0.1546
 1279ERGO    R317646   7.751   6.995   6.041  0.0979  0.0133 -0.0708
 1279ERGO    R417647   7.513   6.842   6.119  0.2125 -0.2222 -0.1768
 1279ERGO    R517648   7.583   7.028   6.209 -0.0490 -0.1132 -0.1902
 1279ERGO    C117649   7.589   6.799   6.515  0.0037 -0.0065 -0.1110
 1279ERGO    C217650   7.541   6.655   6.780  0.0919 -0.2074 -0.2082
 1280ERGO   ROH17651   8.529   0.310   5.250 -0.3275 -0.0841  0.0300
 1280ERGO    R117652   8.575   0.270   5.526 -0.2467 -0.0910  0.0161
 1280ERGO    R217653   8.750   0.426   5.673 -0.1855 -0.1090 -0.0350
 1280ERGO    R317654   8.533   0.463   5.832 -0.1338 -0.0889  0.0305
 1280ERGO    R417655   8.748   0.383   6.015 -0.1153 -0.2193 -0.0485
 1280ERGO    R517656   8.551   0.290   5.997 -0.1500 -0.1481 -0.0302
 1280ERGO    C117657   8.543   0.391   6.365 -0.0260 -0.2647  0.0051
 1280ERGO    C217658   8.545   0.396   6.685  0.0155  0.0415 -0.3246
 1281ERGO   ROH17659   3.323   2.312   5.617 -0.0277 -0.2414 -0.0355
 1281ERGO    R117660   3.368   2.257   5.891 -0.2009 -0.1428  0.0145
 1281ERGO    R217661   3.557   2.391   6.041 -0.1908 -0.1936  0.0459
 1281ERGO    R317662   3.346   2.440   6.205 -0.2434  0.0180 -0.0804
 1281ERGO    R417663   3.581   2.533   6.355 -0.2079 -0.3588  0.1226
 1281ERGO    R517664   3.430   2.392   6.425 -0.4518 -0.1919 -0.0401
 1281ERGO    C117665   3.397   2.662   6.692 -0.2672 -0.2562  0.0489
 1281ERGO    C217666   3.241   2.901   6.924  0.0983 -0.2411 -0.0643
 1282ERGO   ROH17667  19.408   4.453   5.721  0.0374  0.0329 -0.1234
 1282ERGO    R117668  19.459   4.557   5.980 -0.1996  0.1222 -0.1109
 1282ERGO    R217669  19.695   4.683   6.046 -0.1790 -0.0357  0.1137
 1282ERGO    R317670  19.529   4.883   6.125 -0.1200  0.1415 -0.1889
 1282ERGO    R417671  19.796   5.004   6.124  0.0084 -0.1049  0.1650
 1282ERGO    R517672  19.654   5.003   6.290 -0.2448  0.0706 -0.0349
 1282ERGO    C117673  19.698   5.379   6.244  0.1729  0.0213 -0.0893
 1282ERGO    C217674  19.818   5.687   6.495  0.1030 -0.1574  0.0217
 1283ERGO   ROH17675  19.519  10.561   5.673 -0.0759  0.0545  0.0561
 1283ERGO    R117676  19.537  10.626   5.948  0.0706 -0.1804  0.1051
 1283ERGO    R217677  19.729  10.518   6.114  0.3286 -0.1259 -0.1472
 1283ERGO    R317678  19.783  10.779   6.168  0.0800 -0.1106  0.0451
 1283ERGO    R417679  19.774  10.649   6.430  0.4674 -0.3656 -0.0649
 1283ERGO    R517680  19.661  10.825   6.368  0.2095 -0.4335  0.2022
 1283ERGO    C117681  19.850  10.970   6.665  0.3149 -0.4907  0.1635
 1283ERGO    C217682  20.053  11.134   6.829  0.0370 -0.2657 -0.3039
 1284ERGO   ROH17683  12.987   6.115   5.531  0.0003  0.0985 -0.0679
 1284ERGO    R117684  12.964   6.194   5.801  0.1208  0.0793 -0.0520
 1284ERGO    R217685  12.740   6.139   5.954  0.0962  0.2650 -0.0240
 1284ERGO    R317686  12.923   6.028   6.123  0.0211  0.0694 -0.0682
 1284ERGO    R417687  12.692   6.087   6.293  0.0225  0.0896 -0.0601
 1284ERGO    R517688  12.897   6.150   6.327  0.0559 -0.0346  0.0031
 1284ERGO    C117689  12.834   5.954   6.648 -0.0908 -0.1960 -0.1227
 1284ERGO    C217690  12.885   5.864   7.020 -0.1313  0.0321  0.0416
 1285ERGO   ROH17691  15.375   3.059   5.525  0.1030  0.0529  0.1132
 1285ERGO    R117692  15.300   3.113   5.793 -0.1163  0.0095  0.0627
 1285ERGO    R217693  15.081   2.993   5.914  0.0162 -0.3175 -0.0094
 1285ERGO    R317694  15.265   2.923   6.101  0.0485  0.0373  0.0992
 1285ERGO    R417695  15.007   2.873   6.229  0.0677 -0.2123  0.0432
 1285ERGO    R517696  15.169   2.994   6.308 -0.1111  0.0493  0.0223
 1285ERGO    C117697  15.136   2.737   6.588  0.1280  0.1820  0.1758
 1285ERGO    C217698  15.283   2.425   6.758 -0.0917 -0.0042 -0.0413
 1286ERGO   ROH17699  10.790   0.898   5.585 -0.1053 -0.0938  0.0615
 1286ERGO    R117700  10.955   0.953   5.808  0.0357  0.0836 -0.0888
 1286ERGO    R217701  11.013   1.210   5.890 -0.2296  0.1323 -0.1142
 1286ERGO    R317702  10.918   1.122   6.129  0.1294 -0.0202 -0.0161
 1286ERGO    R417703  11.097   1.346   6.196 -0.4512  0.5845 -0.2411
 1286ERGO    R517704  11.106   1.143   6.277  0.1799  0.6178 -0.1176
 1286ERGO    C117705  11.058   1.342   6.599 -0.2432  0.7045 -0.2228
 1286ERGO    C217706  11.316   1.618   6.840 -0.0499 -0.0444  0.1333
 1287ERGO   ROH17707  11.312  15.925   5.603 -0.1692  0.1744 -0.0175
 1287ERGO    R117708  11.306  15.814   5.863  0.0287  0.2494  0.0212
 1287ERGO    R217709  11.342  15.965   6.091 -0.1253  0.3751 -0.0359
 1287ERGO    R317710  11.104  15.854   6.164  0.0302  0.0841  0.0449
 1287ERGO    R417711  11.219  15.954   6.414 -0.1064  0.4241 -0.0264
 1287ERGO    R517712  11.149  15.751   6.375  0.1808  0.2930  0.1170
 1287ERGO    C117713  10.925  15.843   6.670  0.0505  0.1796  0.0551
 1287ERGO    C217714  10.762  16.073   7.058 -0.0790  0.2462 -0.0450
 1288ERGO   ROH17715  19.208   7.570   5.698  0.0584  0.0419 -0.0948
 1288ERGO    R117716  19.097   7.824   5.757  0.0163  0.0288 -0.1064
 1288ERGO    R217717  18.940   7.869   5.981 -0.1376 -0.0228 -0.1853
 1288ERGO    R317718  19.121   8.067   6.027 -0.1558 -0.0445 -0.0290
 1288ERGO    R417719  18.872   8.166   6.143 -0.1707 -0.0800 -0.0968
 1288ERGO    R517720  18.998   8.269   5.998 -0.1180 -0.0301  0.0084
 1288ERGO    C117721  19.002   8.525   6.282 -0.2068 -0.1336  0.1014
 1288ERGO    C217722  18.739   8.693   6.473 -0.2010  0.1432  0.0436
 1289ERGO   ROH17723   1.777  17.161   5.853 -0.1331  0.1860 -0.0428
 1289ERGO    R117724   1.801  17.194   6.134 -0.1014 -0.0544 -0.0152
 1289ERGO    R217725   1.584  17.245   6.297 -0.0401  0.1601  0.0042
 1289ERGO    R317726   1.675  17.026   6.431 -0.3806 -0.0836 -0.1473
 1289ERGO    R417727   1.466  17.140   6.604 -0.0146  0.2946  0.0603
 1289ERGO    R517728   1.672  17.093   6.661 -0.0563 -0.1542 -0.1189
 1289ERGO    C117729   1.483  16.874   6.910 -0.3195  0.1441 -0.0492
 1289ERGO    C217730   1.296  16.660   6.864 -0.2163  0.1337  0.0392
 1290ERGO   ROH17731   5.120  10.699   5.835 -0.1474 -0.3667  0.0231
 1290ERGO    R117732   5.197  10.717   6.107 -0.0474 -0.1112 -0.0190
 1290ERGO    R217733   5.084  10.898   6.282 -0.0684 -0.0251 -0.1165
 1290ERGO    R317734   5.036  10.676   6.431  0.1004  0.0661  0.0781
 1290ERGO    R417735   4.962  10.899   6.606 -0.0487  0.1596 -0.1091
 1290ERGO    R517736   5.100  10.738   6.653  0.0689  0.3002  0.0219
 1290ERGO    C117737   4.846  10.691   6.933  0.1213  0.3530  0.0779
 1290ERGO    C217738   4.621  10.711   7.119  0.0564 -0.0075 -0.1286
 1291ERGO   ROH17739   5.445  16.305   5.571  0.1466  0.1160 -0.0116
 1291ERGO    R117740   5.407  16.398   5.835  0.2974 -0.0188  0.0583
 1291ERGO    R217741   5.188  16.328   5.988  0.2408  0.1330  0.0386
 1291ERGO    R317742   5.378  16.250   6.167  0.1771 -0.2101 -0.0341
 1291ERGO    R417743   5.135  16.293   6.328  0.2825  0.1772  0.0505
 1291ERGO    R517744   5.332  16.382   6.362  0.4539 -0.1502  0.0002
 1291ERGO    C117745   5.283  16.199   6.693  0.2471 -0.1190 -0.0107
 1291ERGO    C217746   5.286  16.266   7.066  0.1965  0.1298  0.0395
 1292ERGO   ROH17747  10.655   9.807   5.429 -0.1060  0.4858 -0.2553
 1292ERGO    R117748  10.532   9.877   5.674 -0.1037  0.3111 -0.2034
 1292ERGO    R217749  10.608   9.765   5.916 -0.0741  0.1692 -0.2785
 1292ERGO    R317750  10.637  10.025   5.989 -0.1106  0.1275 -0.1128
 1292ERGO    R417751  10.579   9.883   6.239  0.0348 -0.0627 -0.1815
 1292ERGO    R517752  10.474  10.057   6.161 -0.0462 -0.0342 -0.0173
 1292ERGO    C117753  10.590  10.196   6.497  0.0638 -0.2368  0.0305
 1292ERGO    C217754  10.638  10.387   6.796  0.0313  0.3366  0.0219
 1293ERGO   ROH17755  13.445   8.774   5.241  0.0037 -0.1712 -0.0595
 1293ERGO    R117756  13.536   8.664   5.486  0.0663 -0.0535 -0.0286
 1293ERGO    R217757  13.679   8.811   5.671 -0.1486  0.1244  0.0031
 1293ERGO    R317758  13.483   8.727   5.840 -0.1018 -0.0905 -0.0466
 1293ERGO    R417759  13.686   8.848   6.015 -0.2362  0.0455  0.0134
 1293ERGO    R517760  13.601   8.648   6.033 -0.0623 -0.0338 -0.0488
 1293ERGO    C117761  13.506   8.791   6.373 -0.2433 -0.2021 -0.0273
 1293ERGO    C217762  13.662   8.641   6.644 -0.0183 -0.1089  0.1420
 1294ERGO   ROH17763  13.274  13.888   6.013 -0.0180  0.0405  0.1300
 1294ERGO    R117764  13.065  13.814   6.190 -0.1210  0.0722  0.0235
 1294ERGO    R217765  13.088  13.835   6.464 -0.1890 -0.1079  0.0477
 1294ERGO    R317766  12.860  13.980   6.439 -0.0835  0.0610  0.0605
 1294ERGO    R417767  12.865  13.899   6.721 -0.1275  0.0686  0.0574
 1294ERGO    R517768  12.702  13.868   6.580 -0.1584  0.1863  0.0726
 1294ERGO    C117769  12.521  14.073   6.846  0.0074  0.3299  0.0751
 1294ERGO    C217770  12.152  14.093   7.021 -0.1455 -0.1131  0.1200
 1295ERGO   ROH17771   5.406   9.710   7.418 -0.1757 -0.1864  0.0646
 1295ERGO    R117772   5.345   9.982   7.466 -0.0522 -0.1795  0.1961
 1295ERGO    R217773   5.190  10.133   7.293  0.1524  0.0241  0.1794
 1295ERGO    R317774   5.044  10.181   7.517  0.0238 -0.0421  0.1096
 1295ERGO    R417775   4.996  10.413   7.344  0.1098 -0.0002  0.1445
 1295ERGO    R517776   5.065  10.418   7.551 -0.0077 -0.0514  0.1838
 1295ERGO    C117777   4.745  10.623   7.584 -0.0358 -0.0767  0.0585
 1295ERGO    C217778   4.615  10.903   7.630 -0.0507 -0.1107  0.1332
 1296ERGO   ROH17779  12.221  11.099   5.296 -0.1939 -0.0354 -0.0852
 1296ERGO    R117780  12.261  10.900   5.494 -0.3010 -0.0653 -0.0930
 1296ERGO    R217781  12.427  10.938   5.711 -0.0325 -0.2744 -0.2549
 1296ERGO    R317782  12.205  10.869   5.852 -0.0093  0.0792 -0.0322
 1296ERGO    R417783  12.424  10.857   6.047  0.1607 -0.2139 -0.2368
 1296ERGO    R517784  12.280  10.698   6.002 -0.1218 -0.0110 -0.0780
 1296ERGO    C117785  12.213  10.744   6.375  0.2949  0.1534 -0.0172
 1296ERGO    C217786  12.159  10.669   6.661 -0.1965 -0.5842 -0.0625
 1297ERGO   ROH17787  18.258   4.372   5.735  0.0084  0.0056 -0.1235
 1297ERGO    R117788  18.099   4.324   5.964 -0.0343  0.0778 -0.1376
 1297ERGO    R217789  18.205   4.230   6.202 -0.1194 -0.1116 -0.1719
 1297ERGO    R317790  18.084   4.450   6.306  0.0964 -0.0270 -0.0923
 1297ERGO    R417791  18.079   4.254   6.523 -0.1598 -0.1277 -0.1868
 1297ERGO    R517792  17.908   4.362   6.443 -0.0278  0.0966 -0.1710
 1297ERGO    C117793  17.891   4.474   6.807  0.0189 -0.0577 -0.1207
 1297ERGO    C217794  17.631   4.513   7.073 -0.0508 -0.0409 -0.1998
 1298ERGO   ROH17795  12.477   3.329   5.247 -0.1340  0.1207 -0.0313
 1298ERGO    R117796  12.499   3.389   5.522 -0.1252  0.0514 -0.0170
 1298ERGO    R217797  12.466   3.197   5.719 -0.0892 -0.0046 -0.0646
 1298ERGO    R317798  12.711   3.283   5.799 -0.0953  0.0058 -0.0574
 1298ERGO    R417799  12.566   3.231   6.048 -0.1192  0.0559 -0.0617
 1298ERGO    R517800  12.668   3.416   5.993 -0.1106  0.0432 -0.0868
 1298ERGO    C117801  12.854   3.332   6.315 -0.1423  0.1009 -0.0532
 1298ERGO    C217802  12.994   3.078   6.586  0.3809  0.0305  0.0818
 1299ERGO   ROH17803   5.090   0.044   5.280  0.1983 -0.1118 -0.0061
 1299ERGO    R117804   5.058   0.040   5.561  0.0178  0.0147 -0.0231
 1299ERGO    R217805   5.204  -0.129   5.725 -0.1792 -0.0027  0.1343
 1299ERGO    R317806   5.268   0.103   5.852 -0.1306  0.0102  0.0873
 1299ERGO    R417807   5.288  -0.103   6.059 -0.0375  0.0221  0.0977
 1299ERGO    R517808   5.171   0.081   6.070 -0.0396  0.0226  0.1321
 1299ERGO    C117809   5.397   0.130   6.373  0.0906  0.0485  0.0322
 1299ERGO    C217810   5.687   0.127   6.739 -0.2092  0.0968  0.3222
 1300ERGO   ROH17811   5.592  18.373   5.828  0.0970 -0.1090  0.0153
 1300ERGO    R117812   5.651  18.232   6.066  0.1993 -0.1414 -0.0287
 1300ERGO    R217813   5.853  18.308   6.238  0.1375 -0.0436  0.0004
 1300ERGO    R317814   5.653  18.303   6.423  0.1367 -0.2549 -0.0049
 1300ERGO    R417815   5.880  18.173   6.555  0.3251  0.1114  0.0525
 1300ERGO    R517816   5.679  18.091   6.532  0.4344 -0.1826  0.0758
 1300ERGO    C117817   5.708  18.088   6.912  0.4334  0.0034  0.0779
 1300ERGO    C217818   5.681  18.117   7.125 -0.0429  0.4146  0.4432
 1301ERGO   ROH17819  12.161  16.364   5.940  0.1645  0.0429 -0.0431
 1301ERGO    R117820  12.211  16.290   6.208 -0.1994 -0.0008  0.0177
 1301ERGO    R217821  12.415  16.401   6.357 -0.0664 -0.3979  0.1394
 1301ERGO    R317822  12.214  16.455   6.532 -0.0930  0.0818 -0.0241
 1301ERGO    R417823  12.456  16.563   6.660 -0.0164 -0.0547 -0.0459
 1301ERGO    R517824  12.314  16.423   6.748 -0.2402  0.2319  0.0695
 1301ERGO    C117825  12.290  16.708   7.000 -0.0123  0.5951 -0.3072
 1301ERGO    C217826  12.460  17.093   7.049  0.2106 -0.0566  0.2148
 1302ERGO   ROH17827   0.082   8.514   5.644 -0.0043 -0.1398 -0.0086
 1302ERGO    R117828   0.099   8.728   5.829  0.2670  0.1187 -0.3204
 1302ERGO    R217829   0.078   8.691   6.102 -0.3678  0.5990 -0.2869
 1302ERGO    R317830   0.316   8.822   6.106  0.0347 -0.0853 -0.0612
 1302ERGO    R417831   0.195   8.877   6.368 -0.4125  0.7859 -0.3955
 1302ERGO    R517832   0.269   9.025   6.226  0.3414  0.3118 -0.5630
 1302ERGO    C117833   0.487   9.109   6.527 -0.0606  0.2524 -0.2469
 1302ERGO    C217834   0.539   9.167   6.963  0.2413  0.2974 -0.3117
 1303ERGO   ROH17835   7.309   1.958   5.413 -0.3521 -0.0903 -0.0897
 1303ERGO    R117836   7.261   2.047   5.678 -0.1038 -0.1985 -0.0057
 1303ERGO    R217837   7.019   2.156   5.757  0.0828  0.0846  0.1794
 1303ERGO    R317838   7.032   1.962   5.947 -0.0959 -0.0606  0.0477
 1303ERGO    R417839   6.842   2.158   6.053  0.3634  0.2568  0.3501
 1303ERGO    R517840   7.019   2.081   6.154  0.3301 -0.1448  0.1373
 1303ERGO    C117841   6.751   1.978   6.405  0.3591  0.2208  0.3259
 1303ERGO    C217842   6.542   1.905   6.663 -0.3345 -0.1897  0.2501
 1304ERGO   ROH17843   9.472   0.986   5.239 -0.0134 -0.1262 -0.1466
 1304ERGO    R117844   9.465   1.108   5.494  0.0755 -0.1112 -0.1510
 1304ERGO    R217845   9.230   1.142   5.637  0.1057  0.0256 -0.1333
 1304ERGO    R317846   9.367   1.010   5.831  0.0485 -0.0429 -0.1388
 1304ERGO    R417847   9.164   1.164   5.975  0.1740  0.1122 -0.1252
 1304ERGO    R517848   9.379   1.166   6.012  0.1822 -0.0273 -0.1597
 1304ERGO    C117849   9.255   1.053   6.355  0.1599  0.0983 -0.1257
 1304ERGO    C217850   9.182   1.041   6.709  0.1156  0.0882  0.0612
 1305ERGO   ROH17851   8.036  10.570   5.909  0.0880 -0.1512 -0.0718
 1305ERGO    R117852   8.052  10.632   6.184 -0.1216  0.0299 -0.0969
 1305ERGO    R217853   7.845  10.584   6.360 -0.1144 -0.2271 -0.1501
 1305ERGO    R317854   8.037  10.449   6.498  0.0703  0.1680 -0.0056
 1305ERGO    R417855   7.807  10.461   6.681 -0.0909 -0.2931 -0.1729
 1305ERGO    R517856   8.011  10.525   6.724 -0.2472  0.1294 -0.0269
 1305ERGO    C117857   7.964  10.262   6.997  0.0962  0.0396 -0.0505
 1305ERGO    C217858   7.904  10.297   7.358 -0.0106  0.2216 -0.3592
 1306ERGO   ROH17859  18.033  18.379   5.641 -0.1502  0.0164 -0.3405
 1306ERGO    R117860  17.841  18.482   5.821  0.0027  0.0391 -0.1877
 1306ERGO    R217861  17.585  18.380   5.839 -0.0458  0.1772 -0.1041
 1306ERGO    R317862  17.649  18.356   6.103  0.0778  0.0117 -0.1475
 1306ERGO    R417863  17.359  18.309   6.090 -0.0513  0.6313  0.0297
 1306ERGO    R517864  17.462  18.453   6.217  0.3484  0.4051 -0.0148
 1306ERGO    C117865  17.286  18.244   6.484  0.0619  0.7404  0.0668
 1306ERGO    C217866  17.051  18.133   6.656  0.0619  0.1731 -0.1344
 1307ERGO   ROH17867   9.777   2.633   5.621  0.0221 -0.0700 -0.1075
 1307ERGO    R117868   9.734   2.509   5.872 -0.1320 -0.2207 -0.2071
 1307ERGO    R217869   9.695   2.653   6.105  0.1525 -0.3553 -0.0780
 1307ERGO    R317870   9.470   2.502   6.122 -0.0985 -0.0045 -0.1615
 1307ERGO    R417871   9.505   2.612   6.390  0.2493 -0.4104 -0.0200
 1307ERGO    R517872   9.481   2.402   6.339 -0.1338 -0.3159 -0.2926
 1307ERGO    C117873   9.183   2.447   6.573  0.0701 -0.1131 -0.0646
 1307ERGO    C217874   8.905   2.472   6.713 -0.1038 -0.0657 -0.1016
 1308ERGO   ROH17875   3.394   1.104   6.450  0.1478 -0.1737  0.1144
 1308ERGO    R117876   3.283   0.899   6.290  0.0937 -0.0997  0.0555
 1308ERGO    R217877   3.419   0.783   6.080  0.0555 -0.0604  0.0045
 1308ERGO    R317878   3.362   0.552   6.212  0.0198 -0.0893 -0.0624
 1308ERGO    R417879   3.367   0.477   5.928  0.0801 -0.0270 -0.0713
 1308ERGO    R517880   3.205   0.440   6.070  0.0505 -0.0549 -0.1188
 1308ERGO    C117881   3.282   0.082   5.964  0.0609 -0.0348 -0.1782
 1308ERGO    C217882   3.265  -0.140   5.690 -0.1669 -0.1524 -0.1582
 1309ERGO   ROH17883  18.117  12.307   5.518 -0.2119 -0.0113  0.0808
 1309ERGO    R117884  18.119  12.268   5.798 -0.1021  0.1612  0.1050
 1309ERGO    R217885  18.187  12.027   5.915 -0.2330  0.1795  0.2191
 1309ERGO    R317886  18.365  12.180   6.051 -0.0434  0.1258  0.0362
 1309ERGO    R417887  18.312  11.952   6.228 -0.0839  0.2385  0.1744
 1309ERGO    R517888  18.296  12.164   6.280  0.0887  0.2758  0.0901
 1309ERGO    C117889  18.553  12.053   6.538  0.1809  0.2226 -0.0233
 1309ERGO    C217890  18.675  11.969   6.819 -0.3685  0.1230 -0.1232
 1310ERGO   ROH17891   0.146   1.963   5.689  0.1212  0.0295 -0.1121
 1310ERGO    R117892   0.053   2.042   5.944 -0.0503 -0.1294 -0.1226
 1310ERGO    R217893  -0.080   1.868   6.114  0.2199 -0.3652 -0.1375
 1310ERGO    R317894   0.114   1.943   6.289  0.0759 -0.0306 -0.1173
 1310ERGO    R417895  -0.072   1.786   6.450  0.3080 -0.3145 -0.1281
 1310ERGO    R517896  -0.002   1.987   6.493 -0.0232 -0.1957 -0.1401
 1310ERGO    C117897   0.115   1.809   6.809  0.2241  0.0292 -0.1037
 1310ERGO    C217898   0.268   1.490   6.816 -0.2306 -0.0878  0.0650
 1311ERGO   ROH17899  19.165  16.566   5.539 -0.1639 -0.0417 -0.0679
 1311ERGO    R117900  19.190  16.392   5.761 -0.1317  0.0401 -0.0066
 1311ERGO    R217901  19.145  16.475   6.021 -0.1937  0.1106 -0.0378
 1311ERGO    R317902  18.973  16.264   6.023 -0.1216  0.0521  0.0070
 1311ERGO    R417903  18.955  16.378   6.293 -0.1303  0.0746 -0.0065
 1311ERGO    R517904  18.997  16.170   6.242 -0.0655  0.0848  0.0134
 1311ERGO    C117905  18.683  16.124   6.454 -0.0255 -0.0014  0.0539
 1311ERGO    C217906  18.584  16.067   6.753 -0.1073  0.2461 -0.1215
 1312ERGO   ROH17907  16.760  17.604   5.622  0.1104  0.0087  0.0054
 1312ERGO    R117908  16.775  17.710   5.884  0.0201  0.0053  0.0118
 1312ERGO    R217909  16.746  17.554   6.110 -0.0526  0.0018 -0.0013
 1312ERGO    R317910  16.985  17.663   6.178 -0.0772  0.0063  0.0826
 1312ERGO    R417911  16.891  17.534   6.423 -0.0786 -0.1518  0.0022
 1312ERGO    R517912  16.954  17.741   6.402 -0.1125 -0.1265  0.1260
 1312ERGO    C117913  17.201  17.625   6.669 -0.1169 -0.2368  0.0830
 1312ERGO    C217914  17.397  17.581   7.022 -0.6144 -0.0276  0.1105
 1313ERGO   ROH17915   8.800  18.051   5.845 -0.0401  0.2210 -0.1929
 1313ERGO    R117916   8.789  18.268   6.028 -0.0915  0.0432  0.0200
 1313ERGO    R217917   8.824  18.235   6.300  0.0440 -0.1966 -0.0201
 1313ERGO    R317918   9.015  18.425   6.265 -0.0822 -0.0519  0.0734
 1313ERGO    R417919   8.987  18.400   6.556 -0.0188 -0.2547  0.0571
 1313ERGO    R517920   8.973  18.584   6.440 -0.1532 -0.1902  0.1798
 1313ERGO    C117921   9.261  18.674   6.674 -0.1737 -0.1527  0.1898
 1313ERGO    C217922   9.540  18.673   6.970  0.2726  0.0553  0.3979
 1314ERGO   ROH17923  15.177  19.296   5.376  0.2882 -0.1811  0.0428
 1314ERGO    R117924  15.177  19.180   5.634  0.1911  0.0270  0.1390
 1314ERGO    R217925  15.143  19.328   5.865 -0.1117  0.1885 -0.0039
 1314ERGO    R317926  14.942  19.151   5.911  0.0015  0.0548 -0.0166
 1314ERGO    R417927  15.033  19.232   6.178  0.0058  0.0270 -0.0107
 1314ERGO    R517928  15.015  19.028   6.104  0.1118  0.0384 -0.0685
 1314ERGO    C117929  14.781  19.010   6.404  0.1804 -0.1923 -0.0265
 1314ERGO    C217930  14.913  18.982   6.783  0.0473  0.0792 -0.0222
 1315ERGO   ROH17931   0.488   8.882   9.105 -0.0753 -0.1462 -0.0900
 1315ERGO    R117932   0.476   8.994   8.845 -0.0259 -0.0330 -0.0439
 1315ERGO    R217933   0.505   9.264   8.799  0.0739 -0.0229  0.0707
 1315ERGO    R317934   0.700   9.181   8.628  0.0500 -0.0227  0.0430
 1315ERGO    R417935   0.558   9.393   8.482  0.0934  0.0420  0.0997
 1315ERGO    R517936   0.597   9.190   8.412  0.0466  0.0523  0.0484
 1315ERGO    C117937   0.772   9.389   8.138  0.0822  0.0799  0.0907
 1315ERGO    C217938   0.774   9.365   7.888 -0.1221 -0.0333 -0.0020
 1316ERGO   ROH17939  15.750  17.667   5.775 -0.0128  0.0061  0.0836
 1316ERGO    R117940  15.665  17.426   5.895 -0.0870  0.0574  0.1364
 1316ERGO    R217941  15.687  17.181   5.769 -0.0569  0.0083  0.2362
 1316ERGO    R317942  15.819  17.112   5.996 -0.1607  0.0776  0.3167
 1316ERGO    R417943  15.673  16.869   5.917  0.1612 -0.0636  0.1096
 1316ERGO    R517944  15.665  16.968   6.112 -0.1029 -0.1336  0.1426
 1316ERGO    C117945  15.787  16.623   6.218  0.1908 -0.0405  0.1114
 1316ERGO    C217946  15.699  16.371   6.015  0.2254 -0.0211 -0.0569
 1317ERGO   ROH17947   5.372  15.767   5.571 -0.0346 -0.1778 -0.0702
 1317ERGO    R117948   5.230  15.817   5.811 -0.1479 -0.1611 -0.1393
 1317ERGO    R217949   5.175  15.619   5.996 -0.0486 -0.1104 -0.0476
 1317ERGO    R317950   5.296  15.792   6.168 -0.2316  0.0796 -0.1063
 1317ERGO    R417951   5.155  15.602   6.341  0.0607 -0.0671 -0.0387
 1317ERGO    R517952   5.138  15.819   6.346 -0.2207 -0.0902 -0.0748
 1317ERGO    C117953   5.256  15.754   6.703 -0.0475  0.1363 -0.0887
 1317ERGO    C217954   5.483  15.800   6.913  0.2867 -0.1501 -0.1020
 1318ERGO   ROH17955  10.204  11.063   5.676 -0.0826 -0.0249  0.0299
 1318ERGO    R117956  10.081  10.854   5.821 -0.0366 -0.0963 -0.0306
 1318ERGO    R217957  10.222  10.634   5.914  0.0358 -0.0466 -0.0011
 1318ERGO    R317958  10.115  10.707   6.153 -0.0773 -0.1087 -0.0341
 1318ERGO    R417959  10.223  10.440   6.200  0.0683 -0.0328  0.0067
 1318ERGO    R517960  10.019  10.506   6.240  0.0216 -0.1585 -0.0537
 1318ERGO    C117961  10.122  10.395   6.590 -0.0188 -0.0831 -0.0197
 1318ERGO    C217962  10.100  10.409   6.888  0.2762 -0.2182 -0.1840
 1319ERGO   ROH17963   7.860  17.779   5.540 -0.0253  0.0456 -0.1433
 1319ERGO    R117964   7.863  17.677   5.804 -0.0438 -0.0272 -0.1713
 1319ERGO    R217965   8.038  17.768   5.998 -0.0177 -0.1219 -0.1498
 1319ERGO    R317966   7.810  17.809   6.139 -0.0051 -0.1060 -0.1341
 1319ERGO    R417967   8.005  17.724   6.339 -0.0331 -0.2452 -0.1667
 1319ERGO    R517968   7.810  17.636   6.304 -0.0599 -0.1704 -0.2016
 1319ERGO    C117969   7.772  17.736   6.670 -0.0303 -0.3017 -0.1619
 1319ERGO    C217970   7.500  17.882   6.898 -0.3298  0.1528  0.1976
 1320ERGO   ROH17971   3.065   3.302   5.720 -0.0822  0.1799  0.0904
 1320ERGO    R117972   3.313   3.281   5.855 -0.0148  0.0073 -0.0562
 1320ERGO    R217973   3.550   3.368   5.743 -0.0404 -0.0068 -0.1321
 1320ERGO    R317974   3.569   3.509   5.975  0.1298 -0.1567 -0.0526
 1320ERGO    R417975   3.836   3.526   5.855  0.0362 -0.0699 -0.2380
 1320ERGO    R517976   3.788   3.460   6.057  0.1915 -0.2015 -0.2472
 1320ERGO    C117977   4.020   3.752   6.138  0.2405 -0.2474 -0.2251
 1320ERGO    C217978   4.303   3.795   6.364 -0.3755  0.1456 -0.0543
 1321ERGO   ROH17979   3.941  16.079   5.860 -0.2273  0.0726 -0.1401
 1321ERGO    R117980   3.719  15.930   5.952 -0.0841 -0.1338 -0.1240
 1321ERGO    R217981   3.744  15.677   6.059  0.1792 -0.0428  0.0352
 1321ERGO    R317982   3.609  15.786   6.268 -0.0183 -0.0746 -0.0732
 1321ERGO    R417983   3.691  15.520   6.362  0.1829  0.0353  0.0766
 1321ERGO    R517984   3.488  15.602   6.363  0.1044 -0.1471 -0.0524
 1321ERGO    C117985   3.532  15.532   6.735 -0.0004  0.0510 -0.0009
 1321ERGO    C217986   3.389  15.495   7.034 -0.3045 -0.0679  0.1223
 1322ERGO   ROH17987   6.340  17.462   5.857  0.0367  0.0836  0.1882
 1322ERGO    R117988   6.432  17.400   6.118  0.0829  0.0090  0.1563
 1322ERGO    R217989   6.609  17.562   6.255  0.0670  0.0049  0.1902
 1322ERGO    R317990   6.417  17.556   6.446  0.0844 -0.1073  0.2134
 1322ERGO    R417991   6.668  17.524   6.594  0.1426  0.2297  0.2028
 1322ERGO    R517992   6.494  17.394   6.604  0.2752  0.0451  0.2839
 1322ERGO    C117993   6.520  17.497   6.970  0.2030  0.2557  0.2320
 1322ERGO    C217994   6.486  17.459   7.296 -0.3262 -0.0206  0.1253
 1323ERGO   ROH17995   6.392  14.441   5.777  0.0449 -0.2984 -0.0047
 1323ERGO    R117996   6.660  14.376   5.838  0.0785 -0.1801 -0.0271
 1323ERGO    R217997   6.866  14.559   5.818 -0.0146 -0.0768  0.0071
 1323ERGO    R317998   6.912  14.487   6.076  0.0338 -0.1109 -0.0100
 1323ERGO    R417999   7.167  14.599   5.984  0.0413 -0.1600 -0.0714
 1323ERGO    R518000   7.136  14.404   6.076  0.0175 -0.1650 -0.0796
 1323ERGO    C118001   7.384  14.555   6.324  0.1194 -0.2406 -0.1332
 1323ERGO    C218002   7.468  14.756   6.499 -0.0621 -0.0517  0.0802
 1324ERGO   ROH18003  16.088  18.887   6.498  0.2560  0.2952  0.2423
 1324ERGO    R118004  16.073  18.848   6.778 -0.0610  0.2675  0.2260
 1324ERGO    R218005  15.835  18.862   6.918 -0.2547  0.0710 -0.0632
 1324ERGO    R318006  15.908  18.615   7.004 -0.1616  0.1224  0.0042
 1324ERGO    R418007  15.721  18.712   7.208 -0.0906  0.1530  0.0443
 1324ERGO    R518008  15.923  18.637   7.242 -0.0628  0.2144 -0.0131
 1324ERGO    C118009  15.724  18.392   7.457  0.0923  0.2489  0.1702
 1324ERGO    C218010  15.503  18.330   7.725  0.1051  0.1089  0.1587
 1325ERGO   ROH18011   9.977  18.721   5.311  0.3498  0.0365  0.1162
 1325ERGO    R118012  10.029  18.785   5.582  0.2102  0.0673  0.1365
 1325ERGO    R218013   9.851  18.928   5.738  0.0820 -0.0055  0.0597
 1325ERGO    R318014   9.877  18.714   5.905  0.1072  0.0092  0.0751
 1325ERGO    R418015   9.861  18.946   6.083 -0.0437  0.0051  0.0633
 1325ERGO    R518016  10.016  18.794   6.082  0.0149  0.0663  0.1215
 1325ERGO    C118017   9.890  18.757   6.440 -0.0933  0.0251  0.0799
 1325ERGO    C218018   9.910  18.833   6.711 -0.1068  0.0056 -0.2058
 1326ERGO   ROH18019   6.193   6.934   5.624  0.2880 -0.0863  0.0514
 1326ERGO    R118020   6.344   6.921   5.864  0.2055 -0.1791  0.1014
 1326ERGO    R218021   6.230   6.858   6.108  0.0646 -0.0069  0.0918
 1326ERGO    R318022   6.425   6.668   6.112 -0.1285 -0.2039  0.1868
 1326ERGO    R418023   6.371   6.725   6.394  0.0616  0.1226  0.1519
 1326ERGO    R518024   6.565   6.731   6.296  0.0197 -0.1731  0.0588
 1326ERGO    C118025   6.635   6.470   6.565 -0.1213  0.0131  0.2760
 1326ERGO    C218026   6.797   6.081   6.677 -0.6012 -0.0661  0.0589
 1327ERGO   ROH18027  17.809  16.650   5.637 -0.0153  0.0321  0.0718
 1327ERGO    R118028  17.698  16.759   5.873  0.1259 -0.0561  0.1791
 1327ERGO    R218029  17.833  16.942   6.031  0.0529  0.2123 -0.0762
 1327ERGO    R318030  17.609  17.090   5.994 -0.2379 -0.1444  0.1742
 1327ERGO    R418031  17.733  17.203   6.234  0.2511  0.4775 -0.3101
 1327ERGO    R518032  17.528  17.132   6.215  0.2621  0.1654  0.3245
 1327ERGO    C118033  17.463  17.494   6.317  0.0934  0.2968 -0.2114
 1327ERGO    C218034  17.506  17.861   6.328 -0.0502  0.1133  0.3960
 1328ERGO   ROH18035  11.167  17.581   5.891 -0.0975  0.1334 -0.1723
 1328ERGO    R118036  11.168  17.522   6.167 -0.0503  0.1804 -0.1621
 1328ERGO    R218037  10.947  17.559   6.329 -0.0754  0.0514 -0.1646
 1328ERGO    R318038  10.988  17.297   6.390  0.1112  0.0894 -0.1225
 1328ERGO    R418039  10.870  17.413   6.633  0.0206  0.0401 -0.1456
 1328ERGO    R518040  11.057  17.300   6.620  0.1019  0.1722 -0.1215
 1328ERGO    C118041  10.864  17.082   6.868  0.2516  0.0687 -0.0948
 1328ERGO    C218042  10.520  16.859   6.986 -0.0386  0.4212 -0.4078
 1329ERGO   ROH18043  11.031   6.579   5.446  0.0853  0.0967 -0.0423
 1329ERGO    R118044  11.073   6.565   5.726  0.0466  0.2047 -0.0316
 1329ERGO    R218045  11.084   6.790   5.885 -0.0871  0.2588 -0.1025
 1329ERGO    R318046  10.890   6.661   6.025 -0.0473  0.2107 -0.0894
 1329ERGO    R418047  11.035   6.818   6.226 -0.0710  0.2524 -0.0989
 1329ERGO    R518048  10.995   6.604   6.233 -0.0172  0.2394 -0.0942
 1329ERGO    C118049  10.824   6.713   6.556 -0.0243  0.2035 -0.0846
 1329ERGO    C218050  10.622   6.660   6.866  0.2439  0.0411 -0.1550
 1330ERGO   ROH18051  14.406   2.607   5.127 -0.0256 -0.1891 -0.0069
 1330ERGO    R118052  14.247   2.624   5.360 -0.0071 -0.0451 -0.0054
 1330ERGO    R218053  14.344   2.562   5.611 -0.0434 -0.0728 -0.0061
 1330ERGO    R318054  14.254   2.811   5.672  0.1254 -0.0028 -0.0304
 1330ERGO    R418055  14.228   2.658   5.922 -0.3910 -0.1056 -0.1203
 1330ERGO    R518056  14.071   2.772   5.822 -0.1397  0.1075 -0.3056
 1330ERGO    C118057  14.076   2.948   6.161 -0.4349 -0.0591 -0.2095
 1330ERGO    C218058  13.962   2.979   6.443 -0.1125  0.0595 -0.0286
 1331ERGO   ROH18059   7.414   8.288   5.447  0.0555 -0.2128  0.0802
 1331ERGO    R118060   7.356   8.280   5.724  0.0759 -0.1986  0.0847
 1331ERGO    R218061   7.159   8.119   5.830 -0.0460 -0.0508  0.0833
 1331ERGO    R318062   7.361   8.031   5.988 -0.1020 -0.2357  0.0548
 1331ERGO    R418063   7.121   7.997   6.152 -0.1037  0.0716  0.1238
 1331ERGO    R518064   7.302   8.104   6.208  0.0310 -0.1122  0.0520
 1331ERGO    C118065   7.289   7.843   6.487 -0.1899 -0.0305  0.1206
 1331ERGO    C218066   7.210   7.741   6.824  0.1854 -0.5040  0.3199
 1332ERGO   ROH18067   3.435   8.254   5.704  0.1654 -0.1860 -0.0185
 1332ERGO    R118068   3.433   8.322   5.979  0.1252 -0.1906 -0.0174
 1332ERGO    R218069   3.200   8.367   6.119  0.1100 -0.0381 -0.0884
 1332ERGO    R318070   3.301   8.177   6.285 -0.0667 -0.1105 -0.0611
 1332ERGO    R418071   3.102   8.320   6.447  0.0908  0.1234 -0.0702
 1332ERGO    R518072   3.311   8.285   6.499  0.0617 -0.0788 -0.0829
 1332ERGO    C118073   3.141   8.114   6.795 -0.0864  0.1495 -0.0340
 1332ERGO    C218074   2.929   7.982   7.048 -0.5223  0.1725 -0.0236
 1333ERGO   ROH18075   7.008   4.083   5.162 -0.1377 -0.2570 -0.1098
 1333ERGO    R118076   6.839   4.114   5.386  0.0043 -0.0944 -0.0227
 1333ERGO    R218077   6.629   3.942   5.440 -0.1706  0.1356  0.0530
 1333ERGO    R318078   6.752   3.920   5.681 -0.0766 -0.0395 -0.0106
 1333ERGO    R418079   6.480   3.823   5.728 -0.1220  0.1375  0.0790
 1333ERGO    R518080   6.583   3.979   5.840  0.0387  0.0224  0.0884
 1333ERGO    C118081   6.508   3.733   6.122 -0.0054 -0.0257  0.0342
 1333ERGO    C218082   6.646   3.380   6.299 -0.1458  0.0497 -0.0188
 1334ERGO   ROH18083   6.638  13.582   6.202  0.0522  0.0731  0.0713
 1334ERGO    R118084   6.719  13.712   6.439  0.0211  0.1534  0.0395
 1334ERGO    R218085   6.539  13.811   6.624 -0.0065 -0.0371  0.1248
 1334ERGO    R318086   6.681  13.658   6.797  0.2321  0.1013  0.0541
 1334ERGO    R418087   6.605  13.894   6.953 -0.0872 -0.0638  0.1469
 1334ERGO    R518088   6.806  13.815   6.927  0.0231  0.2317  0.0969
 1334ERGO    C118089   6.777  13.799   7.307  0.0897  0.0504  0.0935
 1334ERGO    C218090   6.821  13.674   7.706  0.1839  0.0449  0.3999
 1335ERGO   ROH18091   0.893  13.011   6.141  0.0203 -0.2206  0.0658
 1335ERGO    R118092   1.076  13.038   6.355  0.0237 -0.1256  0.0515
 1335ERGO    R218093   1.013  12.967   6.615  0.0865 -0.1774  0.0529
 1335ERGO    R318094   1.238  12.815   6.594  0.1743 -0.0457  0.0251
 1335ERGO    R418095   1.194  12.845   6.883  0.0332 -0.3030  0.0321
 1335ERGO    R518096   1.377  12.891   6.774  0.0579 -0.1190  0.1476
 1335ERGO    C118097   1.509  12.631   7.020  0.0847 -0.2525 -0.0061
 1335ERGO    C218098   1.519  12.395   7.110  0.0739  0.1254  0.3429
 1336ERGO   ROH18099   1.869   9.646   5.518  0.0348  0.2088  0.1387
 1336ERGO    R118100   1.917   9.435   5.701 -0.0224  0.1516  0.0878
 1336ERGO    R218101   2.051   9.472   5.940  0.0733  0.0386  0.0524
 1336ERGO    R318102   1.827   9.359   6.045  0.0437  0.1420  0.1031
 1336ERGO    R418103   2.048   9.251   6.205  0.0358  0.0002  0.0204
 1336ERGO    R518104   1.895   9.136   6.102 -0.0578  0.0969  0.0493
 1336ERGO    C118105   1.837   9.015   6.459 -0.0137  0.0749  0.0493
 1336ERGO    C218106   1.772   8.765   6.647  0.2285  0.0088  0.1583
 1337ERGO   ROH18107   4.591  11.554   5.626  0.1585 -0.2648  0.0452
 1337ERGO    R118108   4.612  11.662   5.887  0.0733 -0.0715 -0.0252
 1337ERGO    R218109   4.423  11.833   5.993 -0.0755 -0.1613 -0.1329
 1337ERGO    R318110   4.417  11.651   6.194  0.0897 -0.0371 -0.0145
 1337ERGO    R418111   4.274  11.885   6.300 -0.0024 -0.0513 -0.1161
 1337ERGO    R518112   4.443  11.782   6.393  0.0824  0.1011 -0.1056
 1337ERGO    C118113   4.182  11.743   6.669  0.1953  0.1294  0.0050
 1337ERGO    C218114   3.848  11.923   6.900 -0.2719 -0.2058  0.1180
 1338ERGO   ROH18115  14.517  13.250   5.486 -0.3397 -0.0358 -0.0233
 1338ERGO    R118116  14.475  13.157   5.750 -0.1834 -0.2357 -0.0657
 1338ERGO    R218117  14.530  12.897   5.826  0.2922 -0.1817 -0.1791
 1338ERGO    R318118  14.680  13.019   6.017  0.0636  0.0152 -0.1226
 1338ERGO    R418119  14.562  12.787   6.152  0.1624 -0.0202 -0.1114
 1338ERGO    R518120  14.551  12.995   6.218 -0.0500 -0.0050 -0.2008
 1338ERGO    C118121  14.721  12.839   6.522 -0.1278  0.2588 -0.0190
 1338ERGO    C218122  14.904  12.570   6.718  0.0740  0.1349 -0.0716
 1339ERGO   ROH18123   6.537   8.835   5.641  0.3721  0.1683 -0.1046
 1339ERGO    R118124   6.581   8.781   5.916  0.0353  0.1205 -0.0576
 1339ERGO    R218125   6.794   8.886   6.055  0.0538 -0.1797  0.1308
 1339ERGO    R318126   6.599   8.974   6.224  0.0217  0.1113 -0.0477
 1339ERGO    R418127   6.853   9.026   6.366 -0.0029 -0.6277  0.3526
 1339ERGO    R518128   6.680   8.914   6.442 -0.3915 -0.3135  0.0145
 1339ERGO    C118129   6.705   9.190   6.705 -0.0660 -0.6155  0.3142
 1339ERGO    C218130   6.706   9.378   7.026  0.2806  0.0354  0.3550
 1340ERGO   ROH18131   9.798   9.453   5.590  0.0987  0.1900 -0.0643
 1340ERGO    R118132   9.648   9.539   5.815  0.0552  0.1297 -0.0705
 1340ERGO    R218133   9.644   9.399   6.053  0.1216  0.1417 -0.0654
 1340ERGO    R318134   9.720   9.639   6.157  0.0027  0.1842 -0.0743
 1340ERGO    R418135   9.598   9.495   6.382  0.2093  0.0638 -0.0299
 1340ERGO    R518136   9.545   9.694   6.312  0.0325  0.0391  0.0175
 1340ERGO    C118137   9.643   9.775   6.671  0.1488  0.0586 -0.0175
 1340ERGO    C218138   9.646  10.047   7.026  0.1796 -0.0251  0.2945
 1341ERGO   ROH18139  13.539   5.480   5.227  0.2733  0.0683  0.1822
 1341ERGO    R118140  13.457   5.620   5.459 -0.0295 -0.0447  0.1472
 1341ERGO    R218141  13.196   5.705   5.496 -0.1129 -0.1763 -0.0894
 1341ERGO    R318142  13.219   5.566   5.729 -0.2851 -0.2447 -0.1127
 1341ERGO    R418143  12.958   5.698   5.746 -0.0946  0.1229 -0.0597
 1341ERGO    R518144  13.118   5.708   5.893 -0.0632 -0.1278 -0.0788
 1341ERGO    C118145  12.840   5.563   6.110 -0.2456  0.2330 -0.0643
 1341ERGO    C218146  12.545   5.622   6.313  0.1444 -0.0932  0.1211
 1342ERGO   ROH18147   4.095   0.182   5.481  0.0500 -0.0051  0.1229
 1342ERGO    R118148   4.269   0.139   5.700  0.1199  0.2196  0.1143
 1342ERGO    R218149   4.261   0.293   5.930 -0.1824  0.1092  0.1815
 1342ERGO    R318150   4.235   0.052   6.052  0.2550 -0.0010  0.0752
 1342ERGO    R418151   4.336   0.230   6.261 -0.2487  0.1539  0.2050
 1342ERGO    R518152   4.422   0.040   6.201  0.2000  0.3487  0.1842
 1342ERGO    C118153   4.355  -0.033   6.569  0.1233  0.0765  0.1188
 1342ERGO    C218154   4.344  -0.368   6.860  0.0179 -0.1696  0.1161
 1343ERGO   ROH18155   9.221  18.153   5.880 -0.2169  0.3023 -0.0217
 1343ERGO    R118156   9.225  17.944   6.072 -0.2247  0.2107 -0.1209
 1343ERGO    R218157   9.179  17.988   6.341  0.0095  0.1229 -0.0647
 1343ERGO    R318158   8.990  17.795   6.306 -0.1588  0.2755 -0.0121
 1343ERGO    R418159   9.002  17.836   6.596  0.0663  0.1625 -0.0013
 1343ERGO    R518160   9.022  17.646   6.491 -0.1447  0.1833 -0.0868
 1343ERGO    C118161   8.721  17.568   6.712 -0.0585  0.3288  0.0851
 1343ERGO    C218162   8.643  17.586   6.932 -0.0317  0.2217  0.1315
 1344ERGO   ROH18163   2.158   4.821   5.422  0.0334  0.0415 -0.0410
 1344ERGO    R118164   2.122   4.837   5.702  0.0076  0.0852 -0.0464
 1344ERGO    R218165   2.235   4.656   5.877 -0.1044  0.0440 -0.0149
 1344ERGO    R318166   2.336   4.879   5.994 -0.0058  0.0044 -0.0248
 1344ERGO    R418167   2.333   4.678   6.208 -0.2256  0.0527  0.0204
 1344ERGO    R518168   2.244   4.877   6.215 -0.0988  0.1137 -0.0616
 1344ERGO    C118169   2.485   4.901   6.510 -0.2036  0.0206  0.0317
 1344ERGO    C218170   2.442   4.929   6.933  0.1002 -0.1471 -0.0122
 1345ERGO   ROH18171  18.687   6.698   5.760  0.0085  0.0066  0.1400
 1345ERGO    R118172  18.689   6.827   6.013 -0.1412 -0.0321  0.1623
 1345ERGO    R218173  18.584   6.710   6.240 -0.0002 -0.1999  0.1469
 1345ERGO    R318174  18.830   6.761   6.342 -0.0553  0.0784  0.1470
 1345ERGO    R418175  18.652   6.764   6.574 -0.0343 -0.2747  0.1659
 1345ERGO    R518176  18.791   6.921   6.516 -0.2488 -0.0595  0.2304
 1345ERGO    C118177  18.923   6.843   6.865 -0.1059 -0.0569  0.1770
 1345ERGO    C218178  18.846   7.048   7.125  0.1498  0.1369 -0.0251
 1346ERGO   ROH18179  16.477  10.382   5.690 -0.1573 -0.0696 -0.0616
 1346ERGO    R118180  16.552  10.306   5.952 -0.1761 -0.2146 -0.0969
 1346ERGO    R218181  16.717  10.462   6.111  0.0803 -0.4507 -0.1154
 1346ERGO    R318182  16.512  10.439   6.288  0.0968 -0.2143 -0.0637
 1346ERGO    R418183  16.755  10.441   6.454  0.1153 -0.3000 -0.1094
 1346ERGO    R518184  16.596  10.291   6.457  0.0145 -0.1831 -0.0013
 1346ERGO    C118185  16.585  10.408   6.820  0.1514  0.0095 -0.0574
 1346ERGO    C218186  16.497  10.288   7.173  0.1916 -0.0001  0.1286
 1347ERGO   ROH18187   5.373   6.196   5.861  0.1267  0.0955 -0.1326
 1347ERGO    R118188   5.299   6.322   6.103  0.1995  0.0518 -0.0872
 1347ERGO    R218189   5.378   6.579   6.168  0.0259  0.1272 -0.1716
 1347ERGO    R318190   5.111   6.618   6.200  0.0126 -0.1016  0.0272
 1347ERGO    R418191   5.236   6.804   6.388  0.0071  0.1706 -0.2278
 1347ERGO    R518192   5.084   6.655   6.435  0.1842  0.0591  0.0244
 1347ERGO    C118193   4.903   6.972   6.547 -0.0162 -0.0189 -0.0739
 1347ERGO    C218194   4.756   7.046   6.778  0.0135 -0.0751 -0.3655
 1348W        W18195   7.716  14.734   1.810 -0.1958  0.0241  0.1792
 1349W        W18196   3.574  15.183   2.334  0.0657  0.0911 -0.0872
 1350W        W18197   4.180   2.414   2.071 -0.1277 -0.1429  0.5018
 1351W        W18198   2.403  14.703  10.057 -0.0502  0.2275 -0.0112
 1352W        W18199   6.713  13.313   1.000  0.0038 -0.1035  0.2867
 1353W        W18200  16.307   3.209   4.067 -0.0210 -0.1950 -0.1328
 1354W        W18201   5.531   7.388   1.573  0.4686 -0.2729  0.0796
 1355W        W18202   0.274   3.345  13.091 -0.0883  0.0562 -0.0905
 1356W        W18203  10.579   7.634   0.196  0.1555  0.3529  0.1339
 1357W        W18204  10.474   7.100   0.106  0.2682  0.1127 -0.1679
 1358W        W18205   7.350  14.283   4.502 -0.3286 -0.0893 -0.2500
 1359W        W18206   1.371   2.368   3.550 -0.0117  0.2381 -0.1275
 1360W        W18207  12.992  10.405  11.016 -0.4105 -0.0675 -0.1557
 1361W        W18208   3.559   4.763   4.558  0.0394 -0.0374 -0.0763
 1362W        W18209  14.464  14.778   0.518 -0.2348  0.0815  0.1922
 1363W        W18210  15.589  19.793   4.137 -0.1987 -0.0297  0.0671
 1364W        W18211   9.561  14.235   5.309  0.0128  0.3491  0.0096
 1365W        W18212  15.636  10.792   3.684  0.3129 -0.0703 -0.1108
 1366W        W18213  14.903  18.726   1.057 -0.2407  0.2326 -0.1251
 1367W        W18214  16.530   9.720   3.319  0.1101  0.0206  0.1759
 1368W        W18215   5.621   7.457  10.092 -0.2341  0.3038 -0.0210
 1369W        W18216  13.294  14.192   2.646 -0.0019  0.0272 -0.1924
 1370W        W18217  18.563   8.190   2.291 -0.3831 -0.0454 -0.1977
 1371W        W18218   8.561   6.604  11.647 -0.2163  0.1186 -0.1284
 1372W        W18219   7.549   6.449  11.076 -0.0339 -0.3180  0.0302
 1373W        W18220  10.924   3.512   0.764 -0.1667  0.1178  0.0853
 1374W        W18221   5.109   2.558  10.259  0.2258  0.0195  0.1162
 1375W        W18222  17.165  10.407  12.572  0.1319  0.0000  0.0447
 1376W        W18223  14.082  17.828   1.059 -0.0485  0.1354  0.1607
 1377W        W18224   7.692  13.996   1.567 -0.6588 -0.3259  0.1230
 1378W        W18225  18.780  13.965   2.578  0.1892 -0.0448 -0.0682
 1379W        W18226   0.777   2.800  12.305 -0.1825  0.3939  0.1391
 1380W        W18227  11.372   7.579  13.452 -0.1003  0.2117  0.4421
 1381W        W18228  18.242   7.610   1.141  0.0590  0.1684  0.1411
 1382W        W18229   1.991   8.341   4.600  0.2178 -0.1336 -0.0430
 1383W        W18230   0.637   6.420  13.451 -0.0563 -0.0409  0.1107
 1384W        W18231  10.885   7.334   5.407  0.0341 -0.1819  0.1021
 1385W        W18232  11.068  18.889  11.820 -0.4074 -0.0199 -0.1753
 1386W        W18233   6.516  10.779   0.399 -0.1244  0.0806  0.0763
 1387W        W18234   3.046  12.840  14.134 -0.0181 -0.1414  0.0045
 1388W        W18235   1.236   7.131   4.433 -0.3354  0.2519  0.0524
 1389W        W18236   7.176   8.861  11.043  0.0124  0.1820  0.0775
 1390W        W18237   5.398  14.485   4.390 -0.0402 -0.1824  0.2747
 1391W        W18238   9.346  13.733   4.094 -0.1835 -0.0727  0.1056
 1392W        W18239  11.313  12.301  10.572 -0.1259 -0.0087 -0.2100
 1393W        W18240  11.371   5.426   2.310 -0.1549  0.0673 -0.1675
 1394W        W18241  17.924   7.947  12.818  0.3880 -0.0822 -0.0932
 1395W        W18242  14.567   1.876  12.055  0.1200  0.2828  0.1720
 1396W        W18243  18.962  10.137  10.518 -0.1313  0.1003  0.0504
 1397W        W18244  14.871   5.959  12.318  0.2824  0.1533  0.0939
 1398W        W18245  19.604   1.515   4.748 -0.2386 -0.2256 -0.0531
 1399W        W18246  14.425   9.909   2.664  0.0529 -0.0255 -0.1099
 1400W        W18247  12.792  13.584   4.728 -0.1206 -0.2581 -0.7171
 1401W        W18248  10.342   4.466  12.540 -0.0831 -0.0838  0.0597
 1402W        W18249  12.680  14.603  12.652 -0.1230  0.1550  0.0337
 1403W        W18250  13.354  14.624   4.132  0.3473  0.1889  0.1125
 1404W        W18251   0.621   3.417  10.224  0.1839  0.0340  0.2755
 1405W        W18252  13.217   3.973  11.025 -0.1778  0.1570 -0.0250
 1406W        W18253   6.191   1.209   4.614  0.2183  0.0099  0.0793
 1407W        W18254   5.393  14.388  14.242 -0.1017  0.1015 -0.5023
 1408W        W18255  14.206  14.975  11.097 -0.4029 -0.1445 -0.0308
 1409W        W18256   5.163   0.656  12.609 -0.0130 -0.1275 -0.1159
 1410W        W18257   8.725   6.481   3.610  0.0594 -0.0205  0.1727
 1411W        W18258  17.914   3.725   1.561  0.1360 -0.0347  0.1996
 1412W        W18259  15.375  13.829  11.316 -0.0953  0.0699 -0.0820
 1413W        W18260   5.665  10.885  12.522 -0.3058 -0.0580  0.2051
 1414W        W18261  14.115   3.643  10.941 -0.0245  0.2570  0.3819
 1415W        W18262  16.231   0.436   2.018  0.1792  0.3038  0.2312
 1416W        W18263  11.252   0.179   3.284  0.1131  0.0011  0.1999
 1417W        W18264  13.735  18.112   2.546  0.3534  0.2696 -0.2370
 1418W        W18265   7.610   5.014   1.591  0.2717  0.1527  0.0993
 1419W        W18266   9.440   3.930   2.440  0.0133  0.3890 -0.0190
 1420W        W18267   4.953  12.658   3.840 -0.4212 -0.0504 -0.2122
 1421W        W18268  11.493   7.114  13.764 -0.0077  0.1437 -0.2552
 1422W        W18269  13.536   7.394   3.833 -0.1542 -0.1959 -0.0037
 1423W        W18270  10.221   7.948  11.981  0.1602 -0.1890  0.0039
 1424W        W18271  18.781   0.537   1.728  0.2180 -0.2765 -0.0259
 1425W        W18272  19.324  13.848   4.668 -0.0170 -0.1004  0.1592
 1426W        W18273   3.570  19.007   1.923  0.1282 -0.3414 -0.0778
 1427W        W18274   2.484   6.991   2.067  0.2874  0.0699  0.2183
 1428W        W18275  18.263   5.378   4.580  0.0293  0.3274  0.4486
 1429W        W18276   4.852  11.380   2.863  0.0414 -0.2880  0.0330
 1430W        W18277  13.535  16.571   3.407 -0.2290  0.1938 -0.0060
 1431W        W18278  11.034   1.078   0.474 -0.0387  0.3697  0.3098
 1432W        W18279   5.769   9.020  12.968 -0.2256 -0.2617  0.0071
 1433W        W18280  11.969   8.290  10.668  0.3052  0.0580 -0.1712
 1434W        W18281  11.227   0.703   3.324 -0.2027 -0.1338 -0.0829
 1435W        W18282   2.602   1.734   4.047 -0.0302 -0.1910 -0.1146
 1436W        W18283   1.770   4.389  11.662  0.2476 -0.3560 -0.2009
 1437W        W18284   5.076  15.312  11.483  0.1843 -0.0879 -0.4334
 1438W        W18285   5.505  17.036   2.224  0.0885  0.1590  0.4084
 1439W        W18286  16.538  18.658  12.417  0.2012 -0.3578 -0.1610
 1440W        W18287   8.870   7.887  11.312 -0.1029  0.0877  0.2065
 1441W        W18288  12.025  11.388   0.843  0.1028 -0.2271 -0.0724
 1442W        W18289   2.712   8.174  14.166 -0.4352  0.2289 -0.4030
 1443W        W18290   0.362  13.429   3.696 -0.0405  0.1702  0.0808
 1444W        W18291  10.351   0.329   3.382  0.0061 -0.4362 -0.1553
 1445W        W18292  11.521  12.422  12.488  0.0577  0.1211  0.0888
 1446W        W18293   0.226  16.274   4.257  0.3290  0.2406  0.0654
 1447W        W18294  10.610  16.633   2.490  0.0590  0.1714  0.1249
 1448W        W18295   9.021   8.033  13.616 -0.1501 -0.0857  0.1549
 1449W        W18296   2.119  14.075  12.516  0.1340  0.1801 -0.4304
 1450W        W18297  10.670  13.524   2.678 -0.0641 -0.0252 -0.0940
 1451W        W18298  14.593  15.277  12.987 -0.0105  0.3178 -0.1134
 1452W        W18299  15.562   0.620  13.734  0.0649 -0.1517  0.1114
 1453W        W18300   8.419  18.770  13.210 -0.1729  0.2315 -0.0207
 1454W        W18301   1.912  13.758   3.776 -0.2123  0.0868  0.1556
 1455W        W18302  13.362   7.383   1.370  0.4074  0.1708 -0.0763
 1456W        W18303  18.680  11.107   0.839  0.0032  0.1915  0.2991
 1457W        W18304   1.251  17.891  12.581 -0.1967 -0.2092  0.3950
 1458W        W18305   5.021   1.118   1.185  0.1130  0.0410 -0.0297
 1459W        W18306  13.932  13.869  10.118  0.0043 -0.2234 -0.0776
 1460W        W18307   5.289  10.486  10.790  0.2561 -0.1278  0.2264
 1461W        W18308  13.356  13.563   4.932  0.0545  0.0719  0.0258
 1462W        W18309   7.427   7.162   5.216  0.1723 -0.3086  0.0335
 1463W        W18310   3.786   2.580  11.414  0.3352 -0.4165 -0.2471
 1464W        W18311   4.520   9.865  13.231  0.1008  0.1272  0.0375
 1465W        W18312  12.356  17.391   4.784  0.1530  0.3617 -0.0427
 1466W        W18313  10.486   8.576  10.197  0.1358 -0.4467  0.0757
 1467W        W18314   5.327   9.383  12.881 -0.2392  0.1303 -0.1649
 1468W        W18315  17.224  12.761  12.338  0.2393  0.3662  0.0749
 1469W        W18316  11.115  14.372  11.252 -0.2045 -0.3599  0.0547
 1470W        W18317   4.272   8.393  10.732  0.1062 -0.1452  0.1265
 1471W        W18318   5.027   6.517  10.784  0.0053  0.0973  0.0068
 1472W        W18319  16.532   0.044  11.188 -0.0128 -0.2402 -0.1050
 1473W        W18320  18.969  18.309  13.365 -0.1147 -0.1486  0.2299
 1474W        W18321   5.541  19.251  11.984  0.0937  0.2647 -0.0695
 1475W        W18322  13.439   2.940   4.836 -0.1875 -0.0467 -0.2458
 1476W        W18323   2.076   2.674  11.159  0.1613 -0.5325 -0.1236
 1477W        W18324   3.536  10.877   3.890  0.0567 -0.1426  0.2434
 1478W        W18325   5.277   8.657   5.447 -0.1801 -0.0045 -0.1677
 1479W        W18326  19.715  16.272   1.671  0.1104  0.2923 -0.0566
 1480W        W18327   9.528  18.802   2.226 -0.0160 -0.2485 -0.2662
 1481W        W18328  18.408   1.800   1.480  0.0050 -0.1399  0.1552
 1482W        W18329   0.797   4.461   4.762  0.0208 -0.3496  0.4739
 1483W        W18330  15.213   6.588   4.676  0.2726 -0.2589  0.2039
 1484W        W18331   0.599   4.956   2.510  0.2232 -0.0149 -0.2763
 1485W        W18332   1.144   2.641  10.027  0.2068 -0.2775 -0.0740
 1486W        W18333   7.548   0.742  12.044  0.1026  0.0360  0.0773
 1487W        W18334  12.480  11.364  11.150  0.0713 -0.0695  0.1515
 1488W        W18335  19.397  16.535  12.875 -0.4313  0.0048 -0.0692
 1489W        W18336   9.334   6.656  13.463 -0.0008  0.1072  0.1487
 1490W        W18337  19.536  17.984   3.146 -0.0358 -0.4718 -0.0766
 1491W        W18338  10.388   6.236   3.097 -0.1217  0.2543  0.0226
 1492W        W18339  16.750   9.911  13.378  0.0386  0.0237 -0.2279
 1493W        W18340  15.125   8.750   0.966  0.0773 -0.0992 -0.0731
 1494W        W18341   9.014   9.632  13.709  0.2356  0.0545 -0.2254
 1495W        W18342  17.039  17.917  13.069 -0.2617  0.0664  0.2898
 1496W        W18343  18.292  17.737  13.682 -0.1206 -0.0884  0.1182
 1497W        W18344   8.338   4.497  11.031 -0.1551 -0.0024  0.2729
 1498W        W18345   2.376   9.752   4.677  0.2155 -0.5093  0.1836
 1499W        W18346   3.476   6.466   0.142  0.0072 -0.1616  0.3137
 1500W        W18347   2.792   0.788   3.392 -0.0741 -0.1941  0.2728
 1501W        W18348   2.224  16.741  12.758  0.1382 -0.1530  0.0785
 1502W        W18349  14.640  14.982   5.219 -0.2908 -0.1151  0.0732
 1503W        W18350  16.462  17.023  11.606  0.2181  0.1749  0.0680
 1504W        W18351  13.308   9.366  13.677  0.2093 -0.1641 -0.0023
 1505W        W18352   6.385   9.467   3.002  0.2645 -0.0663  0.1016
 1506W        W18353  16.382  12.674  13.386  0.0638 -0.2254 -0.0498
 1507W        W18354  13.762  10.489   1.104 -0.1075 -0.1428 -0.2242
 1508W        W18355   0.422   4.410   2.524 -0.0606  0.3295  0.0630
 1509W        W18356   5.572  14.745  11.137 -0.0616 -0.2320 -0.0125
 1510W        W18357   1.574   2.504  12.418 -0.2718  0.2868 -0.3605
 1511W        W18358   3.593   8.587  10.128 -0.1847  0.1806 -0.1551
 1512W        W18359   8.692  17.627  12.924  0.3115 -0.1392 -0.2828
 1513W        W18360  18.171  16.140   0.428  0.1506 -0.1390 -0.0859
 1514W        W18361   4.173  16.721   0.532 -0.2874  0.0494  0.0331
 1515W        W18362   6.144  12.429  13.051  0.3266 -0.1495 -0.3200
 1516W        W18363  15.870   9.333  11.495 -0.1394  0.1542 -0.3434
 1517W        W18364   2.048  17.511  12.022 -0.1267  0.0603  0.1978
 1518W        W18365   8.889   6.760  13.807  0.0371  0.0443  0.0091
 1519W        W18366   4.930   6.321  13.971 -0.1162  0.1859 -0.3670
 1520W        W18367   2.141  12.711  13.931  0.0860  0.1855 -0.1973
 1521W        W18368   4.503   3.553   0.993  0.1810 -0.1739 -0.2658
 1522W        W18369  19.785  15.942  13.514 -0.1798  0.1315  0.5101
 1523W        W18370  19.205   7.756   1.480  0.0284  0.1357 -0.1965
 1524W        W18371   9.444   6.353  13.976  0.0859 -0.2534  0.0353
 1525W        W18372   2.790  14.530  10.801  0.0973 -0.2002 -0.1580
 1526W        W18373  18.008   5.659  14.026 -0.0724  0.2188 -0.3059
 1527W        W18374  16.114   4.125  12.734 -0.1307  0.2178 -0.0702
 1528W        W18375   7.487  14.471   3.011  0.0916 -0.1319 -0.1648
 1529W        W18376   3.924  15.563   2.883  0.1312  0.0229 -0.0561
 1530W        W18377  18.188   3.662   4.352  0.0386 -0.5234  0.2026
 1531W        W18378   4.415  13.175   5.358  0.0387 -0.0596 -0.1579
 1532W        W18379   7.039  11.108  10.322  0.2128 -0.2919  0.0337
 1533W        W18380   0.268  16.779  12.653 -0.3164  0.0123 -0.1982
 1534W        W18381   5.828   3.502   0.457 -0.0197  0.2589 -0.0294
 1535W        W18382   3.399  12.951  13.264  0.0220  0.0339 -0.0705
 1536W        W18383   2.334  19.822   0.819  0.1148  0.0229  0.1268
 1537W        W18384  15.156   7.733  10.335 -0.1081  0.0200  0.7547
 1538W        W18385   4.569  16.742   4.403 -0.0823  0.2159 -0.2126
 1539W        W18386   6.390   0.490   4.438 -0.0049  0.3194 -0.0388
 1540W        W18387  15.293   0.561  12.701 -0.1180 -0.0753  0.0665
 1541W        W18388  18.607   6.832   2.995  0.0679  0.3224  0.4729
 1542W        W18389  15.101  13.351  10.542  0.1479  0.1887 -0.0395
 1543W        W18390  11.833  19.127   2.496  0.3354 -0.0743  0.1129
 1544W        W18391   9.661  19.367   4.159  0.0355  0.2779 -0.1645
 1545W        W18392   0.500   0.043   4.468  0.0408 -0.1146 -0.1024
 1546W        W18393  13.330  15.678   0.870 -0.1014 -0.0442 -0.2113
 1547W        W18394  14.411   8.497   3.948 -0.1212 -0.4310 -0.1698
 1548W        W18395  15.884   2.775  14.021 -0.1190 -0.2833 -0.1038
 1549W        W18396  12.098   8.694   1.182 -0.1524 -0.0839  0.2557
 1550W        W18397   2.013   4.371  10.656 -0.0732 -0.2980 -0.0753
 1551W        W18398  16.315   0.718  11.968 -0.0588  0.2655  0.1367
 1552W        W18399  13.087   9.586   1.726 -0.0751  0.1566  0.2830
 1553W        W18400   0.148  19.832   4.942  0.1592  0.0977  0.2312
 1554W        W18401   0.938  17.173   2.847  0.1877  0.0737  0.1031
 1555W        W18402  13.982  12.532   3.968 -0.2935  0.1027 -0.2418
 1556W        W18403  19.158   5.415   4.499  0.1685 -0.1063 -0.3875
 1557W        W18404   6.745   1.008  11.384  0.2322  0.0966  0.0831
 1558W        W18405   9.589   5.619   1.159  0.1077  0.1268  0.0613
 1559W        W18406  13.191  12.899   0.738  0.0969  0.1576 -0.1092
 1560W        W18407   3.134  17.575  12.533  0.1731 -0.0238  0.0192
 1561W        W18408  11.486   3.942  10.722 -0.2039 -0.0649  0.1214
 1562W        W18409  18.634  13.871   0.518  0.0698  0.3157  0.2240
 1563W        W18410   2.731   5.827   9.980 -0.0317 -0.2690  0.2276
 1564W        W18411  17.326   2.334   1.968 -0.0537  0.1031  0.0452
 1565W        W18412   8.044   0.518  10.445 -0.1833 -0.1914 -0.3150
 1566W        W18413   4.427   4.932   1.786  0.0841  0.2004 -0.1143
 1567W        W18414  13.100   0.993  11.398 -0.1264 -0.0468 -0.0116
 1568W        W18415  17.642   2.155  13.314  0.3788  0.2190  0.2218
 1569W        W18416   7.258  11.696   9.366  0.1777  0.1395  0.2389
 1570W        W18417   4.861  17.095  12.561  0.3140 -0.1768 -0.1231
 1571W        W18418  18.420  12.031  11.674 -0.0642 -0.0006 -0.0149
 1572W        W18419   6.427   6.811   0.242 -0.3323  0.0778 -0.0079
 1573W        W18420   0.589  19.489   5.320 -0.3120  0.2267 -0.1119
 1574W        W18421  18.083   9.434   0.072  0.2670 -0.0300  0.0044
 1575W        W18422  16.372   9.489  11.272  0.0932 -0.2350  0.2025
 1576W        W18423  18.989  11.251  10.089 -0.1053 -0.0260 -0.0898
 1577W        W18424  13.827  15.874   4.399  0.1679 -0.0751 -0.1473
 1578W        W18425   3.361   3.390   3.456  0.1826  0.0758  0.0556
 1579W        W18426  17.951   0.533  14.023 -0.1302 -0.3772  0.0032
 1580W        W18427  16.890   2.474   0.197 -0.1359  0.4212  0.0250
 1581W        W18428   0.362   2.362  11.043 -0.0278 -0.0649 -0.0131
 1582W        W18429  16.568  12.119  11.894 -0.1957 -0.0514  0.3020
 1583W        W18430  15.661   4.817  12.452  0.1545  0.1239 -0.0874
 1584W        W18431  13.506   2.141  11.943  0.0516  0.2862  0.0660
 1585W        W18432  14.076  18.303  11.728 -0.1143 -0.0856 -0.2805
 1586W        W18433  11.277   1.415   2.894 -0.0862 -0.2758  0.0566
 1587W        W18434   9.710   0.116   0.035 -0.1942 -0.0284  0.1107
 1588W        W18435  14.136   9.184  11.037  0.0765  0.1441  0.0521
 1589W        W18436  12.352   5.215  12.103 -0.0973 -0.2110  0.1346
 1590W        W18437   1.332   4.463  13.481 -0.0755 -0.2416  0.3367
 1591W        W18438  16.928   4.454  10.618  0.3579  0.0314  0.0593
 1592W        W18439   8.897  19.109   3.183 -0.1717 -0.0915  0.2619
 1593W        W18440  14.428   0.351  11.002 -0.0605  0.0588  0.1736
 1594W        W18441  16.524   2.148   5.224  0.2554 -0.0133 -0.1305
 1595W        W18442  16.377   8.629   3.834  0.0091  0.1817 -0.0715
 1596W        W18443  11.427  10.590  10.701  0.1691  0.2793  0.1456
 1597W        W18444  14.277  13.962   3.099  0.2424 -0.0123 -0.2900
 1598W        W18445   8.991   1.573   3.713  0.0270 -0.2130 -0.1695
 1599W        W18446  18.977   4.319   1.025 -0.1869  0.0250  0.0630
 1600W        W18447  12.825  15.277  13.260 -0.2908 -0.0411  0.0247
 1601W        W18448   4.128   3.442   0.101  0.2961  0.1223  0.0435
 1602W        W18449  13.726  19.628   0.595  0.2682 -0.1239 -0.0155
 1603W        W18450  10.474  11.430  13.461  0.1144  0.0838 -0.0339
 1604W        W18451   5.244   3.562   8.901 -0.0544  0.1668 -0.1847
 1605W        W18452   7.321  16.213   9.934  0.0259 -0.2599  0.1927
 1606W        W18453   7.088   6.354  10.178  0.1748  0.0293 -0.3755
 1607W        W18454  19.306  18.647   0.490  0.4323  0.0490 -0.1034
 1608W        W18455   2.335  16.362  13.422  0.0106 -0.2725 -0.1544
 1609W        W18456  10.088   9.117  11.316  0.0026 -0.1508  0.2032
 1610W        W18457   1.956  15.959  11.117 -0.2146  0.1443 -0.0445
 1611W        W18458   3.220  14.872   3.973  0.2508 -0.4998  0.3923
 1612W        W18459  19.862   0.015  10.719 -0.0979 -0.2313  0.1941
 1613W        W18460  11.817  13.092  12.340 -0.1568  0.2929  0.3852
 1614W        W18461  15.422   8.181   1.582  0.2072  0.3625 -0.1362
 1615W        W18462  14.273  19.866   0.528  0.1198 -0.1861  0.1351
 1616W        W18463  19.375   5.170  11.866 -0.2759  0.2128  0.0086
 1617W        W18464   0.824  15.221  11.467  0.1389  0.2343 -0.2450
 1618W        W18465  13.308  12.399   0.905 -0.3050 -0.1205 -0.1621
 1619W        W18466   4.684   1.732  11.987  0.3129 -0.1970 -0.0557
 1620W        W18467  13.295  19.474  11.442 -0.2580 -0.1196  0.1389
 1621W        W18468  13.919   9.878  12.528  0.0524  0.2587 -0.0775
 1622W        W18469   8.915   9.177  13.939  0.5682  0.0311  0.0453
 1623W        W18470   8.695   3.094  10.881 -0.1109  0.0834  0.0338
 1624W        W18471  10.487   7.908  12.398  0.2018  0.0175  0.2070
 1625W        W18472  13.506  13.033   5.005  0.3077 -0.0871  0.0314
 1626W        W18473   5.344   9.592   2.587  0.2642  0.4360  0.3400
 1627W        W18474  13.004   1.002   2.096 -0.1750  0.0531  0.1104
 1628W        W18475  17.405  17.514  10.595  0.0415  0.4381 -0.2268
 1629W        W18476   7.998   4.381  11.428 -0.0282 -0.1378 -0.4519
 1630W        W18477   9.468   3.379  10.664 -0.1658 -0.3931  0.1069
 1631W        W18478   5.305   6.676   3.940 -0.0692  0.1156  0.0313
 1632W        W18479  11.565   2.449  11.593 -0.1627 -0.0539 -0.0371
 1633W        W18480  14.284   2.502  13.238 -0.1747 -0.2718 -0.2522
 1634W        W18481   1.871   6.885   1.845  0.0796 -0.2040 -0.1249
 1635W        W18482  10.873  16.426   8.900  0.0988  0.1537 -0.0627
 1636W        W18483   5.619   9.325   1.258  0.0516 -0.1024  0.2800
 1637W        W18484  13.904   1.656  14.268 -0.0337 -0.2319  0.2912
 1638W        W18485  17.082  10.234   0.894 -0.0216  0.0393 -0.1210
 1639W        W18486  11.181   6.973  12.310 -0.1153  0.0738  0.0094
 1640W        W18487  18.521   6.655   2.050  0.1239  0.0306  0.3951
 1641W        W18488  18.252   5.731  13.481  0.0701 -0.0870  0.0507
 1642W        W18489   5.609   4.337   9.475 -0.1686 -0.1252  0.0410
 1643W        W18490   1.382  17.297  11.677 -0.0229 -0.0207 -0.1164
 1644W        W18491  14.323   5.554  11.235  0.1344 -0.0445  0.0007
 1645W        W18492  17.835  15.601  10.896  0.2548 -0.0165  0.1294
 1646W        W18493   7.793  16.294   1.048 -0.3326 -0.1121 -0.2811
 1647W        W18494  17.900   0.921   0.389 -0.0337  0.2338 -0.0855
 1648W        W18495   5.730  11.859   3.625  0.3720  0.0268  0.2620
 1649W        W18496  16.124  12.795  12.606 -0.1136 -0.2714 -0.4962
 1650W        W18497  10.443   1.691   1.172  0.2137 -0.1065  0.1116
 1651W        W18498   3.837   1.091  11.135  0.2162 -0.0191  0.0976
 1652W        W18499   5.046   9.795   5.822  0.0021 -0.0646 -0.1268
 1653W        W18500   0.491   6.271   1.396  0.0792  0.2249  0.0163
 1654W        W18501  17.227   2.817  12.821  0.1839  0.2266 -0.1681
 1655W        W18502   2.646  11.413  13.714 -0.1676 -0.3089 -0.1992
 1656W        W18503   3.440  18.945  10.930 -0.4216 -0.1851  0.3992
 1657W        W18504  17.374  12.330  12.509  0.1125  0.4431  0.0627
 1658W        W18505  16.430   4.449   4.073  0.0897  0.1326 -0.0279
 1659W        W18506   5.329   4.854   1.340 -0.3132  0.0197  0.0588
 1660W        W18507   2.365   5.798   2.584 -0.0222  0.0869  0.1152
 1661W        W18508   3.094   2.690  10.676 -0.4084 -0.0113  0.1427
 1662W        W18509   3.521  15.119   3.677 -0.1177 -0.3322  0.0440
 1663W        W18510  13.786   1.606   3.532 -0.0745  0.1393  0.0569
 1664W        W18511   5.429  15.676  11.649 -0.2148 -0.1739  0.0153
 1665W        W18512  11.982   7.707  10.848 -0.1747 -0.5494  0.0201
 1666W        W18513  10.017   6.391  12.841 -0.1857 -0.0160 -0.0066
 1667W        W18514   6.432   9.158  13.636 -0.0766  0.1459 -0.0154
 1668W        W18515   7.993  12.378   2.691  0.0214 -0.0739  0.0612
 1669W        W18516   1.765   3.584  11.050 -0.5738 -0.2721 -0.2022
 1670W        W18517   0.074   1.211   0.992 -0.3706  0.0894 -0.1523
 1671W        W18518   3.133  11.206  12.477 -0.0684  0.1962 -0.3050
 1672W        W18519  13.786   2.431   9.602  0.2774  0.0050  0.0548
 1673W        W18520   1.531   6.351  10.321  0.0809  0.3320 -0.3499
 1674W        W18521   8.436   4.438  13.443 -0.1855 -0.1419 -0.0403
 1675W        W18522  11.948  13.980  12.578 -0.0424 -0.3643  0.1804
 1676W        W18523  16.156   6.640  12.069  0.1091  0.1133  0.1786
 1677W        W18524   5.116   2.169   1.009  0.3286 -0.3574 -0.0265
 1678W        W18525   7.206  16.083  13.176 -0.1741 -0.0520  0.0340
 1679W        W18526   7.854   1.389   4.211 -0.2390  0.2064  0.3759
 1680W        W18527   4.850  16.010  11.980 -0.0501  0.2418 -0.0316
 1681W        W18528  17.731  19.465   0.739 -0.1750  0.1255 -0.1749
 1682W        W18529  14.917  19.241   1.822 -0.1531 -0.2901 -0.0636
 1683W        W18530  15.698  14.376  11.262  0.0435  0.0711  0.1068
 1684W        W18531   6.377   7.280   2.532 -0.0566  0.3112 -0.0557
 1685W        W18532  18.492  17.239   2.051  0.4519 -0.0686  0.3172
 1686W        W18533   6.149  10.105   4.112  0.1562 -0.0885  0.1962
 1687W        W18534   1.984   8.827   1.636 -0.1664 -0.1816  0.0346
 1688W        W18535   1.970   9.737  11.903 -0.1234  0.1167  0.0343
 1689W        W18536  19.781  19.656   4.263  0.1855 -0.4973  0.1417
 1690W        W18537  15.947   3.280  12.310  0.2552 -0.1044  0.2403
 1691W        W18538   9.320   0.338   0.550  0.0082 -0.2381  0.0176
 1692W        W18539  11.568  17.887   9.921 -0.1248  0.0450  0.2411
 1693W        W18540   3.055   8.487   2.453 -0.3536  0.3276  0.0753
 1694W        W18541   8.238  14.369  10.243  0.1233  0.0585 -0.0596
 1695W        W18542  19.552  19.783  13.273  0.1524 -0.1681 -0.0452
 1696W        W18543   8.129  12.829  10.134 -0.0866  0.1602  0.1256
 1697W        W18544   2.869  12.894   1.826 -0.0207  0.0342 -0.0215
 1698W        W18545  18.033  11.770   0.477  0.0658  0.1063  0.1573
 1699W        W18546  14.137   9.627   9.831  0.2095  0.0200  0.1186
 1700W        W18547  11.257   1.081  10.350  0.0837 -0.3646  0.0522
 1701W        W18548  11.114   9.399   9.993 -0.1731  0.1585 -0.1307
 1702W        W18549   1.196  15.794  13.517  0.1913  0.0239 -0.1817
 1703W        W18550   3.226  13.095   2.427  0.0458  0.1018 -0.1984
 1704W        W18551  14.211   8.365   1.125  0.0571 -0.0129  0.2594
 1705W        W18552  16.721   5.244   2.853  0.0068 -0.2646  0.3916
 1706W        W18553   1.630  10.413  13.356 -0.0960 -0.1725 -0.0252
 1707W        W18554   0.827   7.496   3.360  0.0232  0.2641  0.0529
 1708W        W18555   4.539  11.214   3.573 -0.0054  0.0841  0.0963
 1709W        W18556  16.751   4.030   8.986 -0.1841 -0.2980  0.2260
 1710W        W18557  16.133  14.163  13.393  0.0104 -0.4113  0.3510
 1711W        W18558   9.455   3.958   3.982  0.2734  0.4049  0.3538
 1712W        W18559   6.555   4.848   4.735 -0.2282  0.0653  0.0824
 1713W        W18560  11.495   3.186  11.816 -0.1150 -0.1452 -0.0173
 1714W        W18561  12.861  17.536   0.913 -0.1160  0.0445  0.2815
 1715W        W18562  18.159  10.809  11.135  0.0916  0.1448 -0.1940
 1716W        W18563  14.177   4.676   3.292 -0.2042  0.3186  0.2778
 1717W        W18564  14.918   4.345   4.614  0.0762  0.2309 -0.0144
 1718W        W18565  11.070   4.989  11.890  0.0699  0.1562 -0.0754
 1719W        W18566  13.667  13.868  10.536 -0.0194  0.1902 -0.2220
 1720W        W18567   2.333  17.252  11.468 -0.0853 -0.0461 -0.1717
 1721W        W18568  11.918   1.223   3.617 -0.1289  0.2534 -0.0361
 1722W        W18569   6.076   5.694   3.948  0.0887 -0.2071 -0.0360
 1723W        W18570   5.912   8.377   1.245 -0.3763 -0.4334 -0.0596
 1724W        W18571   6.581  16.679   2.886  0.0508 -0.0450 -0.0836
 1725W        W18572  14.622   2.445  11.027  0.0692 -0.1556 -0.0082
 1726W        W18573   4.253  17.130  13.327  0.0918 -0.3198 -0.0552
 1727W        W18574   7.821   3.531   1.164  0.1866  0.1458  0.1385
 1728W        W18575  11.898  11.078   2.872  0.1556  0.1281 -0.2501
 1729W        W18576   2.431  19.847  14.045  0.1283 -0.2955  0.0914
 1730W        W18577  18.398   5.327  12.004 -0.0113 -0.2326  0.3324
 1731W        W18578   0.917   0.858  12.082  0.0983 -0.1632 -0.0609
 1732W        W18579   9.913  11.606   3.069 -0.0454  0.0611  0.2539
 1733W        W18580   6.656   9.025   4.286  0.0853  0.0866  0.1092
 1734W        W18581  10.923   8.506   0.120 -0.0788  0.0504 -0.3546
 1735W        W18582   6.846   2.975   1.984  0.3208 -0.4198 -0.0190
 1736W        W18583  12.801  13.145   0.915 -0.0087 -0.1384 -0.0504
 1737W        W18584   4.915   6.967  14.315  0.1624  0.0494 -0.0675
 1738W        W18585   0.725  14.186   4.148 -0.0164 -0.0486 -0.3269
 1739W        W18586   1.302   3.601   1.365  0.1762  0.0817  0.2191
 1740W        W18587   4.006   5.195   0.330  0.0132  0.1829 -0.1697
 1741W        W18588  19.039  11.168  13.149 -0.2823 -0.0371  0.0002
 1742W        W18589  17.913  17.144   0.925 -0.1101 -0.2090  0.1429
 1743W        W18590   5.404   6.067   3.321 -0.1168 -0.1098  0.2102
 1744W        W18591  17.287   3.246  12.206  0.0225  0.0064 -0.1148
 1745W        W18592  17.543  16.854   9.465 -0.2656 -0.0927 -0.2946
 1746W        W18593   3.727  14.201   1.580  0.2230 -0.1437 -0.1521
 1747W        W18594   3.964   1.398   4.690 -0.0538  0.2489 -0.1113
 1748W        W18595   9.851  18.092   2.668 -0.1099  0.2134 -0.0229
 1749W        W18596   6.311   3.888  13.146  0.0770 -0.2177 -0.0550
 1750W        W18597   2.065   0.492   1.736 -0.0402 -0.1593  0.5458
 1751W        W18598  19.603   6.129   5.500 -0.0097 -0.3726  0.2459
 1752W        W18599  11.074  14.317  12.311 -0.2807  0.0441 -0.2898
 1753W        W18600  12.389  16.364  13.471 -0.2359  0.1765  0.1903
 1754W        W18601  13.307  14.410   1.475 -0.1162  0.1687 -0.1159
 1755W        W18602  15.095   6.820   1.288  0.0624  0.0593  0.3579
 1756W        W18603   9.368   7.616  13.824 -0.1637  0.0258 -0.3251
 1757W        W18604  16.238  15.952  13.159  0.5116 -0.1657  0.0602
 1758W        W18605   7.513  13.002   0.626 -0.1246  0.0699  0.2350
 1759W        W18606  10.341   8.282  11.157  0.1405 -0.2485  0.4439
 1760W        W18607  17.333  18.339  12.582 -0.2278 -0.2127  0.1488
 1761W        W18608   2.994   4.344  11.041 -0.0337 -0.1444  0.1187
 1762W        W18609   9.911   4.654   0.298  0.2969 -0.1369  0.2876
 1763W        W18610  13.302  15.351  10.574  0.2286 -0.0626  0.0740
 1764W        W18611   4.953  11.294   2.319  0.2349 -0.4236 -0.0015
 1765W        W18612  18.513   1.107   9.936  0.3370  0.1553  0.0296
 1766W        W18613  13.088  16.476  12.892  0.2754  0.0977  0.0372
 1767W        W18614   6.740  13.125  10.155  0.0867  0.4899 -0.3142
 1768W        W18615  18.066   5.419   5.180 -0.1134  0.2364  0.0982
 1769W        W18616   9.499   6.400  11.855  0.4937  0.0738  0.1308
 1770W        W18617  13.746  13.651   0.062 -0.1626  0.2172 -0.0283
 1771W        W18618   2.188   1.893   3.094 -0.1894 -0.2365  0.3021
 1772W        W18619  17.035  16.038   2.726  0.2059  0.0464  0.1683
 1773W        W18620   4.432   3.955   2.841 -0.0659  0.1889  0.4519
 1774W        W18621   4.269  14.617   0.440 -0.0245  0.2773  0.1331
 1775W        W18622   1.020   2.203   1.225 -0.1439 -0.1807 -0.0675
 1776W        W18623   3.222  14.315  11.834 -0.1207 -0.0504 -0.1435
 1777W        W18624  15.731   0.108   0.789  0.1631  0.3299  0.1723
 1778W        W18625   3.350   2.771   9.413  0.1226  0.1370  0.2055
 1779W        W18626  19.468  12.515  10.416  0.0762  0.2440  0.2971
 1780W        W18627   6.977  13.091   2.332  0.0640  0.5667 -0.4825
 1781W        W18628   7.751  16.501  12.393  0.0754  0.3375  0.0747
 1782W        W18629  14.848  15.120   4.136  0.2476 -0.1022 -0.2043
 1783W        W18630   0.945  17.747   2.785 -0.3905  0.0577  0.1086
 1784W        W18631   6.567   6.624  10.699 -0.1089  0.0559 -0.0342
 1785W        W18632  11.107  12.858   9.882 -0.1553 -0.0102  0.0729
 1786W        W18633   0.318   1.604   1.148 -0.1125 -0.4338  0.0175
 1787W        W18634   7.324   7.197  10.496  0.0947 -0.1800 -0.0709
 1788W        W18635   6.313  12.105  14.172 -0.1062 -0.0546  0.0136
 1789W        W18636  16.549   2.498   2.820 -0.0475  0.2490 -0.0499
 1790W        W18637  12.993   7.241   1.003 -0.0317  0.1664  0.0237
 1791W        W18638   8.181   9.882   2.839  0.0522  0.2262  0.0859
 1792W        W18639  18.710  13.459  14.324  0.0370 -0.1015 -0.2123
 1793W        W18640   9.588  13.826  13.032  0.1247 -0.1203 -0.1797
 1794W        W18641   1.691   9.066   0.771  0.0838 -0.2054 -0.3256
 1795W        W18642   4.023  11.308   1.086 -0.0639  0.0633  0.2085
 1796W        W18643   5.413  16.381   1.649  0.0286 -0.2552 -0.0362
 1797W        W18644  15.852  12.980   1.755  0.2192  0.1958 -0.1675
 1798W        W18645  13.351   2.269  12.940  0.1224  0.1223  0.3604
 1799W        W18646   2.674   5.643  13.702  0.2018 -0.1927 -0.4208
 1800W        W18647   6.372   9.049  10.741 -0.1959 -0.2301 -0.1819
 1801W        W18648  19.300   8.479   1.434 -0.2091 -0.0578 -0.1026
 1802W        W18649   4.707  19.091   3.648  0.1578 -0.0657 -0.2154
 1803W        W18650  17.955   6.787   3.347  0.4098 -0.0004  0.0840
 1804W        W18651   6.927  17.486  11.322  0.2884 -0.0130  0.1863
 1805W        W18652  17.980  14.171  13.284 -0.1307  0.0570  0.1293
 1806W        W18653   6.739  13.546   2.308 -0.1889 -0.0969  0.3974
 1807W        W18654  15.718  10.614  10.382  0.0708  0.3559 -0.0373
 1808W        W18655   1.415   1.362  14.301 -0.1410 -0.1670 -0.3330
 1809W        W18656   1.877  12.732  12.260 -0.4997 -0.2197  0.1652
 1810W        W18657  13.418  14.952   2.999  0.2221  0.3175 -0.1930
 1811W        W18658   5.509   7.280  12.505 -0.3371 -0.3742 -0.0204
 1812W        W18659   5.672   9.979  12.360  0.0939 -0.3151 -0.1033
 1813W        W18660   6.051  15.421  12.630  0.0483 -0.0656 -0.1065
 1814W        W18661  18.877  16.890   2.116  0.2451  0.0982  0.1834
 1815W        W18662  12.356   7.904   4.306 -0.2323 -0.3888  0.1359
 1816W        W18663  11.294  11.850   1.369  0.1479 -0.2052 -0.0169
 1817W        W18664   4.722  19.357  13.910  0.0046  0.0078  0.1706
 1818W        W18665  18.535  19.707  11.450  0.1280  0.1220 -0.4460
 1819W        W18666   7.573  14.997   2.253 -0.5052  0.4091 -0.0383
 1820W        W18667  19.752  17.366   1.692  0.1190  0.1622  0.1850
 1821W        W18668   4.688  10.979   0.286 -0.1249 -0.4588 -0.2094
 1822W        W18669   0.384  16.585  14.012  0.3961 -0.1380  0.2359
 1823W        W18670   4.034   4.746   0.641 -0.1027  0.0976  0.1806
 1824W        W18671   6.702   0.266   0.890 -0.0419 -0.0194 -0.1665
 1825W        W18672  16.558  16.938  14.116 -0.1172  0.0437  0.3020
 1826W        W18673   5.338   8.870   0.502 -0.2423 -0.1056  0.0662
 1827W        W18674   9.254   2.663  11.446  0.3397  0.4084  0.2973
 1828W        W18675   0.734  12.299   4.517 -0.0351 -0.0236  0.0124
 1829W        W18676  13.118  10.154   3.908 -0.2197 -0.2853 -0.1772
 1830W        W18677  11.356  15.086   9.894 -0.0607 -0.1617 -0.1071
 1831W        W18678  17.256   6.468  10.234  0.1286 -0.3016  0.1675
 1832W        W18679  18.921   0.253  11.594  0.0088  0.0311 -0.0731
 1833W        W18680   2.724   9.298  10.656 -0.0265  0.0755  0.2972
 1834W        W18681   4.685  10.208   1.788 -0.2515  0.2818 -0.1491
 1835W        W18682   8.834   9.376   3.984 -0.0249  0.0425 -0.1418
 1836W        W18683  14.523   1.617  11.244  0.3359  0.0507 -0.2986
 1837W        W18684   6.978   0.973  13.828  0.2291 -0.1070  0.2397
 1838W        W18685  14.842  15.722  13.123  0.2851  0.2100  0.0956
 1839W        W18686   0.810   3.915   0.160 -0.0686 -0.1991  0.1791
 1840W        W18687   6.655   5.700   9.669 -0.3935 -0.0110 -0.4045
 1841W        W18688  11.614   6.569   3.557  0.0557  0.1096  0.0890
 1842W        W18689   2.039   9.888  12.470 -0.0040 -0.0884  0.0943
 1843W        W18690   2.982   2.110   4.099 -0.0618  0.1266  0.1196
 1844W        W18691  10.433  11.961  14.102 -0.0457 -0.1120 -0.2925
 1845W        W18692   3.208   7.862  14.164 -0.0274  0.1249 -0.4100
 1846W        W18693  12.769  13.737   3.447 -0.2266 -0.3004 -0.0000
 1847W        W18694  17.782   9.198   2.484 -0.3105 -0.0206  0.0237
 1848W        W18695   0.853   8.125  13.372 -0.0930  0.0521 -0.0909
 1849W        W18696   9.744  18.215   3.748 -0.0765 -0.0721 -0.0212
 1850W        W18697   8.582   6.999   1.912  0.0351  0.1061 -0.0267
 1851W        W18698   1.005   9.513   5.202  0.3828  0.0513 -0.1941
 1852W        W18699   8.073   1.334  12.923 -0.1513  0.0355  0.1404
 1853W        W18700  15.319   8.466   2.006  0.0698 -0.0216 -0.1964
 1854W        W18701   7.658  14.669   1.353 -0.0656 -0.3035 -0.0277
 1855W        W18702  17.202  14.473   3.838 -0.2286 -0.0091 -0.0609
 1856W        W18703   0.413  14.753  14.080 -0.0453 -0.0290  0.0059
 1857W        W18704  14.358   8.281  14.333 -0.0164 -0.0069 -0.0312
 1858W        W18705  12.566  16.749  10.006 -0.0119  0.0820 -0.2008
 1859W        W18706  12.464  14.728   1.173 -0.0256  0.0944 -0.0093
 1860W        W18707  15.036  16.773  14.107  0.0574  0.2530  0.2113
 1861W        W18708   0.824   2.451   3.702  0.3398 -0.3926 -0.2369
 1862W        W18709  16.060   1.919  10.942  0.0977 -0.2005 -0.2399
 1863W        W18710   7.033  10.103   4.462 -0.1112  0.5895  0.2153
 1864W        W18711   2.118  11.105   2.289 -0.0083 -0.4187 -0.0812
 1865W        W18712   4.768  14.816  10.800  0.1416 -0.1963 -0.0954
 1866W        W18713   5.743  10.110  11.307  0.1295 -0.1188  0.1605
 1867W        W18714  14.023   9.497  11.856 -0.0241  0.2223  0.0267
 1868W        W18715   6.696  10.601   1.733  0.2856  0.0246  0.0601
 1869W        W18716  11.578  16.968   4.609 -0.1199 -0.0054 -0.1833
 1870W        W18717  18.083   8.140   2.347 -0.1985 -0.1073  0.0371
 1871W        W18718   4.100   5.598  10.252  0.1396 -0.1546  0.1703
 1872W        W18719   2.469  15.622   4.140 -0.0954  0.0317  0.0548
 1873W        W18720  13.448  18.138   3.084 -0.3004  0.0477  0.0012
 1874W        W18721  12.093   8.706  13.952  0.1931  0.0228  0.1864
 1875W        W18722   0.720  11.595   1.971 -0.0858 -0.1591  0.0677
 1876W        W18723   7.624   1.401  12.517 -0.0006 -0.2919 -0.0103
 1877W        W18724   7.353  11.466   2.359  0.1277 -0.1069 -0.0531
 1878W        W18725   0.824  16.098  12.824 -0.2768 -0.4392 -0.0493
 1879W        W18726   2.437   7.029  10.497  0.0023 -0.2058 -0.2521
 1880W        W18727   2.190   4.283   0.923  0.0034  0.2850 -0.0213
 1881W        W18728   4.431  13.878   2.144 -0.1791 -0.1538  0.0603
 1882W        W18729   0.196  19.431   0.289 -0.1366  0.1698 -0.1084
 1883W        W18730   1.273  17.081   0.345 -0.2618  0.2349 -0.2284
 1884W        W18731   7.950  16.845   0.951 -0.3604 -0.1180 -0.1636
 1885W        W18732  11.278  18.439   0.930  0.2415  0.1793  0.2516
 1886W        W18733   4.611  14.240   1.351 -0.0372 -0.1381 -0.2835
 1887W        W18734  16.292   5.265  11.285 -0.2471  0.2776 -0.2069
 1888W        W18735   4.944  14.094  13.410  0.0024 -0.0659  0.0911
 1889W        W18736  17.004   3.108  11.256  0.0556 -0.2161  0.0914
 1890W        W18737   2.450  10.958  11.753  0.0811  0.2018  0.2193
 1891W        W18738   5.607  13.779  11.210 -0.0881 -0.2336  0.1169
 1892W        W18739   3.028   1.278  12.240  0.0154  0.1733  0.0590
 1893W        W18740  16.734   7.790  13.916 -0.3015 -0.0272 -0.1595
 1894W        W18741   3.068   4.352   2.897 -0.0700  0.4321  0.0386
 1895W        W18742   1.041   4.869  14.104 -0.0233  0.4960 -0.1243
 1896W        W18743  11.551  10.526   1.714 -0.1529 -0.1614  0.0444
 1897W        W18744   0.887  11.865   2.398 -0.0604  0.0656  0.4171
 1898W        W18745   0.610  19.197   0.542 -0.3505 -0.0683 -0.1503
 1899W        W18746   4.055  15.905   3.918 -0.0719  0.0057 -0.0389
 1900W        W18747  16.118   5.507  13.541  0.1903  0.0617 -0.2535
 1901W        W18748  14.257   4.034   2.475  0.2210 -0.1097 -0.2165
 1902W        W18749   1.013   2.687   1.360 -0.2550  0.2845 -0.2446
 1903W        W18750   7.784   4.767  10.171  0.2132 -0.3282 -0.3273
 1904W        W18751   1.403  18.539  12.873  0.0612 -0.1067 -0.0341
 1905W        W18752  14.425  11.915  14.069 -0.0394  0.0223 -0.0158
 1906W        W18753   0.265   7.894  11.319  0.1315  0.0634  0.1778
 1907W        W18754   3.950   6.361  12.875  0.0390  0.0736  0.0161
 1908W        W18755  11.743   9.687  12.829  0.1868  0.0166 -0.2831
 1909W        W18756  10.690   9.416   0.370 -0.2172 -0.1616  0.1477
 1910W        W18757  13.603   0.390  10.107 -0.0136 -0.0643  0.1742
 1911W        W18758   9.314  10.477  14.099 -0.0750  0.2141  0.2604
 1912W        W18759  10.273  18.373   1.008  0.1461  0.0755  0.3922
 1913W        W18760  16.899   2.983   4.114  0.2837  0.0140 -0.0078
 1914W        W18761   3.036   6.230  11.312  0.0163 -0.2213  0.1763
 1915W        W18762   4.406  17.132   0.645 -0.0372  0.2551 -0.0911
 1916W        W18763   7.980  13.580   2.933  0.1246  0.2810 -0.1117
 1917W        W18764   3.330  16.676   4.173  0.1151 -0.2229 -0.2853
 1918W        W18765  12.148   1.409   1.594  0.0314 -0.1173 -0.1153
 1919W        W18766   3.099  15.464   3.557 -0.1592 -0.2010 -0.4429
 1920W        W18767   3.141  12.833  12.095 -0.0716 -0.0436  0.2762
 1921W        W18768  11.991  15.084   4.719  0.2859 -0.1368 -0.0351
 1922W        W18769  14.124  11.460   9.874  0.0682 -0.1937 -0.0537
 1923W        W18770  19.734  14.825   3.722 -0.0144  0.2755 -0.0806
 1924W        W18771  16.176  14.996  10.831  0.0556 -0.0033  0.1979
 1925W        W18772  19.418   0.698   3.784  0.2441 -0.0055 -0.1914
 1926W        W18773  18.267   1.760  11.187  0.0535 -0.1329  0.1896
 1927W        W18774   0.865   2.466  13.608 -0.0793  0.0454  0.3773
 1928W        W18775  14.251   6.807   3.110 -0.1832  0.1594  0.1543
 1929W        W18776   7.838  16.752   3.274 -0.0423  0.1510 -0.0202
 1930W        W18777  16.935  18.340   5.158  0.0135 -0.3935 -0.0380
 1931W        W18778  16.115   6.228  11.175 -0.2464 -0.2882 -0.2805
 1932W        W18779   1.281  11.806   2.074 -0.1627  0.2250 -0.0904
 1933W        W18780  10.935  11.049   0.196  0.0708  0.2662  0.1825
 1934W        W18781   3.450  13.038  11.625 -0.0262 -0.2734 -0.0699
 1935W        W18782   6.267  15.545   1.687 -0.2379  0.1856  0.3698
 1936W        W18783  16.937  14.829   0.935  0.0875 -0.1590  0.1079
 1937W        W18784  18.961   7.843   0.808  0.0956 -0.2727 -0.2203
 1938W        W18785   6.318  10.719   4.590  0.0618  0.4567  0.0620
 1939W        W18786  18.750  16.883  10.376 -0.2643  0.3011 -0.1174
 1940W        W18787  18.569   1.196  14.115  0.5391 -0.0201  0.0737
 1941W        W18788  12.261   9.522  12.800  0.2507 -0.1167 -0.0610
 1942W        W18789  19.649  18.948   1.531 -0.1221  0.1741 -0.1023
 1943W        W18790  18.329  18.703   1.599 -0.2280 -0.1084  0.1523
 1944W        W18791   8.021  18.502  13.489  0.0026 -0.0500  0.1953
 1945W        W18792   6.315  13.849  11.376  0.1703  0.1049  0.0737
 1946W        W18793  10.148  17.445  12.485  0.1258 -0.0530  0.1872
 1947W        W18794  12.289  17.184  13.739 -0.1573  0.1986  0.2920
 1948W        W18795   9.203  10.749   5.115  0.1168 -0.2584 -0.0292
 1949W        W18796   1.329   1.856   3.618 -0.3685  0.1228  0.0950
 1950W        W18797   1.862   1.107  13.643 -0.0806  0.1079  0.0512
 1951W        W18798  16.236  11.942  13.763  0.1730  0.1154  0.1628
 1952W        W18799   7.309   0.181   2.822 -0.1552 -0.0527 -0.3508
 1953W        W18800   5.529   7.300   2.940  0.2554  0.0202  0.0754
 1954W        W18801  19.645  16.046   9.759 -0.2952 -0.1150  0.1184
 1955W        W18802  17.297   4.083  13.360 -0.1236 -0.0420  0.3521
 1956W        W18803   7.837   6.514  13.730 -0.1804 -0.2632 -0.0343
 1957W        W18804  18.182  16.773  13.546  0.0655  0.3712 -0.1869
 1958W        W18805   3.843  12.440   5.473 -0.0536 -0.0780  0.1323
 1959W        W18806  14.394  17.630   4.368  0.3821  0.1107 -0.1583
 1960W        W18807   9.257  13.236   1.254  0.3932  0.0711 -0.2564
 1961W        W18808  12.482  15.591  11.800 -0.2272 -0.3388  0.1324
 1962W        W18809  12.942  15.417  12.141 -0.1966 -0.1087  0.0491
 1963W        W18810   9.704   6.047   4.493  0.1137  0.0369  0.0937
 1964W        W18811   2.105  11.927   4.281 -0.2628  0.0123  0.3219
 1965W        W18812   9.505   6.705   0.830 -0.1172 -0.0660  0.2160
 1966W        W18813   1.873   5.856  10.407  0.0735 -0.2658 -0.0183
 1967W        W18814   0.146   4.857   0.108 -0.1031 -0.2626 -0.2088
 1968W        W18815   8.416   9.484   9.377 -0.1040  0.1264 -0.2330
 1969W        W18816  11.095  16.460   4.051  0.1632  0.1226  0.2056
 1970W        W18817  11.997  15.574  13.041  0.3810  0.0345  0.1567
 1971W        W18818   3.053  10.443   5.076  0.4250 -0.0067  0.1856
 1972W        W18819   9.204   3.216   0.056 -0.1093 -0.1013 -0.0318
 1973W        W18820  15.630   5.302  12.435  0.1955  0.1662  0.2435
 1974W        W18821  17.344  10.997   1.976  0.0405 -0.0001  0.1493
 1975W        W18822  12.614  16.635   0.184 -0.0158 -0.3130 -0.4113
 1976W        W18823   9.546  18.425   3.086  0.2163 -0.0122  0.1972
 1977W        W18824   5.697   7.406  13.803  0.0715  0.1201  0.0325
 1978W        W18825  10.035   9.257   2.552 -0.0130  0.1625  0.2038
 1979W        W18826   9.412   9.460   3.146 -0.0736  0.1731  0.1154
 1980W        W18827  11.172   9.418  12.245  0.0052  0.2285  0.1502
 1981W        W18828  15.798   6.078  10.747  0.0576  0.0970  0.0083
 1982W        W18829  10.344   4.387  13.565  0.1724  0.2332  0.1315
 1983W        W18830   3.949   9.008  12.275 -0.1055 -0.0146 -0.1544
 1984W        W18831   2.932   1.851   1.816  0.2308  0.0778 -0.1256
 1985W        W18832   6.698   9.052   2.966  0.1287  0.0387  0.1355
 1986W        W18833   4.008   1.449   4.217 -0.1263 -0.0512  0.3088
 1987W        W18834  16.061   9.998   4.666  0.0620 -0.3311 -0.1942
 1988W        W18835   9.599   9.149  11.142 -0.1239 -0.0613  0.1723
 1989W        W18836   6.882  10.970   0.714 -0.0136 -0.0264 -0.2318
 1990W        W18837  12.216  11.744   3.918 -0.1535 -0.0552 -0.0756
 1991W        W18838  15.018  19.651  11.405  0.1593  0.2512  0.2458
 1992W        W18839   9.314  12.056   2.956 -0.0330  0.0441 -0.0404
 1993W        W18840  12.852   3.241  12.822  0.1212 -0.5762 -0.2102
 1994W        W18841  17.086   7.668   3.540 -0.2977  0.0134 -0.0496
 1995W        W18842   6.699  18.402  12.818 -0.0351  0.3238 -0.2662
 1996W        W18843   9.791   9.673   2.418  0.0452  0.0346  0.1697
 1997W        W18844   4.730   1.538   0.117 -0.3485 -0.3725 -0.0562
 1998W        W18845   7.902   8.313   0.508  0.1530  0.1706 -0.1814
 1999W        W18846  18.194   9.050  14.103 -0.0375 -0.0632  0.2761
 2000W        W18847  10.690  12.151   3.026  0.4293 -0.3057  0.1352
 2001W        W18848   7.475  13.006   1.700  0.2518 -0.0130 -0.2964
 2002W        W18849  12.068  15.732  14.037  0.2174  0.5516 -0.1261
 2003W        W18850  16.054  12.307  10.402 -0.0261 -0.0939 -0.0423
 2004W        W18851   9.375  17.588   3.666 -0.1673  0.0736 -0.1902
 2005W        W18852   6.094   4.627   9.340 -0.0262 -0.1483  0.1283
 2006W        W18853   1.783  15.741   9.640 -0.1895  0.2019 -0.5228
 2007W        W18854  11.131   1.326   1.761 -0.0933  0.4086 -0.5401
 2008W        W18855   0.437   1.117   4.267 -0.2818 -0.0389 -0.1432
 2009W        W18856   6.242   6.017  12.724  0.1505  0.2888  0.2647
 2010W        W18857   6.806   0.396   9.730 -0.0437 -0.1926 -0.1424
 2011W        W18858  17.411  16.082   3.688  0.2207  0.3063  0.0513
 2012W        W18859   2.803   3.179   3.801 -0.0840 -0.3344  0.0830
 2013W        W18860  10.566   4.956  10.733  0.0849 -0.1709  0.2134
 2014W        W18861   2.764  18.812   0.434 -0.0480 -0.1730  0.0649
 2015W        W18862  13.915  11.205  11.890  0.1324 -0.2153  0.0949
 2016W        W18863   1.997  10.084  13.368  0.2400 -0.0403 -0.2493
 2017W        W18864   4.045   7.467   0.813  0.2035  0.0416 -0.1341
 2018W        W18865  13.753   1.347  10.573 -0.0208  0.0662  0.1452
 2019W        W18866  14.937   1.386   1.248  0.2710 -0.1569 -0.2530
 2020W        W18867   7.678   1.554   2.338  0.3561  0.2460  0.0000
 2021W        W18868  17.459   3.543   1.350  0.2880 -0.1295 -0.1168
 2022W        W18869   3.573   2.325   3.945 -0.1990 -0.0658  0.1943
 2023W        W18870   0.117   1.098  10.866  0.2412  0.0401 -0.1878
 2024W        W18871   6.170  12.458   2.726  0.0594 -0.0441 -0.1421
 2025W        W18872  15.573   3.350   0.363  0.2323  0.1139  0.2308
 2026W        W18873  18.313  17.109  10.374 -0.0624  0.1435 -0.3969
 2027W        W18874  11.582   2.905   0.994 -0.3497 -0.0866  0.1952
 2028W        W18875  12.260  11.492  10.636 -0.0109 -0.1278  0.0264
 2029W        W18876  12.624  17.681  14.203  0.0276 -0.1432  0.0509
 2030W        W18877  16.225  13.426   0.063 -0.0654 -0.0960 -0.3636
 2031W        W18878  16.975   8.721   9.745 -0.2625 -0.0120  0.1565
 2032W        W18879  16.211   5.569  13.039  0.6044  0.1527 -0.1804
 2033W        W18880   6.151  16.909  10.105 -0.0182 -0.0087 -0.1113
 2034W        W18881  11.763   2.777   2.003  0.1665 -0.2395 -0.2562
 2035W        W18882   0.508  12.888  11.110  0.0445 -0.2400  0.2166
 2036W        W18883   1.187  14.497   3.619 -0.2623 -0.0334 -0.2974
 2037W        W18884   1.630  10.182  11.673 -0.1764  0.3136 -0.0190
 2038W        W18885   7.134  15.536  13.074  0.0010 -0.0151 -0.0659
 2039W        W18886  13.995   4.352   1.779 -0.0958  0.1388 -0.1074
 2040W        W18887   4.649  12.642   2.818 -0.2177  0.1820  0.2767
 2041W        W18888   3.770   4.852  12.716  0.2211 -0.1697 -0.4697
 2042W        W18889   5.831   1.353  11.460  0.1797  0.0270 -0.2208
 2043W        W18890  10.736  13.386  13.111 -0.2617  0.0592 -0.0292
 2044W        W18891  19.159  10.086  12.323  0.0903  0.1160 -0.2498
 2045W        W18892   0.973  14.020   4.581  0.0148 -0.0641 -0.3003
 2046W        W18893   8.336   6.857   4.103  0.3053  0.1183  0.1128
 2047W        W18894  14.779  13.189  10.128 -0.1504 -0.1744  0.1649
 2048W        W18895  14.051   1.821   1.577  0.1692 -0.0896 -0.0957
 2049W        W18896   0.286  15.414   0.483 -0.2727  0.3444  0.2007
 2050W        W18897  15.764  17.875   0.227 -0.1512  0.1366 -0.1678
 2051W        W18898   1.201  17.876   4.673 -0.0535  0.2033 -0.5019
 2052W        W18899  12.834   6.757   0.536  0.1325  0.3482 -0.0541
 2053W        W18900   0.912  15.635  10.605  0.1103 -0.0162  0.1111
 2054W        W18901  12.575   9.751  12.172 -0.1942  0.3601 -0.0579
 2055W        W18902   3.137   8.441  10.350 -0.1270 -0.2214  0.0589
 2056W        W18903   3.922  14.974   3.880  0.1614  0.2152  0.1682
 2057W        W18904   0.768   7.455  10.302 -0.1952 -0.3758 -0.1766
 2058W        W18905  13.195  15.399   4.745  0.2273  0.0813 -0.0002
 2059W        W18906  13.161  11.866  12.524 -0.2846 -0.2874 -0.0591
 2060W        W18907  15.963   8.850  11.649  0.1967  0.1445  0.2084
 2061W        W18908  14.780  10.009  10.477 -0.0417  0.2449  0.0537
 2062W        W18909   0.370   2.439   2.519  0.1586  0.2451  0.1834
 2063W        W18910   6.331   9.078  12.071  0.0875  0.2534 -0.1416
 2064W        W18911  18.198   1.312  10.694 -0.1683 -0.1558  0.1064
 2065W        W18912   2.482   9.709  10.492  0.1242 -0.0086  0.0556
 2066W        W18913   8.003  14.383   1.611  0.1141  0.0189  0.1787
 2067W        W18914  15.123  15.330   9.946 -0.0375  0.0336  0.2019
 2068W        W18915  11.191  16.433   4.705  0.1437 -0.3066  0.1299
 2069W        W18916  16.320   9.173   3.509  0.0919  0.0754  0.0163
 2070W        W18917  15.881  18.633   3.914  0.2282  0.1592 -0.0185
 2071W        W18918  12.958   5.146  12.160  0.0853  0.0718 -0.1524
 2072W        W18919  12.273   7.625   0.163 -0.1126  0.1200  0.0866
 2073W        W18920   0.080  10.804   3.428 -0.1386 -0.1702 -0.0122
 2074W        W18921   1.129   0.271   2.876  0.0615  0.0517 -0.0223
 2075W        W18922  10.560   8.198  13.864 -0.2609  0.1251  0.1382
 2076W        W18923   9.970   4.758  12.752  0.0812  0.0170 -0.2342
 2077W        W18924   8.222   6.590  12.032 -0.1161  0.0773 -0.3340
 2078W        W18925  18.202  19.376  10.466 -0.3107 -0.1773  0.3062
 2079W        W18926  16.926  14.109   9.746 -0.1601  0.3702  0.0562
 2080W        W18927  12.871   5.108  13.318 -0.0887  0.3906  0.0026
 2081W        W18928  18.893  19.191  13.177 -0.0533  0.3559  0.1094
 2082W        W18929  14.988  12.958   4.312  0.0071 -0.2649 -0.0523
 2083W        W18930   0.356   6.814   4.194 -0.1349  0.3023 -0.0712
 2084W        W18931  10.820  18.351   1.710  0.2295  0.4607 -0.0935
 2085W        W18932   2.311  17.892   4.248 -0.4054 -0.0537 -0.2479
 2086W        W18933   9.705   9.389  12.694  0.2237  0.0968  0.2458
 2087W        W18934  13.681  19.560   3.867 -0.2920  0.1519  0.0809
 2088W        W18935  10.876  18.592  12.811 -0.1318  0.0384 -0.3296
 2089W        W18936  15.139   5.964   9.590 -0.3292  0.1652 -0.1577
 2090W        W18937  16.327   6.213   2.764 -0.1483  0.0601  0.1461
 2091W        W18938   7.638  19.663   1.860  0.0158  0.2651  0.1992
 2092W        W18939  11.255   5.671  10.242  0.1509 -0.1331 -0.3009
 2093W        W18940   4.792   8.066  10.640  0.1024  0.0977  0.1568
 2094W        W18941  16.664   9.643  10.844  0.1730  0.1139 -0.2554
 2095W        W18942  13.700  13.353   3.185  0.3773 -0.1629  0.1309
 2096W        W18943   0.593   3.212  13.887 -0.0682  0.1537  0.0008
 2097W        W18944   6.548   8.199  11.953 -0.0182 -0.0740  0.0706
 2098W        W18945  11.819   6.249   2.765 -0.3786  0.0019 -0.1555
 2099W        W18946   2.133   2.509   2.888  0.0646 -0.0877  0.1020
 2100W        W18947  17.801  12.224  10.762  0.2276 -0.1170 -0.0460
 2101W        W18948   3.217   4.113   9.072 -0.0395  0.1047  0.0185
 2102W        W18949  13.992   3.867  13.458 -0.1538  0.1776  0.0468
 2103W        W18950  10.519  14.391   5.029  0.0528  0.2104 -0.1430
 2104W        W18951   9.973  15.656   1.752 -0.2024 -0.0431  0.1316
 2105W        W18952   3.486  17.539   5.390 -0.0605  0.1652 -0.3168
 2106W        W18953   0.920  16.037  11.916  0.0294 -0.3737  0.2455
 2107W        W18954  12.189   1.558   1.140  0.0083  0.1989  0.4001
 2108W        W18955   0.475   8.251   2.049 -0.1316 -0.2093 -0.0480
 2109W        W18956  16.553  14.272  12.157 -0.4202  0.1150  0.1428
 2110W        W18957   6.838  11.793   2.965  0.1894 -0.1446  0.1868
 2111W        W18958  15.300   3.603   4.362 -0.0681  0.1737  0.0945
 2112W        W18959  15.765   8.811  11.158 -0.2694 -0.1032  0.2086
 2113W        W18960   2.119  17.620   3.789  0.0661  0.1860  0.0226
 2114W        W18961   0.668  11.583  12.731  0.2576 -0.0118 -0.1984
 2115W        W18962   6.052  10.145   3.584  0.0311  0.3588 -0.0037
 2116W        W18963   3.416  18.395  11.957 -0.1009 -0.2795  0.0475
 2117W        W18964   7.860  16.072  10.689  0.0268 -0.0142 -0.0828
 2118W        W18965  10.843  14.755   3.499  0.2678  0.0897 -0.1054
 2119W        W18966   3.323  11.913  11.180 -0.0963 -0.3591 -0.1423
 2120W        W18967  15.544  19.388  12.233  0.0668  0.0648 -0.2778
 2121W        W18968   8.285   5.750  14.207 -0.1535 -0.2501 -0.0240
 2122W        W18969  16.764  12.583   2.679 -0.1058 -0.2821 -0.0693
 2123W        W18970  12.442   2.076  13.008  0.1652  0.0717  0.2133
 2124W        W18971  10.547  18.887   2.328  0.0588  0.0627 -0.0068
 2125W        W18972  10.090   3.505   3.309 -0.2954  0.2059  0.0052
 2126W        W18973  16.945   4.852   4.271  0.0360 -0.1434  0.2626
 2127W        W18974  12.426   7.561   3.811  0.0093  0.0954  0.3453
 2128W        W18975  10.791  16.938   0.837 -0.0918  0.2577 -0.0851
 2129W        W18976   3.828  18.968  10.500  0.3466 -0.3977 -0.2822
 2130W        W18977  11.154  18.221   4.053 -0.2762 -0.0619  0.2163
 2131W        W18978   7.529  15.498   4.860  0.1045 -0.0423 -0.0768
 2132W        W18979   1.305  17.463   4.998 -0.2999  0.0272 -0.3738
 2133W        W18980   5.181   1.196   2.395  0.0284  0.1530 -0.1399
 2134W        W18981   6.323   5.844  11.366  0.1954  0.0425  0.0657
 2135W        W18982  18.833   9.269   2.780 -0.1248  0.0873  0.4845
 2136W        W18983   9.743   1.141   2.092 -0.1260 -0.2426 -0.4158
 2137W        W18984  13.062   8.246  13.204  0.0417 -0.0089 -0.0851
 2138W        W18985   5.771   0.093   3.043 -0.1207 -0.2470  0.1585
 2139W        W18986   9.345   8.674  11.871 -0.1544  0.1138 -0.0855
 2140W        W18987  14.943  16.484   3.609  0.2538 -0.0211  0.2217
 2141W        W18988   9.643  10.634  10.186  0.2297  0.3499 -0.3554
 2142W        W18989   8.209  11.225   2.127 -0.0505  0.2180 -0.1878
 2143W        W18990  14.433  18.616   0.421 -0.0883 -0.2515 -0.1111
 2144W        W18991  13.796   1.795   3.997  0.2855  0.0479  0.2512
 2145W        W18992   2.625   2.592   2.482 -0.1434  0.2411 -0.0736
 2146W        W18993  12.885   3.953  12.661 -0.2475  0.1078  0.0057
 2147W        W18994  11.643   1.843  12.382  0.2196  0.0379  0.1069
 2148W        W18995  12.215  15.876  11.437  0.0690  0.0863 -0.0630
 2149W        W18996   9.763  11.122  10.036 -0.0846 -0.1390  0.1098
 2150W        W18997   0.828  14.069   0.150  0.0410 -0.2554 -0.0071
 2151W        W18998   2.819  17.702  13.873  0.1750  0.0088 -0.0822
 2152W        W18999  15.557  12.460   2.798  0.0521 -0.2519  0.1552
 2153W        W19000  18.368  11.022   4.219  0.1965 -0.1879  0.2449
 2154W        W19001  19.191  16.478  11.048 -0.2985  0.0300  0.1650
 2155W        W19002   6.065   8.530  12.867 -0.0292  0.1853  0.0732
 2156W        W19003   8.384  13.619  13.739  0.0863  0.0557  0.1174
 2157W        W19004  11.998  11.394   4.340 -0.2845 -0.3807  0.0032
 2158W        W19005   3.015  19.798   3.954 -0.0003 -0.2717  0.1091
 2159W        W19006   8.045  17.362   0.967 -0.0380 -0.2658 -0.2087
 2160W        W19007  15.422  12.483  13.064 -0.2197 -0.1639  0.1495
 2161W        W19008   7.085  12.313   3.690  0.0853  0.0967  0.2719
 2162W        W19009  10.174   2.741   1.286 -0.1994 -0.2310  0.2802
 2163W        W19010  11.837  13.032   1.717  0.1337  0.0500 -0.1072
 2164W        W19011  11.781   7.737  11.675  0.0934 -0.2368  0.3368
 2165W        W19012  10.819   6.592   1.283 -0.2907  0.0245 -0.1950
 2166W        W19013   5.665  16.532   1.256  0.1608 -0.0490  0.1708
 2167W        W19014  16.071  10.310  13.586 -0.2431  0.1150  0.2737
 2168W        W19015  14.058   5.130  11.354  0.1193 -0.3720  0.0069
 2169W        W19016  11.122   0.077   3.733 -0.3753  0.2437 -0.3300
 2170W        W19017   6.054   2.059  14.125  0.0682 -0.0118  0.0385
 2171W        W19018   8.180   4.393  11.975 -0.4275 -0.0458  0.0826
 2172W        W19019  15.376  11.709  10.155  0.0480 -0.0333  0.1443
 2173W        W19020  10.648  10.696  10.197  0.4247 -0.0466 -0.0239
 2174W        W19021   6.446  19.338   2.966 -0.0321  0.0948  0.0557
 2175W        W19022   8.325   3.824  10.149  0.0664 -0.0499  0.1758
 2176W        W19023  12.093   0.194   0.867  0.2068 -0.0129  0.0461
 2177W        W19024  12.716   8.169   2.750 -0.1517  0.1377 -0.0356
 2178W        W19025  19.821  19.037   4.334  0.1919  0.0928  0.1189
 2179W        W19026   9.124  11.249   0.043  0.1436 -0.4122 -0.0287
 2180W        W19027  14.656  10.804   1.054  0.1139  0.0769 -0.3754
 2181W        W19028  10.173  19.865  14.356  0.1763 -0.0792  0.0158
 2182W        W19029  17.139  19.073   2.905 -0.2501  0.3431 -0.2615
 2183W        W19030   2.965  11.726  10.693  0.1525  0.2873  0.0063
 2184W        W19031   4.567   3.230   4.840 -0.1718 -0.0054 -0.0435
 2185W        W19032   7.569   2.315   0.466  0.2492  0.0538  0.0697
 2186W        W19033   7.397   7.688   4.208 -0.1102  0.1339 -0.0490
 2187W        W19034  17.150  17.714   0.073  0.1324 -0.1250 -0.2175
 2188W        W19035   7.690   7.618  12.157  0.2609  0.1378 -0.1727
 2189W        W19036   0.800  14.888   3.480  0.1773 -0.1184 -0.0843
 2190W        W19037   4.278  11.989   0.339 -0.1289  0.0643 -0.0308
 2191W        W19038   7.338   9.525  13.774  0.0021 -0.2293  0.1567
 2192W        W19039   2.606  12.466   4.997 -0.0249  0.0486 -0.1754
 2193W        W19040  11.127   5.086   1.297 -0.0198  0.3649  0.0782
 2194W        W19041   2.884  12.050   2.890  0.1691  0.2397 -0.3419
 2195W        W19042   6.715  13.109   4.060 -0.0546 -0.0674  0.0857
 2196W        W19043  18.385   5.457  12.513 -0.1625  0.0770  0.1095
 2197W        W19044   2.721  15.062  11.890  0.1474  0.0402  0.1510
 2198W        W19045  14.952  12.078   2.278  0.0139 -0.0759 -0.0736
 2199W        W19046   2.562   4.024   5.159  0.0398  0.0805 -0.2485
 2200W        W19047  13.744   9.403  10.769 -0.3631  0.2529 -0.4100
 2201W        W19048   1.521  19.799   9.157 -0.0460  0.0244  0.0757
 2202W        W19049  10.362  12.049  13.565  0.0234  0.2559  0.4067
 2203W        W19050   3.967  14.759  13.968  0.0171 -0.0026  0.1504
 2204W        W19051  13.035  12.070   0.009  0.1002 -0.2816 -0.1678
 2205W        W19052  13.018   2.098   4.321 -0.0523 -0.1189  0.3266
 2206W        W19053   1.120  14.508   2.723 -0.2343  0.0840  0.1221
 2207W        W19054   2.991   5.672  12.988 -0.1609  0.0100 -0.1859
 2208W        W19055  10.542  18.742   1.426  0.3554  0.1230  0.1048
 2209W        W19056  13.271   6.301  10.713 -0.1179  0.1033 -0.1206
 2210W        W19057   5.068  16.122  11.544  0.5876 -0.1326  0.0225
 2211W        W19058  11.219   0.654   4.320 -0.2858 -0.0898 -0.0754
 2212W        W19059   7.170  17.407   3.063  0.0552  0.0481  0.1046
 2213W        W19060   2.740   4.059   3.149  0.1532  0.1424 -0.1195
 2214W        W19061  16.862   9.813  10.360  0.2118 -0.0888  0.1575
 2215W        W19062  15.850   9.588  13.140 -0.3644  0.1511 -0.0569
 2216W        W19063   4.056   5.686   2.733  0.1561  0.1894 -0.0355
 2217W        W19064  15.707  10.371  12.081 -0.0890  0.0544  0.1137
 2218W        W19065   2.010   6.456  14.300  0.3607 -0.1352 -0.0221
 2219W        W19066   5.433   0.019  10.357  0.0115 -0.0721 -0.2895
 2220W        W19067  12.002   5.727  10.956 -0.2724 -0.2601 -0.1157
 2221W        W19068   8.888  16.521  11.497 -0.3034  0.3598 -0.0064
 2222W        W19069  15.050  17.045  13.081  0.3038  0.1950 -0.2779
 2223W        W19070   9.513  17.824   0.849 -0.1250 -0.0989  0.1904
 2224W        W19071  13.517  19.095   1.255  0.0206 -0.1460 -0.1870
 2225W        W19072   8.210   8.042  11.227  0.2263 -0.3178  0.0638
 2226W        W19073   5.022   0.731   2.177 -0.1642  0.0022  0.3411
 2227W        W19074   5.150   2.881   9.829 -0.1516 -0.2348 -0.3096
 2228W        W19075   9.794  18.657   3.515 -0.1434  0.0019  0.2938
 2229W        W19076  15.336   1.612  11.002  0.1991  0.2130 -0.0083
 2230W        W19077  18.869   8.644   1.400  0.4765  0.1136  0.2246
 2231W        W19078   5.510  15.305  12.013  0.3721  0.1118 -0.2219
 2232W        W19079  19.640   1.713  11.287  0.1319 -0.0017 -0.3739
 2233W        W19080   0.785   8.804   3.430  0.1087 -0.1990  0.0224
 2234W        W19081   8.280  17.187  11.438 -0.0177 -0.1567 -0.0205
 2235W        W19082  17.213   2.312   0.620  0.0191 -0.1187  0.0185
 2236W        W19083   8.410   7.338   0.548  0.1542 -0.0276 -0.4298
 2237W        W19084  12.379   3.177  13.023  0.0271 -0.0461  0.0183
 2238W        W19085  14.198  12.875  12.416 -0.1709  0.3011  0.2342
 2239W        W19086   3.935   4.148   0.604  0.3086 -0.0255  0.2604
 2240W        W19087   3.991   3.406  10.365  0.0914 -0.2343  0.0072
 2241W        W19088  16.858   6.413   5.219  0.1370  0.1942  0.2262
 2242W        W19089  12.505   5.769  10.282  0.1781 -0.0680  0.1054
 2243W        W19090   8.975  15.475   1.751  0.1950  0.1629 -0.1990
 2244W        W19091  16.374  11.986  10.562 -0.0498 -0.0305 -0.0098
 2245W        W19092   6.816   9.809  11.686 -0.1203 -0.1565  0.6421
 2246W        W19093  12.722  15.519   2.848 -0.1264  0.2599  0.1010
 2247W        W19094  12.634   9.325   0.464  0.0348  0.0408 -0.0446
 2248W        W19095  13.601   8.103  11.498 -0.2216 -0.0141  0.0226
 2249W        W19096   0.408  13.957   1.067  0.3685 -0.2067  0.1723
 2250W        W19097  13.282  18.487   5.029 -0.0438 -0.3805  0.0669
 2251W        W19098  11.675  10.827  11.920 -0.2390 -0.1316 -0.1102
 2252W        W19099  11.789   1.426   3.166  0.1191  0.5732  0.2244
 2253W        W19100   0.934   4.108   4.433 -0.2830  0.0579  0.0821
 2254W        W19101  14.624   9.987   3.222 -0.3668 -0.1566 -0.0591
 2255W        W19102   4.461   7.476   2.882 -0.1379  0.1234  0.5797
 2256W        W19103   9.261   2.592   1.174  0.2593 -0.0090 -0.2929
 2257W        W19104   6.626  12.241  11.445  0.0963 -0.1134  0.0574
 2258W        W19105  12.768   0.191   2.562  0.0410 -0.1796 -0.0956
 2259W        W19106   3.688  17.191  10.361  0.0193 -0.3112 -0.1766
 2260W        W19107   3.187   8.730  13.663 -0.0270 -0.0042  0.4059
 2261W        W19108   7.464  17.244   9.862 -0.0281  0.1445 -0.1922
 2262W        W19109  12.231   5.258   1.207 -0.1886  0.3047 -0.0271
 2263W        W19110   5.635   9.974   1.996 -0.0125 -0.2744  0.1439
 2264W        W19111  12.853   4.612  13.481 -0.0238 -0.0868  0.2418
 2265W        W19112   2.255  18.166   0.043  0.0930 -0.0022  0.0204
 2266W        W19113  16.716  15.499  10.482  0.2581  0.0471  0.1391
 2267W        W19114   7.067  16.887   3.121 -0.2226 -0.1415  0.2149
 2268W        W19115  12.689   2.500  12.211 -0.0029  0.1602 -0.1061
 2269W        W19116   8.791   5.933   1.622 -0.0195 -0.0011 -0.3652
 2270W        W19117   9.345   6.347  10.251 -0.0519 -0.2298 -0.1936
 2271W        W19118   5.833   6.634   9.677  0.0171  0.0692  0.2658
 2272W        W19119  18.907  14.001   3.586 -0.0140 -0.3429  0.3354
 2273W        W19120  13.150  17.521   3.673  0.0621  0.1650 -0.1686
 2274W        W19121   5.841   3.355  11.829 -0.1109 -0.0101 -0.2513
 2275W        W19122  10.733  19.146  10.012  0.0721  0.2071  0.2449
 2276W        W19123   3.464  14.753  13.379  0.0552  0.0231 -0.1434
 2277W        W19124   6.035   5.522  13.827 -0.0778 -0.3232 -0.1332
 2278W        W19125  15.929   8.860   3.850  0.3044  0.0136  0.2366
 2279W        W19126  19.777   2.669   4.804 -0.2512 -0.2543 -0.0847
 2280W        W19127   5.676   8.664   2.225 -0.1654 -0.1768  0.0382
 2281W        W19128   2.238  11.253  11.448 -0.0136 -0.2745 -0.1594
 2282W        W19129   8.882   1.775  12.361 -0.2846 -0.4410  0.0315
 2283W        W19130   0.007   6.227   4.850  0.1332 -0.0951  0.0021
 2284W        W19131  13.233   0.791   0.529  0.3731 -0.0427 -0.1657
 2285W        W19132   9.080  11.638   1.025 -0.1659  0.5136  0.4701
 2286W        W19133  14.587   6.313  13.036  0.0465  0.2383 -0.3895
 2287W        W19134   5.956   4.106   0.793  0.0047  0.1527  0.0404
 2288W        W19135  12.435   5.993   0.607  0.2468  0.1173 -0.1066
 2289W        W19136  12.732   9.344  12.447  0.0400  0.0631 -0.1952
 2290W        W19137  18.010  13.337   1.667 -0.2205 -0.0023  0.1568
 2291W        W19138   3.949  12.529   0.711  0.1080 -0.1582  0.5200
 2292W        W19139   8.801   1.144  12.903  0.0247  0.2155  0.1452
 2293W        W19140   1.324   7.712   1.360 -0.2584 -0.2138  0.2131
 2294W        W19141   4.562   0.894  13.722  0.0719 -0.0364  0.0625
 2295W        W19142  15.303   1.906   2.375  0.4378  0.1575  0.2345
 2296W        W19143  15.306  13.214   1.704  0.3335  0.1685  0.0197
 2297W        W19144  19.223  16.074  10.063  0.0156 -0.0788  0.1432
 2298W        W19145  13.136   4.693  12.094  0.5880  0.2596 -0.1132
 2299W        W19146  19.357  16.142  13.830  0.2046  0.0639  0.0720
 2300W        W19147  14.657  11.216  12.770  0.1010 -0.1687 -0.0286
 2301W        W19148   5.430  16.828  13.702 -0.0559 -0.0844 -0.3120
 2302W        W19149  15.322  15.441  12.309  0.4184 -0.3799 -0.0434
 2303W        W19150   7.949  13.000   1.423  0.1353  0.0771  0.0867
 2304W        W19151  18.667  19.832   1.563  0.0203  0.4779  0.0767
 2305W        W19152   6.647  18.706   5.824 -0.2697  0.2752  0.0829
 2306W        W19153   0.921  14.194   3.053 -0.0954  0.0983  0.1101
 2307W        W19154  14.623  19.013  13.944 -0.1492  0.5087 -0.0052
 2308W        W19155   4.330   6.067   0.457  0.0124  0.0637 -0.2670
 2309W        W19156   4.369  17.633  13.243 -0.1533  0.1382 -0.2317
 2310W        W19157  15.212  14.845   9.552 -0.1994 -0.3532  0.2045
 2311W        W19158   8.151  12.181   3.909  0.3430 -0.2931  0.2386
 2312W        W19159   7.667  11.688  13.737  0.1019  0.2140  0.0569
 2313W        W19160  13.946  13.135   1.542 -0.0143  0.2694 -0.4116
 2314W        W19161  15.830  11.468   9.667 -0.2710  0.1633  0.0077
 2315W        W19162  13.855   5.565  13.142 -0.3199  0.5132  0.1832
 2316W        W19163  19.700   9.848  12.563  0.0948  0.0995 -0.0019
 2317W        W19164   2.542   8.005  13.374  0.2665  0.1019 -0.1899
 2318W        W19165  14.133  13.431   0.275 -0.1489 -0.2079 -0.1002
 2319W        W19166  13.277   3.558  10.575 -0.0860  0.2060  0.1288
 2320W        W19167  11.964   3.665  10.653 -0.2588  0.1854  0.1879
 2321W        W19168   7.400   3.624   2.732  0.2044  0.4462 -0.1518
 2322W        W19169   6.279  15.727   1.083  0.0235 -0.0410  0.1810
 2323W        W19170   9.498  19.342   4.675 -0.2312  0.0460 -0.1571
 2324W        W19171  17.972  18.227   0.153 -0.1756  0.2747  0.1598
 2325W        W19172   3.890  12.945   0.259  0.1008 -0.0978 -0.1734
 2326W        W19173  17.823   1.686  10.922 -0.3035  0.0836  0.1025
 2327W        W19174  17.024  17.137   1.502 -0.1363  0.0420 -0.0150
 2328W        W19175  10.835   5.196   9.990  0.3974  0.0594  0.0261
 2329W        W19176  13.933   2.722  10.587 -0.0564  0.0808 -0.1206
 2330W        W19177   4.473   7.050  12.342 -0.0287 -0.2703 -0.0260
 2331W        W19178  15.444   6.480   0.687 -0.3817  0.3532 -0.1180
 2332W        W19179  13.783   0.683  10.477 -0.0629 -0.0638  0.1429
 2333W        W19180  14.971  15.475  12.670 -0.3184  0.1811 -0.3502
 2334W        W19181   4.575   0.676   1.292 -0.0240  0.0186 -0.1167
 2335W        W19182   0.722   3.176   2.411 -0.3448  0.2755  0.1077
 2336W        W19183   5.054  10.487   2.623 -0.3308  0.0429 -0.2849
 2337W        W19184  18.130  15.215   4.907 -0.2402 -0.0447 -0.0376
 2338W        W19185  19.773  10.870  12.595 -0.0786  0.2016 -0.0176
 2339W        W19186   7.034  10.743   0.202 -0.1347 -0.0729 -0.1997
 2340W        W19187  11.981   4.432   2.315 -0.0147 -0.2995 -0.0896
 2341W        W19188  14.760   5.390   3.078 -0.1814  0.0186  0.1370
 2342W        W19189   3.371   6.074  11.667 -0.0696 -0.1912  0.5446
 2343W        W19190   2.804   4.159  13.147  0.3266 -0.0236 -0.2206
 2344W        W19191  17.171   1.572   3.152  0.2373  0.0202 -0.0322
 2345W        W19192  12.266  16.391   4.831  0.0286 -0.2261 -0.3434
 2346W        W19193  17.541   5.910   3.023 -0.0809 -0.0486 -0.3049
 2347W        W19194   7.395   9.195   3.329  0.0485  0.6396 -0.1992
 2348W        W19195  15.716   2.427  12.712 -0.0947  0.1170  0.5172
 2349W        W19196  12.119  19.475  10.206  0.1085  0.0389  0.2087
 2350W        W19197  16.722   8.714   4.237  0.1616  0.3197  0.0395
 2351W        W19198  15.894   2.523   3.435 -0.0796  0.1723 -0.3368
 2352W        W19199   9.280   3.544   3.323  0.1206  0.1820  0.0666
 2353W        W19200  17.808  11.891   4.269 -0.0239 -0.1834 -0.1678
 2354W        W19201  19.308   1.693  13.737 -0.3650  0.2424  0.1511
 2355W        W19202  11.819  10.876  14.270 -0.4166 -0.0343  0.1939
 2356W        W19203  18.764   8.841  11.364 -0.0331  0.0066  0.1025
 2357W        W19204   6.026  13.696   9.939 -0.2371  0.0484 -0.2415
 2358W        W19205   7.027  10.841  13.553  0.0206 -0.3456  0.1764
 2359W        W19206  15.996  16.484   4.228  0.0629 -0.1289  0.1818
 2360W        W19207   9.076   8.157   0.613  0.0115 -0.1259  0.0902
 2361W        W19208  19.328   0.970   3.362 -0.1071 -0.0340 -0.1687
 2362W        W19209   1.607  16.047  13.389  0.3726 -0.2841 -0.1246
 2363W        W19210   2.225  14.736   1.852  0.0002 -0.0132 -0.2424
 2364W        W19211   8.295   2.947  10.068 -0.0190 -0.1130  0.1459
 2365W        W19212  14.612  18.799  11.185 -0.0333  0.0765 -0.1400
 2366W        W19213  19.600  11.228  10.992 -0.0810 -0.2278 -0.1799
 2367W        W19214   7.531  14.496  10.689 -0.1505  0.1380 -0.2313
 2368W        W19215   6.059   7.070  14.238 -0.3733  0.1690 -0.2573
 2369W        W19216  19.205   1.137   1.436  0.0638 -0.4445 -0.1703
 2370W        W19217  19.597   7.794   2.621  0.1939 -0.5451  0.0095
 2371W        W19218  15.214  11.323   3.386  0.0816 -0.1244  0.2879
 2372W        W19219  13.665   7.169  13.161  0.0885 -0.2103 -0.1798
 2373W        W19220   0.089  14.863   3.244  0.2099 -0.1990  0.4334
 2374W        W19221   6.898   1.140  10.909 -0.1147 -0.0113 -0.1484
 2375W        W19222   4.400   4.045   5.331 -0.0041  0.3685 -0.4424
 2376W        W19223   9.761  16.807  11.690  0.0113 -0.1424 -0.2612
 2377W        W19224  19.487  15.189  13.523 -0.0056 -0.1187  0.1352
 2378W        W19225  11.545   5.848   4.584  0.1696 -0.1652  0.1076
 2379W        W19226   9.689  12.453   3.565 -0.1936 -0.3533  0.1454
 2380W        W19227  17.831  18.345   3.495 -0.1222  0.2506 -0.0424
 2381W        W19228   8.750  14.124  12.452  0.3078  0.3194  0.2587
 2382W        W19229   0.441   2.063   9.901 -0.2281 -0.2293 -0.1410
 2383W        W19230   1.618  16.953  11.913  0.4479  0.2628 -0.3259
 2384W        W19231  18.750   7.143  11.480 -0.1273  0.3979 -0.1109
 2385W        W19232  18.166  19.485  11.214 -0.1416  0.0902  0.3534
 2386W        W19233   4.855   5.280  12.036  0.2980  0.1163  0.2155
 2387W        W19234   7.318   0.207  12.931 -0.1174 -0.3809 -0.1821
 2388W        W19235   0.928   2.029  12.739  0.1636  0.3315  0.0177
 2389W        W19236   8.963  12.307   4.607  0.0194  0.3612 -0.0940
 2390W        W19237  18.300  11.484  11.413  0.1679  0.0905 -0.0183
 2391W        W19238   7.971   9.145  12.325  0.0205  0.1948  0.0451
 2392W        W19239  16.096  18.854   9.682 -0.0210 -0.0105 -0.2321
 2393W        W19240   0.924   5.965   2.188 -0.0976  0.1111 -0.0340
 2394W        W19241   9.991   9.270  10.323  0.0229 -0.2009 -0.2664
 2395W        W19242   7.794  16.860   4.085 -0.0760 -0.0848  0.1801
 2396W        W19243  19.594   5.784  13.755 -0.0039  0.1075  0.0517
 2397W        W19244  18.457   4.968  12.374 -0.0766 -0.0494  0.0644
 2398W        W19245   3.155  11.288   3.322 -0.1236  0.1884 -0.2497
 2399W        W19246   7.770   9.891   0.752  0.1898  0.2654 -0.0334
 2400W        W19247   6.307  18.867   2.195  0.0362  0.0877  0.3590
 2401W        W19248  18.277  10.789  11.978 -0.0198 -0.3148  0.0474
 2402W        W19249  17.551  17.153   2.136  0.1223  0.1179 -0.3967
 2403W        W19250  14.550  18.268  11.980  0.2376  0.1887  0.3233
 2404W        W19251   0.992  10.306  11.611  0.0554 -0.0872 -0.0589
 2405W        W19252   9.765   2.154   0.502  0.0160 -0.2349 -0.3601
 2406W        W19253  19.604  12.548   3.989  0.2264 -0.1321  0.0592
 2407W        W19254   4.828  18.087  12.437 -0.0178 -0.1557 -0.1227
 2408W        W19255   1.784  17.602  13.666 -0.4924 -0.0597 -0.2570
 2409W        W19256   2.885  15.534  14.341  0.0942  0.2314 -0.1703
 2410W        W19257   4.413  18.685  12.907  0.3216 -0.1867  0.2889
 2411W        W19258   2.128  10.959   1.784  0.1372  0.2531 -0.0060
 2412W        W19259   5.120  15.907   2.945 -0.0069 -0.0882 -0.0673
 2413W        W19260   1.740  12.537   4.493 -0.2263 -0.2049  0.0145
 2414W        W19261  17.572   7.944  11.826  0.3810 -0.3556 -0.1148
 2415W        W19262  19.259   0.202   3.728  0.1923  0.0128  0.2086
 2416W        W19263  18.456  17.062   3.040  0.2291 -0.0366 -0.0910
 2417W        W19264  13.339   6.378   1.794 -0.0888  0.3669  0.1026
 2418W        W19265   6.690   4.234   4.297  0.0191 -0.0457  0.0493
 2419W        W19266   1.847   3.214  10.101 -0.1063 -0.1159 -0.1050
 2420W        W19267   5.318  15.307   2.294  0.2065  0.3712 -0.1522
 2421W        W19268   0.461   2.426  13.256  0.1504 -0.2148  0.0307
 2422W        W19269   4.959  18.476  12.798  0.0670 -0.0128  0.1577
 2423W        W19270   0.343   1.118  12.567 -0.0316 -0.0129  0.1877
 2424W        W19271   1.995  11.478   3.911 -0.1243  0.0979 -0.2394
 2425W        W19272   9.985  11.683   1.637 -0.1732 -0.1198 -0.1111
 2426W        W19273  18.582   2.655  13.996 -0.3527 -0.1970  0.2481
 2427W        W19274  11.950   2.393   1.713 -0.1694 -0.2168  0.4162
 2428W        W19275   7.613  18.630  10.417 -0.1258 -0.1442  0.1205
 2429W        W19276  14.035   4.777  10.383  0.1079  0.1027  0.5284
 2430W        W19277  18.586   3.215   0.172 -0.1741 -0.1599  0.0291
 2431W        W19278   6.367  11.070   0.840  0.3739  0.2240 -0.2183
 2432W        W19279  14.566  13.708   1.258  0.2866 -0.1510  0.4117
 2433W        W19280   6.625   8.634   0.982  0.2117 -0.4600 -0.0355
 2434W        W19281   8.063  15.932  12.580  0.2975 -0.2664  0.0688
 2435W        W19282  14.134   4.204  11.204 -0.0172  0.3446 -0.0414
 2436W        W19283   6.788   3.045   3.166  0.0754 -0.0664  0.0486
 2437W        W19284   3.108  18.690  14.129  0.1409 -0.0511  0.3035
 2438W        W19285  12.227   5.036   2.096 -0.1052 -0.0352 -0.4425
 2439W        W19286   9.672   7.109   9.962 -0.2121  0.0325 -0.2663
 2440W        W19287   2.044   0.711  13.024 -0.3514  0.0862  0.1723
 2441W        W19288   2.582   2.559   1.071 -0.3379  0.2173 -0.4153
 2442W        W19289   7.731   3.127  11.498 -0.0977 -0.1098  0.1984
 2443W        W19290   4.172  16.129  10.549  0.0274  0.2039  0.0093
 2444W        W19291  18.331  12.846   5.176 -0.0427  0.0372 -0.0491
 2445W        W19292   3.857  11.991   5.032 -0.0453 -0.3205 -0.0945
 2446W        W19293  11.599   7.575   4.893  0.1187  0.0893 -0.1184
 2447W        W19294   5.233  12.008  11.537 -0.3034 -0.2226 -0.3378
 2448W        W19295  17.797   9.318   3.427 -0.1361  0.0503 -0.4320
 2449W        W19296   6.601  17.713  13.136 -0.1086 -0.0546 -0.1907
 2450W        W19297   3.270  10.253  12.049 -0.1351  0.0397 -0.0215
 2451W        W19298  18.893   3.850  11.159  0.2585 -0.1666 -0.0917
 2452W        W19299   1.898  15.023  12.379 -0.3317 -0.0302 -0.0172
 2453W        W19300  16.172   8.828   4.289 -0.1472  0.0286 -0.0316
 2454W        W19301   2.212  18.942  10.197 -0.1494  0.1920 -0.0874
 2455W        W19302  19.773  10.339   4.324 -0.0221  0.1785  0.3354
 2456W        W19303   4.995   9.913  10.444  0.0883  0.2650  0.1164
 2457W        W19304  12.614   3.391   2.426  0.0756 -0.2221 -0.0579
 2458W        W19305  15.676   1.834   4.018  0.2078  0.0767 -0.1760
 2459W        W19306   1.375  10.836  13.428  0.1006 -0.0734  0.0306
 2460W        W19307   1.976  13.732  11.015 -0.2584  0.2264 -0.1957
 2461W        W19308   4.766   5.710   1.228 -0.0278  0.0130 -0.0604
 2462W        W19309   7.444  15.099   9.996  0.0456 -0.6024 -0.0098
 2463W        W19310  16.153  17.779  14.297  0.2874  0.0956  0.1120
 2464W        W19311   7.535   8.093   4.010 -0.2231  0.3044 -0.4638
 2465W        W19312  14.118   4.907  14.362  0.2006 -0.0251  0.0352
 2466W        W19313  12.683  17.619   0.466 -0.3030  0.1303  0.0577
 2467W        W19314  10.997   0.093  11.836 -0.1472  0.0004 -0.0085
 2468W        W19315  10.635   4.740  13.342 -0.3462 -0.0722  0.2290
 2469W        W19316   9.798  11.884   2.105 -0.0198 -0.2003 -0.1641
 2470W        W19317   3.604  16.467   3.756 -0.0342  0.1216 -0.0300
 2471W        W19318  14.043   8.104  12.882  0.1241  0.1315  0.0440
 2472W        W19319   6.460   5.117   0.210 -0.0767  0.0752  0.4397
 2473W        W19320   1.899   6.609   1.424 -0.0187 -0.3475  0.2523
 2474W        W19321  14.538   2.806  14.190 -0.3833  0.0269  0.0324
 2475W        W19322  16.696  19.738  10.483 -0.1595  0.0111 -0.2778
 2476W        W19323  18.259  15.251  14.232  0.4126  0.0945  0.1400
 2477W        W19324  11.387   7.241  11.904 -0.1253 -0.2789 -0.1184
 2478W        W19325  10.361  16.043   4.332 -0.0542 -0.1881 -0.1580
 2479W        W19326  18.707  13.507  12.436  0.0216  0.0927 -0.0597
 2480W        W19327   1.164  16.050   5.319  0.2846 -0.0765  0.2822
 2481W        W19328   1.224  14.836  13.491  0.2305 -0.0312  0.2357
 2482W        W19329  19.569  12.898  11.978  0.1746  0.1137  0.2041
 2483W        W19330  13.992  18.802  11.778  0.0372 -0.1776 -0.0250
 2484W        W19331  17.199   4.520   4.852 -0.1110 -0.2948 -0.1223
 2485W        W19332   7.393  11.210   3.202  0.3091 -0.2969 -0.0321
 2486W        W19333  14.459   4.815  13.336  0.2104 -0.7534  0.1119
 2487W        W19334  19.587  12.936   1.023 -0.3056  0.0676 -0.3951
 2488W        W19335  17.356  14.083  11.050 -0.0487 -0.0863  0.2034
 2489W        W19336   9.986   8.049  13.246  0.3207  0.0931  0.0200
 2490W        W19337  15.338  15.882  10.483  0.3312 -0.0148  0.0821
 2491W        W19338   3.942  15.502  14.355  0.0036  0.1357  0.0374
 2492W        W19339  19.332  13.895  13.993 -0.1331 -0.0775 -0.1315
 2493W        W19340  13.363   6.709   3.660 -0.1742  0.3644 -0.0248
 2494W        W19341   9.323  13.933   4.580  0.1449 -0.0078 -0.2089
 2495W        W19342  10.040   7.798  11.040  0.5439  0.0760  0.0972
 2496W        W19343  19.341  10.704   9.997 -0.1868  0.0409  0.0994
 2497W        W19344   0.762  17.822  12.509  0.3765  0.1029  0.1433
 2498W        W19345   1.196  13.587  10.747  0.1642  0.3334  0.0722
 2499W        W19346  16.552   1.204   5.005  0.3262  0.0299 -0.0679
 2500W        W19347  16.529   5.658  11.117 -0.1776 -0.0905  0.1501
 2501W        W19348  19.825  16.338  13.793  0.1940 -0.1138 -0.0847
 2502W        W19349  10.508   5.061  11.716 -0.0543  0.0918 -0.2204
 2503W        W19350   1.446   2.941  11.689 -0.1184  0.2928  0.0541
 2504W        W19351  16.555  14.514  11.534 -0.0339 -0.0673 -0.1757
 2505W        W19352   7.559   3.196   3.608 -0.0351  0.0193  0.0933
 2506W        W19353  12.255  17.614   0.185 -0.3180  0.1053  0.1771
 2507W        W19354  15.394  10.851  13.500  0.1940 -0.1219  0.3052
 2508W        W19355   5.370   6.132  14.123 -0.0225 -0.4304 -0.1405
 2509W        W19356   5.940   7.000   4.159  0.4019  0.3281 -0.2736
 2510W        W19357  14.190   3.327   1.525  0.1303  0.2800 -0.0554
 2511W        W19358  10.173  11.512  11.468 -0.0973 -0.1335 -0.1327
 2512W        W19359   7.062   2.633  12.150 -0.1042 -0.1831 -0.2599
 2513W        W19360   7.906  17.295   1.826 -0.2535  0.2219 -0.0187
 2514W        W19361   1.576  11.321  13.479 -0.3509 -0.2012 -0.0311
 2515W        W19362  18.104   3.227   0.497  0.2131  0.0658 -0.3986
 2516W        W19363   3.886  10.139   3.691  0.0804  0.1140 -0.0125
 2517W        W19364  14.320  14.358  12.590  0.1093 -0.0030 -0.1183
 2518W        W19365   2.584  17.039  12.880 -0.1323  0.0215  0.1550
 2519W        W19366   8.938  18.441   3.528 -0.0442 -0.1206  0.0897
 2520W        W19367  13.996  15.456  11.076 -0.0687  0.4998  0.4392
 2521W        W19368   1.689  16.971  12.985 -0.0794  0.3610  0.0691
 2522W        W19369  17.639   5.371   3.117 -0.0133  0.3854 -0.2983
 2523W        W19370   8.766  11.044  13.622 -0.1638  0.0055  0.1415
 2524W        W19371   2.738  14.561  11.678  0.0502  0.1938  0.1156
 2525W        W19372  16.087   1.091  11.261  0.3637  0.0325  0.0413
 2526W        W19373   7.476   1.547  10.389  0.1041 -0.0843  0.0970
 2527W        W19374  17.611   1.429   4.803  0.1335 -0.1828  0.0728
 2528W        W19375   8.553   6.216   9.684  0.1174 -0.1654 -0.1695
 2529W        W19376  16.838   8.713  12.677 -0.1040 -0.0600  0.2700
 2530W        W19377  18.126   2.164  11.507 -0.2296 -0.2049 -0.0807
 2531W        W19378   2.357   6.524   1.072 -0.0433 -0.1528  0.2607
 2532W        W19379  13.726   6.795   1.896 -0.0297  0.1394  0.2136
 2533W        W19380   0.017  10.941  11.222 -0.0791 -0.1590 -0.0910
 2534W        W19381  13.243  18.642   4.587  0.0229  0.0217  0.1082
 2535W        W19382   0.939  18.582   2.437  0.4815 -0.0230 -0.2223
 2536W        W19383   5.673  12.813  10.859 -0.3229 -0.1138  0.0686
 2537W        W19384   2.094   4.028   1.894 -0.0067  0.4078  0.1310
 2538W        W19385   6.870  13.940   1.638  0.2898 -0.3662  0.0425
 2539W        W19386   2.431  17.732  11.685 -0.1852 -0.3634 -0.1220
 2540W        W19387   0.849   4.168   5.179 -0.2516 -0.1325 -0.2532
 2541W        W19388  17.794   6.395   3.677 -0.1084  0.0572 -0.1780
 2542W        W19389  15.401  17.161   2.411  0.0894  0.1587 -0.0999
 2543W        W19390  15.531  18.596  13.680  0.2565 -0.2704 -0.0259
 2544W        W19391  13.075   3.545  10.055 -0.0363  0.1441  0.1791
 2545W        W19392  14.651  17.059   1.593  0.1400 -0.4586 -0.0329
 2546W        W19393  14.425   9.626  10.760 -0.1153  0.0845  0.1782
 2547W        W19394  11.500  15.909   2.298 -0.0732  0.1923  0.3137
 2548W        W19395  17.547  11.839   4.675 -0.3094 -0.1615  0.2327
 2549W        W19396   8.395  11.133  12.075  0.3153  0.3381 -0.3093
 2550W        W19397  12.568   0.669  14.342  0.0835  0.3647  0.0051
 2551W        W19398   9.339   2.310   4.558 -0.0359 -0.0129 -0.0538
 2552W        W19399  15.220   9.380   2.310  0.2938  0.1248  0.1528
 2553W        W19400   2.304   7.168   0.172 -0.1961 -0.0307 -0.3159
 2554W        W19401  10.820  13.898   5.082 -0.1445  0.1146 -0.1640
 2555W        W19402  12.732   6.537  13.031 -0.0003 -0.0273 -0.0112
 2556W        W19403   9.630   7.726   0.035 -0.2188  0.0639  0.1082
 2557W        W19404   1.416   9.440   4.702  0.0827  0.1440  0.2130
 2558W        W19405   9.350   1.028  14.276  0.3067  0.0746  0.2437
 2559W        W19406   2.568  13.912   0.508 -0.3020 -0.0508 -0.2436
 2560W        W19407   4.241   4.221  10.666 -0.1893 -0.0000 -0.2109
 2561W        W19408   8.338   3.277   3.754 -0.0083  0.2224  0.1015
 2562W        W19409  14.313  10.386   2.882  0.2130  0.2977 -0.2521
 2563W        W19410  12.674  16.541  10.797 -0.2758  0.7683 -0.1792
 2564W        W19411  12.149   3.708  14.210 -0.0982 -0.0148  0.1961
 2565W        W19412   1.483   6.027  12.654  0.1002 -0.0755  0.0506
 2566W        W19413   9.180  14.764  13.679  0.1726 -0.3356  0.0310
 2567W        W19414  10.581   4.916   9.310  0.3111 -0.0383  0.1417
 2568W        W19415   6.118  19.254   0.151  0.0425  0.0840 -0.1807
 2569W        W19416   2.092  15.604   2.286 -0.0554 -0.4048 -0.3544
 2570W        W19417  11.823  19.436  11.440 -0.0810 -0.0963  0.1173
 2571W        W19418  16.349  12.252   2.479 -0.0903  0.1318 -0.0072
 2572W        W19419   0.628   2.481   1.071  0.2651  0.0254 -0.2457
 2573W        W19420   5.339  18.549   0.119  0.2980 -0.1177  0.2118
 2574W        W19421  11.099   0.806  12.266  0.2746  0.1813  0.1007
 2575W        W19422   2.084   8.543   2.180 -0.1081  0.0735  0.2070
 2576W        W19423   2.630  17.936   2.663 -0.2860  0.2366  0.2855
 2577W        W19424   1.316   3.569   4.604 -0.0607 -0.2186  0.2260
 2578W        W19425   1.955  19.355   0.679 -0.0545  0.5676 -0.0067
 2579W        W19426   0.966  13.431  11.891  0.1065 -0.1493  0.0624
 2580W        W19427  15.381  11.430  14.270 -0.0052 -0.0844  0.0317
 2581W        W19428   4.055   7.821   0.364  0.3821 -0.2525  0.2780
 2582W        W19429   0.887  10.613   5.334  0.0190  0.2526 -0.0211
 2583W        W19430   3.671  17.722  10.211 -0.0088 -0.2922  0.1266
 2584W        W19431  15.941  13.718   2.382 -0.0905  0.1832  0.0564
 2585W        W19432   8.388  15.272   1.915 -0.1305  0.2658  0.2345
 2586W        W19433  13.804  16.853  12.737  0.0477 -0.3342 -0.2901
 2587W        W19434   2.281  10.217   4.050 -0.4423 -0.4416  0.0349
 2588W        W19435  15.789   2.476   4.387 -0.1762 -0.0920  0.0693
 2589W        W19436  11.751   3.073  11.057 -0.3462 -0.0487 -0.2101
 2590W        W19437  17.956   1.223  11.574  0.2462 -0.0991 -0.2015
 2591W        W19438  13.483  18.763   2.083 -0.0902 -0.0459  0.3515
 2592W        W19439   3.346  12.629  13.728  0.0196  0.1098  0.0991
 2593W        W19440   3.260   0.802  13.401 -0.1547  0.1493 -0.2655
 2594W        W19441   2.222  11.375   4.309  0.0106  0.2361 -0.1082
 2595W        W19442   5.302   6.979  11.654 -0.1201  0.1013  0.0137
 2596W        W19443   6.858  19.359   2.569  0.1117 -0.1866  0.3270
 2597W        W19444  19.674  15.623  13.030  0.0204 -0.1013 -0.0064
 2598W        W19445   4.424  11.357  12.113 -0.1100 -0.2083 -0.2582
 2599W        W19446  11.126   0.572   1.069  0.2847  0.0185  0.0635
 2600W        W19447  19.621   2.837  13.170  0.0469  0.1713 -0.1341
 2601W        W19448  10.713  11.760  13.764  0.2828  0.3724  0.1791
 2602W        W19449   4.567  14.668  13.064  0.1813 -0.2121  0.3767
 2603W        W19450  13.537   6.694   9.801  0.2565  0.0647 -0.1629
 2604W        W19451  10.399  15.822   1.311  0.0549 -0.1213 -0.1772
 2605W        W19452   5.921  13.002  12.487 -0.0735  0.0115 -0.1645
 2606W        W19453   1.974  12.543   2.853  0.1797 -0.3523  0.0306
 2607W        W19454   1.321  13.538  12.283 -0.6138 -0.0449  0.2034
 2608W        W19455  13.569   9.852   4.467 -0.1612  0.0984  0.0839
 2609W        W19456   3.177   0.031   1.629  0.1719 -0.0243 -0.0632
 2610W        W19457  16.143  19.050  11.000 -0.1972  0.0565  0.1132
 2611W        W19458   2.310   4.413   3.145 -0.3041  0.1205 -0.2628
 2612W        W19459  16.271  16.543   1.183  0.1746 -0.2109 -0.0044
 2613W        W19460   9.275   7.783   0.364 -0.0313  0.0958  0.0922
 2614W        W19461  14.652  19.395  14.277 -0.0612 -0.0777 -0.0606
 2615W        W19462  11.699  18.678   0.316  0.2589 -0.2807  0.1481
 2616W        W19463  14.219  16.077   2.978  0.0289 -0.2146  0.3235
 2617W        W19464  15.538  13.747   2.746 -0.0706 -0.1456 -0.1339
 2618W        W19465  14.313  17.138   1.950  0.0178  0.1905  0.1650
 2619W        W19466   5.936   6.062   2.530 -0.1880  0.0344 -0.2179
 2620W        W19467  13.817   4.704  12.372 -0.1187 -0.2403 -0.0708
 2621W        W19468  17.309   3.167  14.341  0.2233 -0.0024  0.1708
 2622W        W19469   6.370  17.464  14.009 -0.0880  0.4056  0.3120
 2623W        W19470   8.394  13.863   3.119 -0.0940 -0.1811  0.0572
 2624W        W19471  11.720  11.445   3.875  0.1214  0.4115 -0.0773
 2625W        W19472  11.291  15.396   3.624 -0.1382 -0.2720  0.1544
 2626W        W19473  16.384   7.529  11.189 -0.1300  0.1502 -0.0381
 2627W        W19474   3.858  19.106   2.915 -0.2802 -0.0941 -0.0939
 2628W        W19475   1.300  19.353  13.601  0.3273 -0.0306  0.1837
 2629W        W19476  14.592  17.414  11.886 -0.0872 -0.1177 -0.1647
 2630W        W19477   6.041   0.100  11.204  0.3043  0.1281 -0.1057
 2631W        W19478   5.036   3.821  12.426 -0.1581  0.4888  0.0326
 2632W        W19479   0.160   3.180  11.775 -0.2116  0.0340  0.2241
 2633W        W19480   4.924   4.188  13.553  0.2226  0.1050  0.2107
 2634W        W19481  11.747   4.334   3.519 -0.0251 -0.1281  0.4202
 2635W        W19482  12.902  19.493  10.964  0.3234  0.1317  0.1846
 2636W        W19483  14.481   6.123  10.367 -0.1041 -0.0024  0.0753
 2637W        W19484  13.815   0.857   3.496 -0.0422 -0.0044  0.0081
 2638W        W19485  15.143  13.222   1.190 -0.2022 -0.1500  0.0598
 2639W        W19486   3.602  15.716  14.025  0.2313 -0.2804 -0.2136
 2640W        W19487  13.101  17.041   2.366  0.0058  0.1016  0.0198
 2641W        W19488  13.604  11.256  12.586  0.2829 -0.2203  0.1676
 2642W        W19489   0.584   7.802   0.456 -0.2222  0.0699  0.0591
 2643W        W19490  14.585   8.166   3.372 -0.0599 -0.1550  0.3144
 2644W        W19491   1.300  15.260  11.124  0.0773 -0.0679  0.4044
 2645W        W19492  12.808  17.195  11.727 -0.3555 -0.2434  0.0696
 2646W        W19493  10.625   3.506   3.250  0.0047  0.0673 -0.0843
 2647W        W19494   7.145  12.964   3.626 -0.1514 -0.0631  0.1658
 2648W        W19495   3.788   9.085   2.632  0.2332 -0.1451  0.0088
 2649W        W19496  15.358  11.725   0.869  0.0758  0.0417 -0.3063
 2650W        W19497  15.342   2.540  12.437 -0.1012 -0.1790  0.0580
 2651W        W19498   5.609   9.878   0.060  0.1261 -0.3554  0.3502
 2652W        W19499   4.686   3.704  11.021  0.2245  0.1276  0.0780
 2653W        W19500  13.842  19.343   0.124 -0.0479  0.0279 -0.3190
 2654W        W19501   4.404  17.986   4.380 -0.0842  0.1911 -0.2080
 2655W        W19502  13.319  15.203   1.023 -0.3622 -0.0084 -0.2033
 2656W        W19503   0.244   9.487   2.462 -0.3416  0.0282  0.1001
 2657W        W19504   5.377   4.457   4.206  0.0757  0.0433 -0.0106
 2658W        W19505   8.531   1.456  11.470  0.2074 -0.1647 -0.0247
 2659W        W19506  10.322  16.667  11.801 -0.4021 -0.0203  0.0002
 2660W        W19507  13.895   6.410   0.533  0.3968  0.2752  0.4065
 2661W        W19508  19.257   0.448  10.852 -0.0863 -0.1284 -0.0523
 2662W        W19509  10.756   5.147  13.638 -0.4790  0.0556 -0.0344
 2663W        W19510  12.710  16.778  12.605 -0.2101  0.2880 -0.1565
 2664W        W19511  10.859  17.918  12.050 -0.1204  0.2756 -0.0209
 2665W        W19512   6.706  14.057  11.640 -0.1419  0.0630 -0.0157
 2666W        W19513  15.910  12.995   9.840  0.2197 -0.1377 -0.0010
 2667W        W19514   0.070   2.907   1.683  0.4287 -0.1726  0.2895
 2668W        W19515  16.266   9.564   4.787 -0.2218  0.0922  0.0877
 2669W        W19516  10.657  18.136   4.109  0.2655  0.1310  0.0802
 2670W        W19517  14.849   8.749   3.999 -0.0521  0.1251 -0.3117
 2671W        W19518  13.389  14.236  10.630  0.0726 -0.4598  0.0520
 2672W        W19519   4.688   8.948   5.755 -0.1396  0.0086 -0.4638
 2673W        W19520   5.290  11.424   4.127  0.1511  0.0683 -0.0240
 2674W        W19521   6.718   7.165  10.594  0.1283 -0.3460  0.1458
 2675W        W19522   8.232   5.996   4.250  0.4104 -0.1005  0.1150
 2676W        W19523   3.083  17.871  12.967  0.1016  0.0339 -0.2663
 2677W        W19524   1.587  10.226   2.360 -0.2935 -0.1111  0.0623
 2678W        W19525   2.306  10.826   3.383 -0.1721 -0.1448 -0.0638
 2679W        W19526  16.311  10.202   9.968 -0.0271  0.1722 -0.1845
 2680W        W19527  13.384   8.957   4.759  0.0336 -0.0281 -0.1062
 2681W        W19528  13.790  10.290   0.240  0.4115  0.3241  0.0345
 2682W        W19529   3.117   4.004   2.077 -0.0216 -0.1260 -0.1948
 2683W        W19530   5.333  13.507   1.354 -0.0193  0.1419 -0.0685
 2684W        W19531   1.604   1.476  11.727  0.0664 -0.0447 -0.2256
 2685W        W19532   3.559   9.544   4.065  0.0022  0.0709 -0.1856
 2686W        W19533   7.044  15.284   1.354  0.0604  0.0616 -0.1671
 2687W        W19534   9.227   8.352   3.497 -0.1881  0.3222  0.3169
 2688W        W19535   8.474  11.208  14.036 -0.0692  0.2135  0.0451
 2689W        W19536   0.855   2.606   5.375 -0.0924 -0.2141  0.0478
 2690W        W19537   7.334  16.850  13.715 -0.0284  0.3203  0.3828
 2691W        W19538   5.425  14.984  11.620 -0.4166  0.5421 -0.1304
 2692W        W19539   5.145  17.356   4.619 -0.2485 -0.1804 -0.1493
 2693W        W19540   8.281   8.881  10.094  0.2064 -0.2305  0.0629
 2694W        W19541  14.645   5.301  13.621 -0.2717  0.2142 -0.0808
 2695W        W19542  11.164  17.464  12.367 -0.0843 -0.3125  0.1565
 2696W        W19543   9.954   8.776   0.640  0.1710 -0.0031  0.0088
 2697W        W19544   0.163   3.176   0.507 -0.2269 -0.1260 -0.0142
 2698W        W19545   6.804  16.600  13.860  0.0877  0.2101 -0.0922
 2699W        W19546   2.588   6.497   4.958 -0.1444  0.0404  0.0169
 2700W        W19547  14.945   6.984  13.492 -0.0272  0.2519 -0.1743
 2701W        W19548   4.613  18.109   3.941  0.1996  0.1363  0.0929
 2702W        W19549   0.747   9.353  12.730 -0.5187 -0.1586 -0.2959
 2703W        W19550   1.608   4.009   1.452 -0.2494 -0.0916 -0.0545
 2704W        W19551   2.383   0.960  13.907  0.1450  0.1257 -0.2088
 2705W        W19552  16.535   0.403  10.393  0.0775  0.2134  0.1335
 2706W        W19553  15.552  13.033  11.854  0.1811  0.0110  0.1778
 2707W        W19554  18.030   5.903  11.621  0.0713 -0.0372 -0.5934
 2708W        W19555   5.937   2.754  12.680 -0.2726 -0.0063  0.2348
 2709W        W19556  17.452   1.160   3.110  0.2458  0.1411  0.0441
 2710W        W19557   3.359   7.100  12.292  0.1780  0.2042  0.1233
 2711W        W19558  14.252   0.574  13.709  0.1015 -0.1494 -0.1196
 2712W        W19559   4.513   1.344   4.813 -0.2948  0.0487 -0.0944
 2713W        W19560   2.169  19.544   3.679 -0.0004  0.0595  0.1852
 2714W        W19561   8.635   5.040   4.688 -0.0765  0.1305 -0.0613
 2715W        W19562  17.386   9.853  13.850 -0.0042  0.0366  0.1326
 2716W        W19563   6.723  12.455   0.640 -0.0722  0.3292 -0.0043
 2717W        W19564   8.610   7.378   1.495 -0.3265 -0.2610  0.4319
 2718W        W19565  12.392  10.794   0.264  0.0783 -0.0098  0.1565
 2719W        W19566   5.110  14.385   1.378  0.1564  0.1307 -0.1636
 2720W        W19567   6.071  15.444   3.986 -0.0296  0.1070 -0.1937
 2721W        W19568   4.007   7.571  10.334 -0.0257  0.0423 -0.1644
 2722W        W19569   2.938  19.413   1.558  0.0069  0.2094  0.1233
 2723W        W19570  16.664   6.777   0.348  0.3222  0.0729 -0.0647
 2724W        W19571   8.334  15.595   5.065  0.0143  0.0964  0.0943
 2725W        W19572  19.009  15.140   9.497  0.0493 -0.1120  0.0301
 2726W        W19573  17.765   2.823   4.276  0.3514 -0.0032 -0.1660
 2727W        W19574  14.700   4.145   0.489  0.1075 -0.1655  0.0322
 2728W        W19575   3.799  12.065   0.392 -0.0674  0.2840  0.1579
 2729W        W19576  19.626  10.912   0.865 -0.6189  0.2617  0.0683
 2730W        W19577   5.045   8.818   4.751  0.0752 -0.0809 -0.0549
 2731W        W19578  10.269  16.798   3.860  0.2099  0.1962 -0.0563
 2732W        W19579  10.496   1.072   2.847 -0.2162  0.1556  0.2943
 2733W        W19580  13.655  16.611  11.562  0.2727 -0.0586  0.4332
 2734W        W19581  18.978  10.934  11.502 -0.0254 -0.1735 -0.2344
 2735W        W19582   6.005  17.794  13.884 -0.3363  0.2408 -0.0795
 2736W        W19583  16.862  16.070   0.519 -0.2388 -0.3047  0.1312
 2737W        W19584   0.533   6.143  12.854  0.3786  0.2033 -0.0087
 2738W        W19585   9.244   0.995   2.525  0.3383  0.1643 -0.0943
 2739W        W19586  18.374  13.300   3.218 -0.1992  0.0457  0.0317
 2740W        W19587  18.719  10.639  11.209 -0.1635 -0.0227 -0.0275
 2741W        W19588  17.647   3.875   1.056 -0.1220 -0.1128  0.1458
 2742W        W19589  12.525   9.519   3.224 -0.1276 -0.0762 -0.0835
 2743W        W19590  12.369   9.598   2.303 -0.0786  0.1843 -0.2541
 2744W        W19591   9.125  11.253   4.758  0.1100 -0.0899  0.1033
 2745W        W19592  16.089  12.977  13.657  0.4911 -0.1356  0.1625
 2746W        W19593   6.734  16.636   2.296  0.3221 -0.0945  0.0489
 2747W        W19594   1.727   7.174   3.451 -0.0953 -0.1582 -0.0645
 2748W        W19595   2.239  17.741   3.277 -0.2630 -0.1353 -0.0016
 2749W        W19596   6.188  16.314  14.323  0.0961  0.0957 -0.0715
 2750W        W19597  13.563   5.962   0.633  0.1588 -0.0671 -0.0522
 2751W        W19598  16.957   4.785   9.646 -0.1189  0.3300 -0.3904
 2752W        W19599   6.691  11.886  10.707  0.2153  0.2514 -0.0940
 2753W        W19600   4.908  13.138  11.209 -0.1006 -0.1606  0.1179
 2754W        W19601   4.287  18.885   2.805  0.2337  0.0849  0.0074
 2755W        W19602   6.116   9.736   0.100  0.0052  0.2539 -0.3137
 2756W        W19603  13.998   5.248   1.375 -0.2935  0.3227 -0.4426
 2757W        W19604   4.683  14.312  10.744 -0.0475  0.0186  0.2915
 2758W        W19605  16.850   2.744  13.152  0.1232 -0.2383 -0.1946
 2759W        W19606   6.251  13.904   1.720 -0.1244  0.3041  0.2274
 2760W        W19607  12.028  19.714  10.779  0.2722 -0.0686  0.2362
 2761W        W19608  12.691  17.550  12.883 -0.1855 -0.1029 -0.1898
 2762W        W19609   4.344  16.593   5.350 -0.2517 -0.3584 -0.0652
 2763W        W19610   6.323   7.608  10.982 -0.0283 -0.1039 -0.3775
 2764W        W19611  15.714   5.443  12.953 -0.2053 -0.0649  0.1745
 2765W        W19612   4.796  16.778   5.323 -0.2822 -0.2687  0.3142
 2766W        W19613  13.425  16.035   1.196  0.0544  0.2395  0.3065
 2767W        W19614   1.546  11.388  12.828  0.2284 -0.2748 -0.0058
 2768W        W19615  16.106   1.414   1.531 -0.0132 -0.0393 -0.0314
 2769W        W19616  18.950  19.462   4.224  0.3216 -0.1435  0.1768
 2770W        W19617  16.271  18.768   0.764  0.1238 -0.1024 -0.0598
 2771W        W19618   4.009  19.619   2.855 -0.0064 -0.0223  0.1578
 2772W        W19619   7.780   3.212   2.516  0.1426  0.1381 -0.2512
 2773W        W19620   9.602   2.201   3.383 -0.1168 -0.3327 -0.2381
 2774W        W19621  11.110   2.683  12.470 -0.0805  0.2813  0.0055
 2775W        W19622  16.703   1.610   3.335  0.1331 -0.3932  0.2225
 2776W        W19623   4.125   2.529   4.592  0.4485 -0.1142  0.1078
 2777W        W19624   4.805   7.989  13.599  0.1426  0.2285  0.0147
 2778W        W19625  14.189   7.756  13.686 -0.0857  0.1190 -0.0265
 2779W        W19626  15.920  17.270  10.131  0.3077 -0.2807 -0.0655
 2780W        W19627  13.110   6.908  12.497  0.0004 -0.0030 -0.1541
 2781W        W19628   1.044  15.449   3.665 -0.1964  0.0326 -0.3924
 2782W        W19629  13.354  10.046  12.486 -0.0247 -0.1505 -0.3817
 2783W        W19630   4.650  11.280  11.003 -0.2169  0.2798  0.2053
 2784W        W19631   8.370   9.185   3.790  0.0209  0.0941 -0.0854
 2785W        W19632   6.908  17.332  12.904  0.0402  0.1019 -0.1440
 2786W        W19633  16.520  14.924  12.924  0.1259 -0.0981 -0.0572
 2787W        W19634  19.134   3.417   2.154 -0.0808 -0.0445 -0.3165
 2788W        W19635  15.312  14.067  12.959 -0.2039  0.1099 -0.0137
 2789W        W19636   1.572  13.707  14.310 -0.2909  0.3996 -0.0887
 2790W        W19637   7.869   9.354   3.462  0.1286 -0.1317  0.1990
 2791W        W19638   5.171   4.024  10.406 -0.0701  0.3663  0.3041
 2792W        W19639  13.704  10.681  11.835  0.2857  0.0416 -0.0856
 2793W        W19640  13.611   4.501  10.164  0.1817 -0.0062 -0.1217
 2794W        W19641  17.489  14.726   1.760  0.1281 -0.0835  0.3525
 2795W        W19642  16.576   6.387   4.282 -0.1656  0.1324 -0.2358
 2796W        W19643  17.881   4.596   4.468  0.0403 -0.3382 -0.0507
 2797W        W19644  10.708  16.106   0.400 -0.0715 -0.2505 -0.0885
 2798W        W19645  16.585   2.234  12.782  0.0820 -0.1716  0.2808
 2799W        W19646   9.747  13.577  10.617 -0.3391 -0.1223  0.0322
 2800W        W19647   7.975  14.988  12.693  0.0332 -0.2204 -0.1095
 2801W        W19648   7.834   4.595   4.297 -0.0945  0.0015 -0.1351
 2802W        W19649  13.880  14.829   4.278  0.0292 -0.0162  0.1288
 2803W        W19650  14.486  11.811   9.971 -0.0211  0.3205  0.0458
 2804W        W19651   3.715  14.618   4.171 -0.1417  0.1361  0.1187
 2805W        W19652  17.887   6.489  13.526 -0.0930  0.3245  0.4238
 2806W        W19653   5.987  14.127   9.679  0.2576  0.1583 -0.0947
 2807W        W19654  16.594   4.299   2.187  0.0786 -0.0307  0.1405
 2808W        W19655   0.186  10.270   3.470 -0.0323 -0.2130  0.0695
 2809W        W19656  10.996   9.106   0.150 -0.1159  0.0872 -0.2672
 2810W        W19657  18.211   7.120   2.852  0.5257  0.2334 -0.0298
 2811W        W19658   0.032  17.719   2.855  0.0236 -0.1262 -0.2095
 2812W        W19659   8.016   2.556   2.475 -0.2348 -0.0493  0.1230
 2813W        W19660  18.401   8.423   1.299 -0.0226  0.3592  0.0444
 2814W        W19661  11.651   1.284  10.761  0.3205 -0.4625  0.0439
 2815W        W19662  13.799   0.854  12.722 -0.3715 -0.3337  0.2284
 2816W        W19663  16.375   0.795   2.249  0.1833  0.0654 -0.3992
 2817W        W19664  12.714   5.141   2.222 -0.0184 -0.0374  0.1552
 2818W        W19665   2.591   9.447  13.874  0.1747 -0.2687  0.2069
 2819W        W19666   5.474  10.604   3.346 -0.2441  0.1111  0.0356
 2820W        W19667   1.975  15.393  10.112  0.4209 -0.3138 -0.0565
 2821W        W19668  19.001  15.079   9.991 -0.2851 -0.0380 -0.0542
 2822W        W19669   1.859   3.628   1.996  0.0843  0.3547 -0.0522
 2823W        W19670  11.992  13.004  11.852  0.0427  0.0130  0.0505
 2824W        W19671  14.595  18.415   3.544  0.0266 -0.0368 -0.0492
 2825W        W19672  17.546  16.216   0.081  0.0678  0.1723 -0.0936
 2826W        W19673   1.881   8.630   3.275 -0.0473 -0.0441  0.0566
 2827W        W19674   9.661   2.006   2.299 -0.1322 -0.1550 -0.1017
 2828W        W19675  18.338   9.150   3.957  0.0047 -0.1090  0.0004
 2829W        W19676  19.845   6.339   2.554  0.3318  0.1584 -0.1953
 2830W        W19677  11.317  17.894   0.442  0.0063 -0.3872  0.1538
 2831W        W19678  10.517  13.271  11.124 -0.0038 -0.2284 -0.0835
 2832W        W19679  17.620  10.445  10.582  0.3659 -0.0943  0.2430
 2833W        W19680  14.651  14.285   5.505 -0.3361 -0.1035 -0.0731
 2834W        W19681  19.515  11.371   1.208  0.0722 -0.3598 -0.1262
 2835W        W19682   1.332  12.627  14.131  0.0122 -0.1923 -0.2828
 2836W        W19683   7.698   3.633   4.289 -0.1573  0.1369  0.2468
 2837W        W19684  13.188  15.930   1.622  0.1006 -0.0314 -0.1477
 2838W        W19685  19.288   1.802   1.941  0.0369 -0.1631 -0.0080
 2839W        W19686  12.454   7.825  11.147  0.0274 -0.1534  0.0151
 2840W        W19687   8.699  11.604   1.916 -0.0609  0.2066 -0.0786
 2841W        W19688  14.528  15.166   0.803 -0.1402  0.3821 -0.3291
 2842W        W19689   7.615   7.567   0.046 -0.1546 -0.2280 -0.2327
 2843W        W19690   7.272   9.624   0.723 -0.1428  0.0961  0.0682
 2844W        W19691   6.271   7.266   4.611  0.0480  0.0122  0.0386
 2845W        W19692  13.826  12.192  13.055 -0.2332 -0.0901  0.3982
 2846W        W19693  15.701  14.753  14.051 -0.0152 -0.1069 -0.0303
 2847W        W19694   1.388   1.994  12.581  0.1984  0.3342  0.0095
 2848W        W19695   3.993  14.911  10.123 -0.0589  0.1371  0.1605
 2849W        W19696  13.277   1.221  10.398 -0.0488  0.2140 -0.1719
 2850W        W19697   5.197   5.696  12.897  0.0248  0.1005 -0.3923
 2851W        W19698  18.443  10.342  10.924 -0.0960 -0.0463 -0.2767
 2852W        W19699  12.880  12.407  10.531  0.2947  0.1605 -0.1767
 2853W        W19700  12.261  12.930  12.535  0.3126  0.2525 -0.2548
 2854W        W19701  12.048  14.682   2.991 -0.1678 -0.1366  0.0778
 2855W        W19702  11.616   4.478   1.054  0.2868  0.2825  0.0194
 2856W        W19703  16.246   8.090  12.144  0.2388 -0.0268 -0.0727
 2857W        W19704  13.391   5.016  11.082 -0.2809 -0.0185 -0.2703
 2858W        W19705   5.845  11.865   3.126  0.1460  0.2460  0.0805
 2859W        W19706  17.123   4.027   0.142  0.2340 -0.2818  0.2170
 2860W        W19707   7.359  13.602  11.430 -0.0039  0.3862  0.4964
 2861W        W19708   0.120   6.723   0.149 -0.0040  0.2816  0.4609
 2862W        W19709   6.924   2.525   2.259 -0.2018 -0.2231 -0.1337
 2863W        W19710  18.576  14.792   0.302  0.0819 -0.0134  0.1968
 2864W        W19711   1.043   4.522  10.552 -0.0908  0.1171  0.1084
 2865W        W19712  12.423  13.911   4.489 -0.0089 -0.1040 -0.1985
 2866W        W19713  19.311   5.922  10.990  0.2722 -0.4112 -0.0743
 2867W        W19714  14.354   8.861   4.308 -0.1179 -0.0824  0.5923
 2868W        W19715   5.338  10.501  12.550  0.2801  0.1021 -0.2171
 2869W        W19716  18.686  14.865   4.292  0.2011 -0.0687  0.2135
 2870W        W19717  18.377   1.905   0.995  0.1774 -0.1742 -0.1357
 2871W        W19718   3.970  18.868   3.441  0.0687  0.1544  0.0247
 2872W        W19719  12.232  10.699  11.861  0.1498 -0.0871  0.3984
 2873W        W19720   0.976  15.116  12.537 -0.2063 -0.0136  0.1240
 2874W        W19721   7.103   1.329  11.685  0.1091  0.1739  0.1479
 2875W        W19722  12.351  10.001   1.145 -0.1622  0.0482 -0.0644
 2876W        W19723  19.080  10.682  10.584 -0.1962 -0.0906 -0.1817
 2877W        W19724  15.061  15.558   4.529 -0.1935 -0.2188  0.3065
 2878W        W19725  10.403  10.239  10.088  0.2017 -0.0813  0.1322
 2879W        W19726  19.418  19.092   0.046  0.0510  0.0169  0.3175
 2880W        W19727   0.751   2.941   3.907 -0.1099  0.1056 -0.1231
 2881W        W19728   5.157  18.045  14.194 -0.0936  0.2233  0.0360
 2882W        W19729  17.893   7.191  10.734 -0.1327  0.1011 -0.1123
 2883W        W19730  12.273   2.404   0.707  0.0905  0.4779  0.2074
 2884W        W19731  16.151  14.915  13.786  0.0701 -0.1672  0.1526
 2885W        W19732   2.291   1.405  10.214  0.0155 -0.1282 -0.1872
 2886W        W19733   2.682   1.244   4.105 -0.2514 -0.0037 -0.1404
 2887W        W19734  10.291  12.438   4.740 -0.7181  0.0496 -0.1377
 2888W        W19735   3.449   1.176  12.468 -0.0435  0.0996  0.1563
 2889W        W19736   0.885   5.215   4.311  0.0943 -0.2313  0.0799
 2890W        W19737   6.513   1.493  10.703 -0.1275  0.1334 -0.2444
 2891W        W19738   6.943   5.942   1.571  0.0978  0.0020  0.1559
 2892W        W19739   8.058  16.594  13.210  0.1936 -0.4833  0.1762
 2893W        W19740   2.845  15.983   9.855 -0.0861 -0.3623 -0.1400
 2894W        W19741   1.707   2.802   3.797  0.0855 -0.2891 -0.2033
 2895W        W19742   1.747  19.555  13.868 -0.2147  0.0425 -0.1473
 2896W        W19743  18.540   7.937   4.588 -0.3080 -0.1167  0.2111
 2897W        W19744  14.342  11.557  11.948  0.0387 -0.0748 -0.1915
 2898W        W19745  12.566  13.026  10.255  0.1123  0.0164  0.1912
 2899W        W19746   4.706  14.648   0.963  0.1158  0.2427  0.3452
 2900W        W19747  18.089   4.753   2.509  0.1238  0.0588 -0.1352
 2901W        W19748   7.868   9.946   2.124 -0.2092  0.2312  0.0934
 2902W        W19749  13.968   2.954   3.904  0.0230 -0.0542  0.2248
 2903W        W19750  14.785   6.411   3.234 -0.0631 -0.1892  0.5385
 2904W        W19751   7.025   5.578  12.889  0.1119 -0.0925  0.1303
 2905W        W19752  10.285  18.092  11.471 -0.1222  0.0237  0.3449
 2906W        W19753   5.716  16.193   3.478 -0.0081  0.2318 -0.2323
 2907W        W19754  11.981   2.561   0.254  0.2795  0.0902  0.0570
 2908W        W19755  13.869  14.251   4.793 -0.0464 -0.0356  0.2162
 2909W        W19756  16.446   6.960   9.518  0.1859 -0.0945  0.0655
 2910W        W19757  13.616  10.989   2.729  0.0669 -0.0475 -0.0720
 2911W        W19758  16.000   2.829   1.476  0.0368  0.1522  0.1906
 2912W        W19759   1.759  14.680   1.921  0.2380 -0.2401 -0.3384
 2913W        W19760  15.465   4.798   1.491 -0.0858  0.3039  0.0473
 2914W        W19761   8.222   9.376   2.042  0.4022  0.3430  0.0006
 2915W        W19762   5.196  10.254   3.141 -0.0179 -0.2281 -0.7423
 2916W        W19763  10.020  15.933   0.980 -0.0641  0.0596  0.0055
 2917W        W19764   9.330   9.381   1.504  0.1416 -0.0086 -0.1505
 2918W        W19765  13.746   5.873   2.219 -0.1814  0.2193 -0.1553
 2919W        W19766   3.192   9.295  12.906 -0.0266  0.0368 -0.1437
 2920W        W19767   1.670   9.480   2.002  0.3435 -0.0965 -0.3083
 2921W        W19768  17.025   7.737   0.454  0.0178  0.1734 -0.0262
 2922W        W19769  11.120   8.745   1.053  0.1107 -0.0471  0.2356
 2923W        W19770   7.482   7.094  11.846  0.2861  0.2101  0.0739
 2924W        W19771  10.453   1.240  14.325 -0.1963 -0.1039  0.0083
 2925W        W19772   9.829  13.749   4.422 -0.1862  0.1246  0.2827
 2926W        W19773   8.269  17.092   4.239 -0.1185 -0.0272 -0.0371
 2927W        W19774   7.248  15.778   2.634  0.1530  0.2087  0.2170
 2928W        W19775  13.749  19.438   4.401 -0.0394  0.0195 -0.2832
 2929W        W19776   7.940  14.019  12.120  0.0842 -0.0920  0.1248
 2930W        W19777   2.876  13.193  10.330 -0.0544  0.0645 -0.1721
 2931W        W19778  15.987   9.382  13.557 -0.3267  0.0876  0.3413
 2932W        W19779  16.122  19.740   4.534  0.0500 -0.0730  0.0161
 2933W        W19780  14.150   7.887  10.811  0.0586  0.0485  0.0753
 2934W        W19781   8.845  17.900   4.896 -0.0601 -0.2856 -0.0160
 2935W        W19782   3.936   7.301   4.424  0.0004 -0.0755  0.0607
 2936W        W19783  17.617   2.925  10.523 -0.2951  0.1844 -0.1496
 2937W        W19784  15.037  16.550   4.753 -0.0805 -0.0746 -0.5697
 2938W        W19785   3.286   3.561  13.885 -0.0469 -0.0059  0.0472
 2939W        W19786   5.897  15.966  12.541 -0.1776  0.0677 -0.0095
 2940W        W19787  11.232  13.022  13.148  0.1922 -0.1431 -0.0147
 2941W        W19788  14.882   4.029  13.840 -0.0725  0.1494 -0.1090
 2942W        W19789  14.513   5.585   3.829  0.1140 -0.1894  0.0831
 2943W        W19790  15.548  12.528  11.980 -0.0578 -0.1185  0.2004
 2944W        W19791  11.839  18.303  11.906 -0.1849 -0.0836  0.1795
 2945W        W19792   9.963  13.932   3.220 -0.0380  0.2475 -0.0612
 2946W        W19793  14.829  10.207   1.888 -0.0462  0.4177  0.2345
 2947W        W19794  12.236   7.437   0.641 -0.1005  0.0343 -0.1329
 2948W        W19795  11.698  19.737   3.027 -0.1691  0.0562 -0.2143
 2949W        W19796  15.575   4.644   3.332 -0.1079  0.0151  0.2274
 2950W        W19797   3.215   1.174   4.290 -0.2783 -0.2264 -0.1476
 2951W        W19798   9.552  16.733   1.394 -0.0328 -0.0844 -0.0577
 2952W        W19799   8.462   6.634   0.926 -0.2109  0.3064 -0.0555
 2953W        W19800   1.162  16.156   1.438  0.0248 -0.1124  0.1160
 2954W        W19801   6.882  14.416  13.713  0.1016  0.2469  0.0568
 2955W        W19802  19.836   3.686   1.964 -0.1214  0.0311  0.3276
 2956W        W19803   4.658   6.840   2.469  0.1500  0.0413 -0.0684
 2957W        W19804   0.985   9.669  11.034  0.3604  0.1115  0.2395
 2958W        W19805  11.635   0.602   4.807  0.0018 -0.0584  0.3018
 2959W        W19806  17.448   3.264  13.178  0.1883 -0.2376 -0.4551
 2960W        W19807   9.484   5.358   3.349  0.1604 -0.0098 -0.1185
 2961W        W19808  16.663  15.350   0.899  0.3041  0.2996  0.2600
 2962W        W19809  14.687   5.318  12.579  0.0914  0.2072 -0.1582
 2963W        W19810   9.871   8.728  11.105  0.1556 -0.0598  0.0951
 2964W        W19811  19.438   3.342  11.074  0.3019  0.2894  0.0443
 2965W        W19812   7.450   7.400  13.896  0.1816 -0.0614 -0.1278
 2966W        W19813  19.090  13.018   4.554  0.0302  0.0534  0.2476
 2967W        W19814  14.643   9.289   4.101  0.0509 -0.2124  0.1012
 2968W        W19815  15.033   8.295   1.233  0.1569 -0.1925  0.1733
 2969W        W19816   5.216  17.536   0.035  0.0900  0.2107 -0.1467
 2970W        W19817   3.962   0.369   2.044  0.4006 -0.2540 -0.0574
 2971W        W19818  19.383   0.143   9.854 -0.0170 -0.2057 -0.1327
 2972W        W19819   4.367  15.895  11.867 -0.0474 -0.1752 -0.0962
 2973W        W19820  15.857   3.534   2.212 -0.0152 -0.2091  0.0415
 2974W        W19821  14.587  14.332   3.444  0.2603 -0.0134  0.0701
 2975W        W19822  13.055  13.550   0.688 -0.0422  0.1191 -0.1519
 2976W        W19823  12.070   5.375   4.230  0.0266 -0.0313 -0.0866
 2977W        W19824  19.781  14.071  14.173  0.0567  0.3051  0.2206
 2978W        W19825  11.639   1.624   0.962 -0.1701 -0.0312  0.1302
 2979W        W19826   7.583  16.002   4.738 -0.1514 -0.2231  0.3187
 2980W        W19827   0.789   1.449   4.116 -0.0863 -0.0368 -0.0431
 2981W        W19828   9.007  16.715  11.044  0.1508 -0.1105  0.0674
 2982W        W19829  18.752   1.072  10.460  0.2329 -0.0977 -0.2568
 2983W        W19830  13.833  13.968  14.013  0.2348  0.2736  0.1373
 2984W        W19831  17.415   0.701   5.305 -0.0595 -0.0003 -0.0104
 2985W        W19832  16.107  18.881   4.596 -0.0830 -0.1601  0.0517
 2986W        W19833   1.001   2.872   4.381  0.1749 -0.0271 -0.3643
 2987W        W19834  15.918  11.822  10.540 -0.0083 -0.0762 -0.3116
 2988W        W19835   4.432  10.732   5.872  0.0125  0.1584 -0.0915
 2989W        W19836  11.021  11.367   0.740  0.0947 -0.0889 -0.4593
 2990W        W19837   9.036   6.375  14.245  0.2940 -0.0653  0.1837
 2991W        W19838   9.808   8.793   2.549  0.4898  0.2449 -0.0059
 2992W        W19839   2.726  18.551   1.346 -0.3484 -0.1917 -0.1415
 2993W        W19840   4.980  11.087   1.230  0.0247  0.0857 -0.3841
 2994W        W19841   8.281   1.797   1.825 -0.0697  0.0846  0.0760
 2995W        W19842   9.383   3.651  12.373 -0.0381 -0.0643  0.1258
 2996W        W19843  15.928   6.654  14.218  0.0645  0.1529  0.0477
 2997W        W19844   4.922   1.655  12.471  0.1436  0.0899  0.3127
 2998W        W19845   8.610  15.342   3.542 -0.0393 -0.0653 -0.0262
 2999W        W19846  11.689  14.372  13.468  0.0484 -0.0932  0.2293
 3000W        W19847  11.479  19.322   2.087 -0.0844  0.1352 -0.1672
 3001W        W19848  19.835   3.245   3.171  0.3630  0.1497  0.5635
 3002W        W19849   5.701   0.264  10.834 -0.1016 -0.1554  0.0660
 3003W        W19850   0.748  18.853   1.271  0.1103  0.0440  0.2863
 3004W        W19851  11.354  17.099  10.405  0.0595  0.0587 -0.1266
 3005W        W19852  16.074   8.579   3.410 -0.0150 -0.0788  0.1960
 3006W        W19853   8.264  17.710  11.157 -0.0239  0.0780  0.1133
 3007W        W19854   9.715   0.915   0.471 -0.1913  0.1509 -0.1479
 3008W        W19855  11.189   6.762  13.448 -0.3310  0.0361  0.1925
 3009W        W19856   9.114  11.361   2.039 -0.0139  0.1055 -0.0599
 3010W        W19857  19.455   0.118  10.383 -0.1090  0.0890  0.5135
 3011W        W19858  13.524  15.128   4.029 -0.0771  0.2269  0.1173
 3012W        W19859   4.236  16.553  13.406 -0.1626  0.1174 -0.0171
 3013W        W19860  16.448  10.254  11.590  0.1373 -0.1713 -0.1661
 3014W        W19861  11.362  17.700  11.197  0.0422 -0.3301 -0.4360
 3015W        W19862   7.797  13.674   5.312  0.1522 -0.1372 -0.1436
 3016W        W19863  14.076  15.619  12.866  0.4058  0.2931 -0.4520
 3017W        W19864   2.438  19.807   9.779  0.0944  0.0558  0.0355
 3018W        W19865  19.379   5.493   1.373 -0.0994  0.2142 -0.0700
 3019W        W19866  17.349  15.677   2.536 -0.0298  0.0027  0.1799
 3020W        W19867  14.943   2.669   1.864 -0.0264  0.0474  0.0846
 3021W        W19868  17.060  11.140   1.204 -0.2426  0.0289 -0.1169
 3022W        W19869   4.727   3.290   2.264 -0.0421  0.0213  0.3009
 3023W        W19870   0.819  17.053   9.995 -0.0583 -0.3675 -0.0015
 3024W        W19871  14.981  15.124   1.713  0.1557 -0.1811  0.1608
 3025W        W19872   2.963  13.363  12.034 -0.1324  0.3287 -0.0264
 3026W        W19873  11.184  19.553  13.662 -0.1402 -0.0855  0.1704
 3027W        W19874  18.290  18.053   3.635  0.0335 -0.1985 -0.1454
 3028W        W19875   1.717  11.326  10.795 -0.0438  0.1793 -0.3674
 3029W        W19876   5.872   6.302  14.042 -0.4959  0.2105 -0.0234
 3030W        W19877  14.946   3.694   0.641 -0.0974 -0.1749  0.0605
 3031W        W19878  17.350   0.538  12.016  0.0672 -0.1668  0.1393
 3032W        W19879   8.093   1.474  12.381 -0.0551  0.1059  0.1169
 3033W        W19880   6.358  14.056   1.113  0.2768 -0.1498  0.0422
 3034W        W19881   3.958   9.673   4.392  0.0714 -0.0153  0.0667
 3035W        W19882  17.756  14.873   4.722  0.3482 -0.1843 -0.0658
 3036W        W19883  14.875   5.710  13.542 -0.1446  0.1104 -0.2090
 3037W        W19884  17.574  11.699  10.977  0.1753 -0.1021  0.0041
 3038W        W19885  13.656   7.620  11.301  0.1141 -0.0904 -0.0152
 3039W        W19886   2.800   3.641  10.888 -0.4005 -0.0403  0.0247
 3040W        W19887   8.473   9.055   2.400 -0.1481 -0.0114 -0.2453
 3041W        W19888  14.857   4.878  12.350  0.0533  0.2281 -0.2094
 3042W        W19889  13.920  15.287   2.229  0.2082  0.1285  0.0389
 3043W        W19890  10.509  13.936   3.577  0.2234 -0.0551  0.0863
 3044W        W19891  19.610  19.678   2.795 -0.0660 -0.1303  0.1047
 3045W        W19892   8.730   6.785  14.324  0.0972  0.1089  0.2381
 3046W        W19893  15.238   2.459  13.606 -0.0541  0.2217  0.0677
 3047W        W19894   9.176   0.848  13.862  0.1959  0.0154  0.0883
 3048W        W19895   7.726   6.106   3.328  0.0149 -0.0156  0.1981
 3049W        W19896  13.070  12.459   2.715 -0.1176  0.1291  0.1602
 3050W        W19897  17.915   9.746   4.851  0.1019 -0.0933  0.1294
 3051W        W19898   4.359  19.783   0.755 -0.1782 -0.1821 -0.1392
 3052W        W19899   8.069   6.097  10.482  0.3592 -0.0020  0.0062
 3053W        W19900   7.995  11.824   4.448  0.0886 -0.2147 -0.1395
 3054W        W19901   8.963   6.786  11.255  0.0789 -0.3055  0.1299
 3055W        W19902  17.350   2.342  10.426 -0.0384  0.0833 -0.1165
 3056W        W19903  10.320  17.433  13.188 -0.1979 -0.0210  0.1509
 3057W        W19904  10.231   0.720   2.584  0.1079 -0.0583  0.0637
 3058W        W19905   1.972   5.249   2.745  0.2151 -0.1755 -0.1075
 3059W        W19906   2.399   5.796  10.406 -0.1917 -0.1606  0.2930
 3060W        W19907  15.116   7.137   9.885  0.1519  0.2482 -0.0643
 3061W        W19908   3.596   1.849  13.421  0.2243 -0.1681  0.1727
 3062W        W19909   7.515  13.186   2.223 -0.0942 -0.0782 -0.1769
 3063W        W19910  17.299  16.096   4.293  0.1161  0.1634  0.0982
 3064W        W19911  18.453  19.160  13.602 -0.0093 -0.0873 -0.0156
 3065W        W19912   5.699   2.708   0.338  0.1568  0.4257  0.2093
 3066W        W19913   3.597  15.393   9.795 -0.2297 -0.1535  0.0142
 3067W        W19914  13.594   9.071   0.862  0.2191  0.0282 -0.0275
 3068W        W19915  19.140  14.304   1.266  0.0992 -0.2527  0.0046
 3069W        W19916   1.332   9.867   0.141 -0.0687 -0.1599  0.1832
 3070W        W19917   4.747  15.772  11.418 -0.4825  0.2490 -0.2760
 3071W        W19918  18.855   7.585  10.735  0.0286  0.1604 -0.0127
 3072W        W19919   2.922  10.826  11.331 -0.0393 -0.1834 -0.2098
 3073W        W19920  16.386  10.154  11.093 -0.2398 -0.3230 -0.1168
 3074W        W19921  12.829  14.857  11.060  0.0646 -0.1182  0.1967
 3075W        W19922  10.114   0.911   3.612 -0.0127  0.0650  0.2627
 3076W        W19923   2.694   4.779  10.979  0.1251  0.2308  0.1087
 3077W        W19924  19.215  17.084   9.405 -0.3064  0.3015  0.0281
 3078W        W19925  14.506  17.675  14.181 -0.0496 -0.3659  0.0970
 3079W        W19926  19.807   6.884  13.269  0.0264 -0.1205  0.4012
 3080W        W19927  11.316  19.755   1.006  0.2108  0.4895 -0.3453
 3081W        W19928  12.769   6.002   4.170  0.0004  0.0164 -0.1107
 3082W        W19929   7.315  17.636  10.801  0.1470 -0.0033 -0.0097
 3083W        W19930  14.801   9.497  11.350 -0.0744  0.0609  0.2393
 3084W        W19931  10.516  19.703   3.735  0.0280  0.0295 -0.1241
 3085W        W19932  16.078  13.205   3.337 -0.0657 -0.2420  0.0627
 3086W        W19933  17.545   7.958  13.912 -0.1154 -0.1794 -0.0487
 3087W        W19934  16.760  10.347  10.280  0.0188 -0.2710 -0.0885
 3088W        W19935  18.266   1.168  12.915  0.2451  0.2238 -0.0285
 3089W        W19936   8.451  14.589   1.405  0.1725 -0.0972  0.1511
 3090W        W19937   5.822   4.362   8.895  0.0286  0.2258 -0.3680
 3091W        W19938  15.877   7.327   0.730  0.1413 -0.2086 -0.0382
 3092W        W19939   0.571   7.940   3.347  0.0422 -0.1139 -0.1902
 3093W        W19940   0.711   3.504  11.461  0.0682  0.1664 -0.1755
 3094W        W19941  18.197  10.438  10.223 -0.2818  0.3657  0.1331
 3095W        W19942   5.483  11.722  13.110 -0.0903 -0.0989 -0.3677
 3096W        W19943  10.527   1.703  10.572 -0.2100 -0.0008  0.0373
 3097W        W19944  12.967  18.735   2.289  0.4342  0.1585 -0.1212
 3098W        W19945   9.267  11.038  13.523  0.0951  0.1272  0.3304
 3099W        W19946   4.664  18.808   1.344  0.1408 -0.0333  0.2022
 3100W        W19947  10.438  12.944  13.127 -0.3075 -0.2441 -0.0974
 3101W        W19948  18.045  12.457  13.369 -0.5152 -0.0928 -0.0583
 3102W        W19949   3.947  10.560   4.017 -0.0083 -0.0394 -0.1249
 3103W        W19950   0.107   6.703  11.862 -0.0562  0.2983  0.0427
 3104W        W19951  13.770  15.058  13.629 -0.1872  0.0324 -0.0831
 3105W        W19952   2.459  18.207  11.827 -0.2560 -0.0791  0.0143
 3106W        W19953   9.647  17.428  10.719 -0.2297 -0.0503  0.1819
 3107W        W19954   4.430   6.542   0.549  0.0921 -0.1695  0.0659
 3108W        W19955  18.083  14.450  11.726 -0.0082  0.0075 -0.1014
 3109W        W19956  11.688   0.610  11.396  0.0093  0.1657 -0.2274
 3110W        W19957  10.257  15.714  13.844  0.2103 -0.0020 -0.0781
 3111W        W19958  13.509   1.598   2.937  0.4021  0.1686  0.3509
 3112W        W19959  17.456   9.041   1.053 -0.2140  0.1994 -0.0078
 3113W        W19960   1.789  13.823   4.259 -0.1606  0.1944 -0.2030
 3114W        W19961  12.932   2.039  11.991 -0.0883  0.2834 -0.3806
 3115W        W19962  10.963  16.004   1.209 -0.0695 -0.1666  0.0903
 3116W        W19963   5.123  17.235   1.595 -0.3152  0.1485 -0.0447
 3117W        W19964   6.662  16.964   0.801  0.1456 -0.2897  0.0857
 3118W        W19965   0.010  16.305  13.179  0.2340  0.2896  0.1110
 3119W        W19966  15.237   6.718   3.325 -0.2001 -0.0033 -0.0376
 3120W        W19967   0.337   7.587   4.174  0.0157  0.0938 -0.1388
 3121W        W19968   5.589  13.521  10.111 -0.1918  0.1504  0.1155
 3122W        W19969  11.649  19.594  11.872  0.4647  0.0365 -0.1831
 3123W        W19970   6.376   1.745  14.222 -0.1938  0.1256 -0.1343
 3124W        W19971  10.209  11.094   3.543 -0.4899 -0.0172  0.2985
 3125W        W19972   0.556   4.852   3.735  0.0823  0.0220 -0.1365
 3126W        W19973   1.141   4.252   0.415 -0.0706 -0.1856 -0.0171
 3127W        W19974  14.669  16.233   3.069  0.2935 -0.0515 -0.0233
 3128W        W19975   9.833  13.087   4.427  0.2685 -0.2873  0.0935
 3129W        W19976   2.410   1.852  11.510  0.0415  0.1444  0.2362
 3130W        W19977  11.675  18.628   2.653  0.0123  0.0977 -0.1505
 3131W        W19978   4.348   1.896   1.380  0.3643 -0.1298  0.2016
 3132W        W19979  10.332  18.181  12.010 -0.1862 -0.1527 -0.2858
 3133W        W19980   3.873   4.257  10.163 -0.0013 -0.0262  0.0429
 3134W        W19981  19.711  13.608  12.147  0.2397  0.4408 -0.0353
 3135W        W19982   7.201   5.974   2.802  0.1046  0.2285 -0.1802
 3136W        W19983  13.461   7.145   4.897  0.1530 -0.0442  0.0408
 3137W        W19984  16.974  13.159  13.481 -0.0451 -0.2161 -0.2929
 3138W        W19985   6.954   1.972  12.652 -0.1576 -0.1841 -0.2189
 3139W        W19986  11.736  12.529   1.860  0.2037 -0.0110  0.0777
 3140W        W19987  13.594   9.662  12.097  0.2621 -0.0867 -0.6865
 3141W        W19988   8.454   6.125  12.393 -0.0664 -0.0157 -0.1469
 3142W        W19989  10.525   5.670   2.100  0.0189 -0.1534  0.0924
 3143W        W19990  15.406  11.180   0.869 -0.1819 -0.1983  0.3097
 3144W        W19991  11.518  10.932  12.419  0.1739 -0.2599  0.0200
 3145W        W19992  18.471   3.231   0.994 -0.0497 -0.0006  0.0993
 3146W        W19993   8.604   7.171   9.511 -0.0291  0.0714  0.3242
 3147W        W19994   8.723   3.915  11.662  0.0279  0.0329  0.0787
 3148W        W19995   6.452   1.369   4.188 -0.0922  0.3422 -0.2962
 3149W        W19996   1.139   9.538  11.957  0.2629 -0.1284 -0.3614
 3150W        W19997   3.524   4.674  10.254 -0.6976 -0.0709 -0.1842
 3151W        W19998   2.314   2.415   0.676 -0.3189  0.0091  0.1628
 3152W        W19999   7.577   2.750   2.552 -0.1211 -0.1946 -0.2766
 3153W        W20000  15.911  19.874  12.856  0.0721 -0.1239  0.2908
 3154W        W20001   2.374   1.933  10.108 -0.0509 -0.4121  0.0018
 3155W        W20002  12.789  18.796   1.018 -0.1010 -0.3274 -0.0403
 3156W        W20003  17.893   0.355  10.822  0.1882 -0.1835 -0.3257
 3157W        W20004  14.401  11.588   0.641  0.1513  0.0615 -0.1802
 3158W        W20005   0.088  11.595  11.422 -0.0917 -0.0309 -0.3157
 3159W        W20006   4.748   5.194   2.097 -0.2128 -0.2010  0.1408
 3160W        W20007  13.740  15.908   2.773  0.4365 -0.0705 -0.3246
 3161W        W20008   8.177  12.674  13.654  0.0559 -0.2796 -0.0024
 3162W        W20009  17.428  18.369   0.501 -0.0032  0.2210  0.1790
 3163W        W20010   3.193  17.640  11.172  0.0678 -0.0889  0.3088
 3164W        W20011  11.537  14.032  11.431 -0.1994  0.0505  0.0760
 3165W        W20012   9.682  14.767   0.397  0.0628  0.0711 -0.0245
 3166W        W20013   6.293   9.280   2.577  0.0158  0.2273  0.3610
 3167W        W20014   8.522   7.936  13.708 -0.2266 -0.1017  0.0358
 3168W        W20015  11.976   3.202   4.512 -0.1393  0.2198  0.1851
 3169W        W20016   3.963   4.229   2.855 -0.2349 -0.2427  0.2536
 3170W        W20017  11.501   4.117  10.036  0.1056 -0.0563 -0.0521
 3171W        W20018  19.844  10.262   1.914  0.1968 -0.1315 -0.2540
 3172W        W20019  11.393   2.786   4.327  0.1498 -0.0565 -0.2394
 3173W        W20020   0.878  18.084   2.403 -0.2284  0.0530 -0.1113
 3174W        W20021  17.117   9.839  12.846 -0.0557 -0.0155 -0.0565
 3175W        W20022  19.172   2.913  11.179 -0.2891  0.1695  0.0190
 3176W        W20023  15.688  18.947   4.225  0.1312 -0.0688 -0.3140
 3177W        W20024   8.176  11.799  14.155  0.0498 -0.0341  0.0349
 3178W        W20025   9.314   8.375   1.012  0.2226  0.1144 -0.1135
 3179W        W20026   1.272   8.805  11.997 -0.2011 -0.0212 -0.0086
 3180W        W20027  14.174   1.209   3.479 -0.1229  0.3204  0.2668
 3181W        W20028   7.850  15.053   0.956 -0.2969  0.3255  0.0758
 3182W        W20029   0.226   3.856   1.267  0.0028 -0.3396 -0.0240
 3183W        W20030  14.728   9.646   3.728 -0.2445 -0.1884 -0.0463
 3184W        W20031  12.207  15.149  13.273 -0.1351 -0.0084  0.1300
 3185W        W20032  10.732  17.318  12.663  0.0658 -0.1090  0.1753
 3186W        W20033  18.557   4.209  10.792 -0.3121 -0.0016  0.0448
 3187W        W20034   5.997   6.478  11.921 -0.0739 -0.1573  0.0529
 3188W        W20035  12.561   3.739   0.703  0.1067  0.0016 -0.1668
 3189W        W20036   6.588   3.321  12.374 -0.0017 -0.3601  0.2928
 3190W        W20037   3.444  12.771  11.210  0.3059  0.1984 -0.3928
 3191W        W20038   8.927  11.876  12.577 -0.0616 -0.1097  0.0729
 3192W        W20039  14.603   3.974  11.250  0.3491  0.1183  0.0413
 3193W        W20040   0.278  16.855   5.476 -0.2603 -0.2174 -0.0948
 3194W        W20041  18.750  11.058   1.749  0.2333 -0.1308  0.1549
 3195W        W20042   0.945   5.535  13.979  0.1773  0.0239 -0.1288
 3196W        W20043   5.618   0.057   4.311 -0.0771 -0.0707 -0.0922
 3197W        W20044   9.235   7.476  14.328 -0.0287  0.1394  0.0446
 3198W        W20045  12.801  16.584   5.334  0.0316 -0.0850  0.3779
 3199W        W20046   3.098   0.460   8.853  0.1100 -0.0687 -0.2800
 3200W        W20047  17.006   4.049  11.361  0.0079 -0.2307  0.5796
 3201W        W20048   8.049  17.064  13.087  0.0285  0.1079 -0.0447
 3202W        W20049  19.824  16.658   3.623 -0.2967  0.2255  0.3810
 3203W        W20050   7.144   8.036  11.610  0.1053  0.0034 -0.0271
 3204W        W20051  15.798   5.402   4.840  0.0740  0.1202 -0.0323
 3205W        W20052  13.355  18.021  10.297 -0.0180  0.1455 -0.1466
 3206W        W20053  11.712   6.670  13.321  0.5130  0.4471 -0.0185
 3207W        W20054   5.896   9.137   3.666  0.1206  0.1296  0.1883
 3208W        W20055  15.839  18.831   1.966 -0.1754 -0.1482 -0.1078
 3209W        W20056   8.615   8.983   0.564 -0.3503  0.1652  0.0541
 3210W        W20057  13.706   7.803   0.562 -0.0909 -0.1818  0.0933
 3211W        W20058  17.084  11.939  11.737 -0.0995 -0.1259  0.2384
 3212W        W20059   3.374  17.094  13.211  0.0942 -0.1077 -0.0835
 3213W        W20060   8.983  12.903  13.246  0.0847  0.0753  0.0582
 3214W        W20061  12.400   8.946   8.502  0.2164  0.3025 -0.0910
 3215W        W20062   1.620   1.743   3.140 -0.2706  0.1145 -0.2258
 3216W        W20063   5.220  15.954   4.402  0.3392 -0.1385 -0.4492
 3217W        W20064  12.808  18.289  12.466 -0.0037  0.1053  0.0170
 3218W        W20065  16.999  10.865  11.379 -0.0254  0.2048  0.1784
 3219W        W20066  16.655   1.018   2.607 -0.1203 -0.0851  0.0343
 3220W        W20067  17.668  18.557  10.913 -0.3355 -0.1843  0.0252
 3221W        W20068  15.899  19.678   3.703 -0.1064 -0.0182  0.2178
 3222W        W20069   2.451  11.793   2.904 -0.0719 -0.2277  0.2587
 3223W        W20070   8.477  12.811  13.249 -0.1052  0.2179 -0.2042
 3224W        W20071   6.804   4.109   2.577 -0.3990 -0.1867  0.1816
 3225W        W20072   4.628   8.095   1.671 -0.0798 -0.1313  0.0110
 3226W        W20073  10.251  18.815  14.245  0.0523  0.0451 -0.1405
 3227W        W20074   5.776  18.124   0.719  0.1896 -0.0214  0.2973
 3228W        W20075  16.473  10.127   2.743 -0.1313 -0.0979 -0.1640
 3229W        W20076  17.122   1.021   4.032  0.2005 -0.0897  0.1609
 3230W        W20077  19.394   9.548   3.719 -0.0726 -0.0692 -0.1538
 3231W        W20078  12.271   7.663   9.063  0.2478  0.1677 -0.1075
 3232W        W20079   5.728  10.764  10.962  0.2351  0.1395  0.1039
 3233W        W20080  19.859   3.085  11.158 -0.0745  0.2377  0.0482
 3234W        W20081  17.789   7.471   2.827 -0.3979 -0.0732 -0.0450
 3235W        W20082  11.917   2.556   9.081 -0.0057  0.0723 -0.1564
 3236W        W20083   3.592   7.775   3.406 -0.1881 -0.0070  0.1948
 3237W        W20084  14.434  14.863  11.619 -0.1883  0.2288  0.1273
 3238W        W20085   5.395  18.684  11.300 -0.2714 -0.1008 -0.0455
 3239W        W20086   6.404   9.450   2.117  0.2201  0.5344 -0.1603
 3240W        W20087  15.789  16.835   2.259  0.0034 -0.0552  0.1538
 3241W        W20088   6.245   9.501   3.498  0.0554  0.0464 -0.3062
 3242W        W20089  11.984  16.898   4.333  0.0275  0.1671 -0.1182
 3243W        W20090  16.943   9.860   2.996  0.2097 -0.2289 -0.0461
 3244W        W20091  14.177  10.987  10.586  0.1205 -0.2020  0.0957
 3245W        W20092   8.805   0.868   1.772 -0.3415 -0.1802 -0.1633
 3246W        W20093   2.832  14.938  13.757  0.0240 -0.2896  0.3379
 3247W        W20094   3.759  16.368  10.210 -0.0051 -0.0556 -0.0422
 3248W        W20095  19.489   7.071   4.636 -0.0072  0.7142 -0.2163
 3249W        W20096   0.474  11.012   5.232  0.1117  0.1843 -0.1800
 3250W        W20097  13.613   0.068   2.957 -0.0457  0.2765  0.3460
 3251W        W20098   5.580   1.493  11.053  0.2601 -0.0249 -0.0629
 3252W        W20099  19.266  16.861  10.278  0.0997  0.0504  0.2608
 3253W        W20100   3.040  17.598   2.361  0.1689 -0.2921 -0.3412
 3254W        W20101   7.793   8.888   3.172 -0.0492 -0.1088 -0.1927
 3255W        W20102  18.574   0.521   3.035 -0.1895 -0.3060  0.2244
 3256W        W20103   1.750  17.737   3.393  0.1829 -0.0034  0.1970
 3257W        W20104   6.630   8.658  12.751 -0.0604 -0.0356  0.3361
 3258W        W20105  16.638  16.829   1.314 -0.3745  0.4771 -0.0712
 3259W        W20106   3.563   6.129  14.208  0.0754 -0.1613 -0.3228
 3260W        W20107   4.093  11.349  12.538  0.0633  0.1376  0.0728
 3261W        W20108  18.694   0.553   0.864  0.1167 -0.2717 -0.1668
 3262W        W20109   0.552  11.893   1.351 -0.1702 -0.1092  0.0057
 3263W        W20110  15.638   4.831   3.750  0.2998 -0.0394  0.0868
 3264W        W20111  11.918   3.216   2.814 -0.0943 -0.0635 -0.2657
 3265W        W20112   6.126  10.276  12.249 -0.0749  0.3297  0.1745
 3266W        W20113  11.593  17.137  11.187 -0.2241 -0.0805 -0.0749
 3267W        W20114  19.727  13.484  14.226 -0.0818  0.1743  0.0313
 3268W        W20115  15.545  18.833  10.168 -0.0011 -0.0066  0.1699
 3269W        W20116   1.035  18.306   4.449  0.0912  0.1839 -0.0755
 3270W        W20117  16.883  10.124  13.918  0.1782 -0.2238  0.0495
 3271W        W20118   7.475   2.909   1.250 -0.1076  0.0646 -0.0641
 3272W        W20119  12.380   0.496   0.392 -0.0811 -0.0138  0.0544
 3273W        W20120   3.756   5.224   3.114 -0.0258  0.1223  0.1125
 3274W        W20121   8.329  16.794   3.773 -0.4221  0.2211 -0.1434
 3275W        W20122  15.673  15.226  14.348  0.3710 -0.0166  0.0789
 3276W        W20123  14.036   3.019  13.045  0.0487 -0.0581 -0.3053
 3277W        W20124   9.292  17.011   4.740 -0.0030  0.1643  0.0659
 3278W        W20125   2.270  13.854  11.831 -0.1399 -0.0351 -0.0266
 3279W        W20126  11.464  11.030   0.238  0.0287 -0.1846 -0.2300
 3280W        W20127  15.493   4.107  12.091 -0.3585 -0.1958 -0.0064
 3281W        W20128  10.633   2.369   0.052  0.0283  0.1852 -0.1209
 3282W        W20129   7.251  15.274   0.190 -0.0605  0.0224  0.0914
 3283W        W20130  11.777   2.508   3.342  0.2212  0.1831 -0.2138
 3284W        W20131  18.926  15.488  10.286  0.0516  0.1463 -0.0976
 3285W        W20132   3.401   8.232   0.250 -0.1891 -0.2579  0.0606
 3286W        W20133  18.485  15.187   3.416 -0.1966 -0.0622 -0.0973
 3287W        W20134   3.258   0.740   1.018 -0.1450  0.1714  0.0672
 3288W        W20135  15.227  16.577   5.444  0.1117 -0.1463  0.1753
 3289W        W20136  13.306   3.900   0.371 -0.0238 -0.0095 -0.3924
 3290W        W20137   4.820  13.830   2.891  0.1152  0.1640  0.4961
 3291W        W20138   7.399   9.901   4.191  0.1493  0.1914 -0.0083
 3292W        W20139   2.352  10.735  13.573 -0.2921 -0.1513  0.1364
 3293W        W20140   2.135   3.213   0.350  0.1296 -0.0465  0.0116
 3294W        W20141   2.436   0.238  13.507 -0.4704 -0.1447 -0.1454
 3295W        W20142  15.073  15.705   2.328 -0.1018  0.0838  0.3792
 3296W        W20143  16.475  12.140   1.023  0.2001  0.0873  0.3034
 3297W        W20144   6.026  19.773   0.204 -0.1994 -0.0652  0.1110
 3298W        W20145   4.684  14.227   4.222 -0.0803  0.0454 -0.3335
 3299W        W20146   8.078  17.011  13.594 -0.1640 -0.0546 -0.2235
 3300W        W20147  13.429   3.650  12.930 -0.4242  0.0526 -0.0544
 3301W        W20148   6.333  17.079   2.719  0.1864  0.1356  0.3330
 3302W        W20149  12.076  15.896   2.472 -0.1319  0.1789 -0.0683
 3303W        W20150  19.755  18.680   3.401 -0.1560  0.0169  0.0149
 3304W        W20151   1.026  17.652  13.224  0.3838  0.1217  0.1334
 3305W        W20152   8.315  10.861   0.006 -0.1339 -0.1302 -0.0029
 3306W        W20153  11.548   6.110   2.373 -0.4697  0.2313 -0.2763
 3307W        W20154  17.539   0.542   3.516 -0.1312  0.0948 -0.1661
 3308W        W20155   7.089  10.250  12.181 -0.0955 -0.2760 -0.0182
 3309W        W20156  17.252   5.100   2.957 -0.1111  0.1035  0.0389
 3310W        W20157   7.993  10.808  12.066 -0.1331 -0.1242  0.1744
 3311W        W20158   6.671   0.311  12.043 -0.0417 -0.1537  0.2154
 3312W        W20159  13.615   4.610  12.873  0.0585 -0.2228 -0.1392
 3313W        W20160   0.222  13.730   1.886 -0.1940 -0.2390 -0.0483
 3314W        W20161  17.681  17.076  12.684  0.1883 -0.0186  0.1645
 3315W        W20162  11.182  12.485  11.022  0.0081 -0.2896  0.5718
 3316W        W20163   6.145   9.787   1.808 -0.0113 -0.0796  0.1024
 3317W        W20164  15.053  10.498  13.614 -0.1172  0.1504  0.1048
 3318W        W20165  19.312   2.814   0.489 -0.1354  0.0029 -0.1161
 3319W        W20166  15.442   5.464  11.925  0.0860  0.0664  0.1241
 3320W        W20167   0.547  12.780   0.765 -0.2400 -0.1492 -0.0034
 3321W        W20168  15.987   9.844  10.955 -0.1915 -0.3552  0.3959
 3322W        W20169   1.589  10.587   2.669 -0.1423 -0.1295 -0.2776
 3323W        W20170  16.839   9.505   4.836 -0.2435 -0.2159 -0.3142
 3324W        W20171  19.528  12.810  13.466  0.1105 -0.2074  0.1125
 3325W        W20172   1.647   8.405   4.218 -0.1993  0.0425 -0.0514
 3326W        W20173   1.080  15.376   4.165  0.0327 -0.2089 -0.0489
 3327W        W20174  14.206   0.278   4.988 -0.1908 -0.1902 -0.0004
 3328W        W20175  15.310   0.336   0.070  0.1660 -0.2378  0.0843
 3329W        W20176   9.292   8.131  10.777  0.1565  0.0088 -0.1077
 3330W        W20177  11.071  15.983   3.868 -0.1005  0.1238  0.0551
 3331W        W20178   8.677   5.189   3.325  0.2187 -0.1219 -0.1562
 3332W        W20179   2.214   3.085  12.476  0.0704  0.2724  0.0055
 3333W        W20180   7.109   3.555  10.889  0.2233  0.0901  0.1552
 3334W        W20181  16.408  14.625  11.046  0.2734 -0.2855 -0.1897
 3335W        W20182   7.819   1.200  10.529  0.2234  0.0626 -0.1951
 3336W        W20183  19.319   6.683   9.857 -0.1783 -0.1809  0.1902
 3337W        W20184  14.668   3.738   9.358 -0.3083  0.0097  0.0250
 3338W        W20185   7.568  17.631   2.007 -0.2683 -0.4144  0.4440
 3339W        W20186  15.015   2.112  10.060  0.2223  0.1664  0.0554
 3340W        W20187  10.123   2.423  11.216  0.0999 -0.2271  0.1516
 3341W        W20188  17.525  16.226   8.831 -0.2585  0.1680  0.0484
 3342W        W20189  13.354  14.926  13.908  0.2086 -0.1234 -0.0802
 3343W        W20190  11.719   8.202   5.072 -0.0161  0.0992  0.5585
 3344W        W20191  18.511   6.380  10.916  0.0790  0.0587 -0.3490
 3345W        W20192   4.509   9.953   1.096 -0.3834 -0.0880  0.1407
 3346W        W20193   6.711  14.220  10.149  0.3509  0.0321  0.2040
 3347W        W20194   3.489   7.221  11.104 -0.2966 -0.5331 -0.3035
 3348W        W20195   9.324  13.109  13.605 -0.0667  0.0326 -0.1570
 3349W        W20196   8.279   7.610   4.169  0.0917  0.4193  0.2166
 3350W        W20197  10.104  14.184   4.166 -0.0158 -0.2535 -0.0151
 3351W        W20198   1.962   0.725   3.019 -0.0473  0.1713 -0.4174
 3352W        W20199  16.745  16.097  11.496 -0.1852 -0.0632 -0.2256
 3353W        W20200   8.765   4.237   4.372  0.1720  0.2651  0.4157
 3354W        W20201  15.300   2.925   2.195 -0.3033  0.0914  0.0080
 3355W        W20202   3.257  12.582   3.609 -0.1156  0.0629  0.2246
 3356W        W20203  19.393   5.959   2.083  0.1121 -0.4204 -0.2235
 3357W        W20204  14.253   5.849   4.682 -0.1040 -0.0068 -0.1777
 3358W        W20205  15.047  17.126   5.039  0.1579 -0.0125  0.0011
 3359W        W20206  14.189  12.910  13.853  0.0801 -0.0585  0.0416
 3360W        W20207   6.697   1.074   4.688  0.0456  0.1146 -0.0406
 3361W        W20208   2.052  15.642   3.861 -0.0745  0.0130  0.0875
 3362W        W20209  14.012   3.075  13.543 -0.1933 -0.2732 -0.1633
 3363W        W20210  17.891   5.626   1.675  0.0285 -0.1377  0.0637
 3364W        W20211  19.543  16.091   2.573  0.3312  0.0876 -0.1128
 3365W        W20212   2.882  11.851   3.947 -0.0871 -0.0004 -0.0978
 3366W        W20213   0.356  10.073   0.862  0.0637  0.0450 -0.0784
 3367W        W20214  14.663  17.788  12.231 -0.3090 -0.0717  0.2277
 3368W        W20215  15.666   1.769   3.253 -0.0849  0.0276  0.0933
 3369W        W20216   1.405  19.475   4.720  0.0906 -0.0290 -0.0963
 3370W        W20217  13.721  19.755   2.429  0.5677  0.2129  0.0008
 3371W        W20218  10.880   6.787  12.889  0.1871  0.2760 -0.5067
 3372W        W20219  12.947  19.459   1.755 -0.1212 -0.2270 -0.1254
 3373W        W20220   3.115  15.905  12.576 -0.2247  0.3226  0.1555
 3374W        W20221  18.079  14.389  10.792  0.1951  0.1846  0.0210
 3375W        W20222  19.516   3.628  11.862 -0.0662 -0.3131 -0.3217
 3376W        W20223   4.522   1.395  11.519 -0.1644  0.2252  0.0658
 3377W        W20224   9.479   4.722   2.368  0.0692 -0.1372 -0.3133
 3378W        W20225  17.229   3.662   0.830  0.0629  0.2010  0.0113
 3379W        W20226  16.096   6.176   3.523  0.1571 -0.0590 -0.0758
 3380W        W20227   0.980   2.813   0.912 -0.1035 -0.1304  0.2454
 3381W        W20228   1.763  10.388   1.737 -0.2360  0.1337  0.0538
 3382W        W20229   4.290   2.065  14.110  0.3219  0.2009 -0.0690
 3383W        W20230   4.120   3.258   1.493 -0.2368 -0.1840  0.0618
 3384W        W20231  16.068   4.390   1.982  0.1200  0.0991  0.0685
 3385W        W20232  10.621   7.212  13.038  0.0277  0.0875  0.1952
 3386W        W20233  17.974  14.750  12.203  0.3065  0.3212  0.0635
 3387W        W20234   3.639   3.176   0.879 -0.3086 -0.0876 -0.1454
 3388W        W20235   6.656   8.247   3.970 -0.0153  0.0396 -0.3378
 3389W        W20236  11.051  19.589   4.146  0.0497 -0.0023 -0.3022
 3390W        W20237   3.240  10.905   0.787  0.1187 -0.1036 -0.0878
 3391W        W20238  16.169  14.165  12.526 -0.1803 -0.2814  0.0713
 3392W        W20239  15.521   0.430  10.397  0.4061  0.2767  0.0960
 3393W        W20240  19.074  18.900  14.008 -0.2448 -0.0819 -0.1827
 3394W        W20241   6.909   4.858   0.360  0.0477  0.0082 -0.1657
 3395W        W20242  10.243  16.760   0.913  0.2998  0.1860  0.0799
 3396W        W20243  10.480  10.979  14.293 -0.1543 -0.2334 -0.0599
 3397W        W20244  13.477  13.015   3.502  0.2032 -0.2359  0.2678
 3398W        W20245   2.718  15.217   2.478  0.0117  0.2007  0.0425
 3399W        W20246  17.688   8.645   2.829 -0.0851  0.0469 -0.1093
 3400W        W20247  16.538   5.864  14.221  0.2075  0.0326 -0.4415
 3401W        W20248   6.258  19.288  13.091 -0.1682 -0.0818  0.2670
 3402W        W20249  12.883   2.635  10.614 -0.0827  0.1715  0.0407
 3403W        W20250  12.553   6.842  10.740  0.1452 -0.0464  0.0669
 3404W        W20251   1.771   0.232  13.164  0.0256 -0.5044 -0.1567
 3405W        W20252  12.830  15.329  13.734 -0.0960 -0.1102 -0.3367
 3406W        W20253   9.952   6.424   3.961  0.0133  0.0809  0.1756
 3407W        W20254  11.900  10.484   2.963  0.1099  0.0653  0.0475
 3408W        W20255  13.183   5.067   0.986 -0.2447  0.1973  0.2115
 3409W        W20256   7.463   2.117   0.903  0.1965 -0.1131 -0.0950
 3410W        W20257  15.305  16.314  11.479 -0.2055  0.0561 -0.2400
 3411W        W20258   4.381   0.692   5.049  0.0995  0.1814  0.0287
 3412W        W20259  13.578   4.662   9.517  0.0335 -0.1356 -0.3551
 3413W        W20260  13.601  13.954  13.606  0.0890  0.0386  0.0767
 3414W        W20261   0.781  17.674  11.489  0.0834  0.1690 -0.1307
 3415W        W20262   3.575  15.725   0.634 -0.0075 -0.2414  0.2175
 3416W        W20263  12.928  12.238   1.243  0.0330  0.1274  0.2325
 3417W        W20264  14.495   3.464  11.318  0.1294 -0.0392  0.0500
 3418W        W20265   4.403  17.601   4.063  0.1480 -0.0757  0.0813
 3419W        W20266  18.900  19.285  13.759  0.1583  0.0806 -0.1491
 3420W        W20267  13.916  14.719  11.832 -0.1212 -0.2467  0.2632
 3421W        W20268  19.832  13.447   3.391  0.2640 -0.0036  0.0475
 3422W        W20269  14.826   9.202   1.237 -0.2519 -0.0972 -0.0317
 3423W        W20270  15.800  13.808   8.859 -0.0465  0.1475  0.3202
 3424W        W20271  18.677   3.475   4.492 -0.1523 -0.2408 -0.0711
 3425W        W20272   3.347  12.814   1.884 -0.1224  0.2327 -0.2735
 3426W        W20273  16.360  13.062  14.142  0.3290  0.0020  0.1539
 3427W        W20274   4.548  17.747   2.496  0.2459 -0.3343  0.4035
 3428W        W20275  16.019   0.582   2.673 -0.2487 -0.0970  0.1428
 3429W        W20276  16.995  14.854  13.813 -0.2195  0.4180  0.0467
 3430W        W20277   1.300  16.403  13.565 -0.1120  0.1414  0.0938
 3431W        W20278   7.468   7.447   1.640 -0.1167 -0.2705  0.1560
 3432W        W20279  11.759   1.932   3.192  0.1157 -0.2154 -0.2934
 3433W        W20280  15.964  10.555   9.961 -0.1123 -0.0194  0.0223
 3434W        W20281  16.172  17.990   1.705  0.1211 -0.0573  0.0022
 3435W        W20282  15.050   6.093   1.436 -0.2755 -0.0233 -0.0621
 3436W        W20283  15.643   1.904   2.773  0.0379  0.1484 -0.0431
 3437W        W20284  15.242   8.594  14.125 -0.0561 -0.0564  0.3067
 3438W        W20285   5.115   7.816  11.463 -0.1097 -0.0876 -0.1298
 3439W        W20286   5.143   5.320   1.315  0.0227 -0.4106  0.2413
 3440W        W20287   8.329   6.158   1.723  0.1316  0.0389 -0.1847
 3441W        W20288   9.544  16.035  11.489 -0.1458  0.2410 -0.3205
 3442W        W20289  18.055  17.760   2.707  0.0436  0.1925 -0.0623
 3443W        W20290  19.831   9.236  11.234  0.0542 -0.0297  0.1658
 3444W        W20291  19.803  17.212  11.350  0.1248  0.0229 -0.1111
 3445W        W20292   7.219  18.525  13.839  0.0623 -0.0433  0.0689
 3446W        W20293   1.658   5.491   1.510  0.3294  0.0882  0.2534
 3447W        W20294   3.599   5.625   2.526  0.0301  0.0724 -0.1352
 3448W        W20295  18.761   7.550   5.335 -0.2041 -0.1781 -0.2396
 3449W        W20296  13.148  19.650   0.753 -0.0767 -0.1420 -0.1651
 3450W        W20297  10.708   9.329   3.996 -0.3516  0.1358  0.2264
 3451W        W20298  16.083   6.150  14.281 -0.3935  0.1670  0.2064
 3452W        W20299   8.991  18.968   9.637 -0.0832  0.2058 -0.1406
 3453W        W20300  19.588   8.282   2.774  0.0891  0.0658 -0.2721
 3454W        W20301  14.129   3.142  10.367  0.0003  0.0726 -0.1774
 3455W        W20302   7.882  11.574   2.443  0.2297 -0.1746 -0.0167
 3456W        W20303  16.489   4.324  13.764  0.0000  0.0280  0.0120
 3457W        W20304   5.067   1.814   2.329 -0.0040  0.3843 -0.0540
 3458W        W20305  13.194  16.662   1.062  0.1269  0.1820  0.2229
 3459W        W20306   4.096   7.801   4.246 -0.0909  0.1135 -0.0849
 3460W        W20307   0.699   5.861  11.988  0.0037 -0.0783 -0.0742
 3461W        W20308   6.938  12.609   4.620  0.0954 -0.2003 -0.1545
 3462W        W20309   6.989   9.656  13.277  0.1748  0.1151  0.0079
 3463W        W20310   1.224   9.064   5.056 -0.2163  0.2263  0.0371
 3464W        W20311  17.999   4.694   1.149  0.3805 -0.1840 -0.0605
 3465W        W20312   2.971  10.334  12.857 -0.2552 -0.0296 -0.1441
 3466W        W20313   2.686   6.117   0.530  0.1790  0.1110  0.4669
 3467W        W20314   1.148  13.089  11.002  0.3706 -0.0213  0.2625
 3468W        W20315   0.923  16.116   3.129  0.1140 -0.2651 -0.0662
 3469W        W20316   9.336  18.484  11.141  0.0490  0.1045 -0.0135
 3470W        W20317  19.032  11.459  12.279 -0.0137  0.2261  0.0313
 3471W        W20318  10.897  13.302   0.501  0.2037  0.0743 -0.0987
 3472W        W20319  19.707  10.475   9.414 -0.0914  0.0049  0.3607
 3473W        W20320   4.012   3.481   1.020 -0.2415 -0.2676  0.1543
 3474W        W20321  17.545  17.493   2.644 -0.0621  0.0538 -0.1904
 3475W        W20322   8.094   9.302  10.825 -0.1435  0.0333 -0.1656
 3476W        W20323  12.511  12.812  10.756 -0.4853 -0.0592 -0.1914
 3477W        W20324   8.302   2.779  12.587  0.2665  0.2336  0.0319
 3478W        W20325   9.585  16.263  10.426 -0.1807  0.0338 -0.0153
 3479W        W20326   2.187  15.625   4.985 -0.0353 -0.1888 -0.1492
 3480W        W20327   6.102  13.381  13.378  0.2259  0.0693  0.3204
 3481W        W20328  13.357   2.850   3.492  0.0010  0.3794  0.1223
 3482W        W20329  18.369   6.892  10.825 -0.0569 -0.0859 -0.1992
 3483W        W20330   1.672  11.182   4.194  0.0968 -0.1533  0.0988
 3484W        W20331  11.057   8.245   0.542  0.3898 -0.2780  0.2755
 3485W        W20332  18.310  12.749  14.208  0.3606 -0.0622 -0.4090
 3486W        W20333  14.682  10.791   3.377 -0.0566  0.0074 -0.1864
 3487W        W20334   3.767   4.936  13.632 -0.0332 -0.0762 -0.1158
 3488W        W20335  18.926   0.279  10.091 -0.0008 -0.0774  0.0794
 3489W        W20336  17.581   4.975  12.865 -0.0889  0.0381 -0.2667
 3490W        W20337  16.662   8.816   3.377 -0.3247 -0.2562  0.2258
 3491W        W20338   0.134   0.796   2.050 -0.1023 -0.0131  0.3245
 3492W        W20339  17.692   2.911   3.472 -0.1537 -0.3945  0.0783
 3493W        W20340   7.552  16.447  13.233 -0.0594  0.1583 -0.2557
 3494W        W20341   0.652   6.274   4.150 -0.0042  0.0436 -0.1070
 3495W        W20342   9.788  14.857  11.569  0.0699 -0.0153 -0.2702
 3496W        W20343   3.987  17.877   3.237  0.2089 -0.1724  0.0177
 3497W        W20344   8.763   2.500   4.692 -0.1521  0.0193  0.2327
 3498W        W20345   4.711  11.004   5.520 -0.2182  0.1674 -0.0806
 3499W        W20346   4.196   1.905  10.023  0.1223  0.1107  0.3682
 3500W        W20347  12.345   5.989  14.132 -0.2502  0.0992  0.1203
 3501W        W20348  10.007   4.175  10.664 -0.2051  0.1515 -0.1628
 3502W        W20349   2.077   6.206  10.134  0.0038 -0.0567 -0.0889
 3503W        W20350  10.874  12.432   1.744 -0.0402  0.1111 -0.2133
 3504W        W20351  15.069   4.563   1.703  0.1272  0.1050  0.1478
 3505W        W20352  12.342  16.263   3.311  0.1815  0.1298  0.0830
 3506W        W20353  10.785  19.036  10.941  0.4633 -0.2100  0.2554
 3507W        W20354  19.158   2.089  13.057 -0.0680 -0.2917 -0.2353
 3508W        W20355  12.112  13.446  12.568 -0.2683 -0.0944 -0.0631
 3509W        W20356  18.670   5.618   0.664 -0.0997  0.0705 -0.0119
 3510W        W20357  18.183   9.008   3.479  0.1599  0.1878 -0.4982
 3511W        W20358   5.999   0.469  12.125 -0.1467  0.3834  0.0734
 3512W        W20359  14.788   3.421  12.578  0.0847  0.2464 -0.0719
 3513W        W20360  13.060   7.433  12.710  0.3654  0.0259  0.0518
 3514W        W20361   9.679   3.922   0.614 -0.0860 -0.1377  0.0041
 3515W        W20362  11.773   2.305   2.825 -0.0900 -0.1641  0.0723
 3516W        W20363   3.841   8.075   0.712  0.3402 -0.0674  0.0355
 3517W        W20364   0.609   6.584  14.195  0.0016  0.0613  0.3312
 3518W        W20365   5.459   6.622  13.283  0.1855 -0.1828  0.1651
 3519W        W20366  18.984  12.517  10.643  0.0718  0.1622 -0.0914
 3520W        W20367   6.420   1.553   3.500  0.2781 -0.3252  0.2266
 3521W        W20368  15.564  14.027   4.330 -0.0395 -0.3826 -0.2133
 3522W        W20369  10.159   6.080   0.582  0.2695  0.0165 -0.0269
 3523W        W20370   1.205   2.129   2.025 -0.2805 -0.1104 -0.0733
 3524W        W20371  16.896  12.382   0.868 -0.1162 -0.1574 -0.0627
 3525W        W20372  15.417   3.479   1.329 -0.1396 -0.0316  0.0814
 3526W        W20373   8.940   2.384  10.355 -0.0090  0.1513  0.1588
 3527W        W20374   6.166   5.885   2.114 -0.1736 -0.0025 -0.2914
 3528W        W20375   5.278  13.715  10.890 -0.0881  0.2716 -0.1286
 3529W        W20376  15.782  15.998  11.673  0.0153 -0.0674 -0.3271
 3530W        W20377  14.232   9.244   8.830 -0.0195 -0.2997 -0.3419
 3531W        W20378   8.963  12.187   0.223 -0.3345 -0.0509  0.0376
 3532W        W20379  18.157   0.085  14.255  0.0974 -0.0229  0.2179
 3533W        W20380  19.871   4.439   0.369  0.2127  0.1904  0.2238
 3534W        W20381   4.354  19.537   3.666  0.1542 -0.2049 -0.1550
 3535W        W20382  16.082   3.293   3.262 -0.2573 -0.0227 -0.0661
 3536W        W20383   3.749  16.623   1.031 -0.1540  0.0121  0.0764
 3537W        W20384   7.079  13.927   2.969  0.2980 -0.0657 -0.1180
 3538W        W20385  11.055  17.830  10.063  0.0522  0.0474  0.1457
 3539W        W20386  18.692  11.651  11.905  0.0257 -0.0205  0.1439
 3540W        W20387   9.010  12.805  11.314  0.1312  0.1274  0.0858
 3541W        W20388  14.299  17.943  11.443 -0.2751  0.0693 -0.0807
 3542W        W20389   9.671   2.256  11.454  0.1857  0.2630  0.0635
 3543W        W20390  18.333  15.896   4.674  0.0956 -0.0063  0.1851
 3544W        W20391   7.476  14.271  12.153  0.2084 -0.0263 -0.1443
 3545W        W20392  16.630   5.997   0.795  0.0346 -0.0428 -0.1513
 3546W        W20393   7.607   6.270  13.275 -0.1007  0.3928  0.2068
 3547W        W20394   0.031  11.978   2.651  0.1000  0.0122  0.1164
 3548W        W20395  16.421  18.788  10.237 -0.4163 -0.3918  0.2110
 3549W        W20396  15.360  17.524   1.572  0.1978 -0.0048 -0.1774
 3550W        W20397  15.125   7.589  11.323  0.1702  0.1722 -0.2009
 3551W        W20398   6.731  15.984   4.320 -0.0109  0.1373  0.1094
 3552W        W20399  12.773   9.803  12.680  0.1038 -0.0248  0.0777
 3553W        W20400  13.838   7.720   4.235  0.1172  0.0717  0.4312
 3554W        W20401  15.498   2.527   1.095  0.0635 -0.2978  0.1995
 3555W        W20402   3.800  19.784  14.188 -0.3238  0.1236 -0.2225
 3556W        W20403  17.779   3.039   0.886 -0.1229  0.6897  0.3990
 3557W        W20404   6.569  19.264  11.872 -0.0524 -0.0621  0.2629
 3558W        W20405  10.840   8.092  11.342  0.1870  0.2588 -0.4292
 3559W        W20406  13.699   5.009   3.531 -0.2357 -0.0160  0.2225
 3560W        W20407  19.128   1.064   0.035 -0.0452 -0.0160 -0.1066
 3561W        W20408  18.454   4.805  13.282 -0.2145  0.0059  0.2526
 3562W        W20409  17.569   1.912   1.690 -0.0965 -0.3268 -0.0959
 3563W        W20410  19.850  16.054   4.893 -0.1482  0.2816  0.4435
 3564W        W20411  17.111   1.443  13.656 -0.0840  0.0302 -0.0205
 3565W        W20412   3.841  15.679  11.714 -0.0738  0.0623 -0.1798
 3566W        W20413   2.784   5.305   2.130  0.1938  0.0249  0.4816
 3567W        W20414  13.844   4.682   1.415 -0.2697 -0.0347  0.3946
 3568W        W20415   3.110  11.455   5.554  0.3303  0.0351  0.0348
 3569W        W20416   8.644  14.106   2.803 -0.2206 -0.0770  0.1207
 3570W        W20417  13.825  16.991  11.239  0.1319  0.2188  0.1346
 3571W        W20418  17.597   8.022   9.018  0.0817  0.0069  0.1831
 3572W        W20419   5.843   0.555   5.136 -0.0926 -0.2238  0.0441
 3573W        W20420   4.379   2.477  12.836  0.2513  0.1061  0.1251
 3574W        W20421  14.002   2.503   2.764 -0.0764 -0.1726 -0.1902
 3575W        W20422   4.648   2.457   0.495  0.0569  0.1012  0.0434
 3576W        W20423   0.986   2.116  11.334  0.1694 -0.0561  0.0841
 3577W        W20424  15.300   8.295  11.003 -0.1467  0.1997 -0.1448
 3578W        W20425   7.054  18.397   4.984 -0.1112 -0.0637 -0.4607
 3579W        W20426   6.038   0.684  10.032 -0.1695 -0.0799  0.1483
 3580W        W20427  13.442  10.090   1.593 -0.0044  0.0166  0.1466
 3581W        W20428   5.329   9.478   4.280  0.3605 -0.1162 -0.1131
 3582W        W20429   1.189  10.213   1.057 -0.0865 -0.0861 -0.2386
 3583W        W20430  10.770  16.438  10.903  0.2150  0.3189  0.1630
 3584W        W20431  15.831   6.751  13.751 -0.0125 -0.0366 -0.2373
 3585W        W20432  11.476   2.261  12.647 -0.2049  0.1545  0.0008
 3586W        W20433  15.383  13.460  13.076 -0.2842  0.1904  0.0362
 3587W        W20434  14.991   3.151  12.017  0.0755 -0.1269  0.0028
 3588W        W20435   5.887   8.838   2.606 -0.0807  0.0955 -0.4023
 3589W        W20436   9.088  13.645  13.864  0.3071  0.0810  0.0532
 3590W        W20437   7.964   6.540  10.737  0.2666 -0.2524  0.0482
 3591W        W20438  13.230  15.015  13.418  0.1033  0.0775  0.0300
 3592W        W20439   8.504  19.429   2.586  0.1978 -0.0143 -0.2387
 3593W        W20440   5.981  17.429  14.333  0.0876 -0.4273 -0.1087
 3594W        W20441   5.124   3.918   1.581 -0.0169  0.2995  0.0910
 3595W        W20442  11.743  12.598  13.679 -0.0579 -0.0231  0.0586
 3596W        W20443  18.934  15.038  10.504  0.1564 -0.0666 -0.1036
 3597W        W20444  16.168  11.468   2.111  0.2600  0.0670  0.0800
 3598W        W20445  12.385  17.031  12.039 -0.1654 -0.1924  0.1305
 3599W        W20446  14.989  11.087   2.731  0.1705 -0.3223 -0.0068
 3600W        W20447   1.046   2.206  10.420 -0.1305 -0.0639  0.1400
 3601W        W20448  19.007  15.993  12.052  0.1364  0.1432 -0.2684
 3602W        W20449   5.568   4.896   4.014 -0.0021  0.1397  0.4706
 3603W        W20450   4.393   7.686   1.246 -0.3409  0.1467 -0.1157
 3604W        W20451   0.482  16.640  11.574 -0.1839 -0.2051  0.4867
 3605W        W20452   0.688  15.337   1.434 -0.0486 -0.3643  0.1878
 3606W        W20453  11.393   5.498  13.127  0.1797 -0.0835  0.0709
 3607W        W20454   5.713   5.181   1.407 -0.0440  0.0047 -0.1000
 3608W        W20455   6.871   0.657   1.247  0.2424  0.2425 -0.1681
 3609W        W20456   5.263  15.436   3.301 -0.2237 -0.1465  0.0666
 3610W        W20457  10.560   4.759   4.077 -0.0339  0.0893  0.2707
 3611W        W20458   7.071   5.517  13.515  0.1277 -0.0004  0.1995
 3612W        W20459  14.872   5.855   2.859  0.0068 -0.0140 -0.4257
 3613W        W20460   1.957   5.022  12.627  0.0706 -0.2430  0.1241
 3614W        W20461  16.227   2.320  10.089  0.1094 -0.1747 -0.0792
 3615W        W20462   7.476   9.589   1.189  0.1144 -0.0501 -0.0080
 3616W        W20463  15.943   0.827  14.010  0.3144  0.2300 -0.0444
 3617W        W20464   7.558  17.059   2.799 -0.1502 -0.4152  0.0806
 3618W        W20465  11.876   9.002  11.716 -0.1586 -0.1334 -0.0682
 3619W        W20466   3.375  11.690  12.646  0.0751  0.2783  0.2532
 3620W        W20467  15.606  14.243  14.351 -0.3257 -0.1907  0.0630
 3621W        W20468  16.457  15.779   1.733  0.1325 -0.3163 -0.0958
 3622W        W20469  13.671   8.056  10.948 -0.0773  0.3561  0.3118
 3623W        W20470  19.561   9.587   3.220  0.1001 -0.0738 -0.1990
 3624W        W20471  18.788  14.046  11.632  0.0560  0.2261  0.3901
 3625W        W20472   0.920  19.479   1.372  0.0410 -0.0530  0.1397
 3626W        W20473  16.574  18.378  11.931 -0.0115  0.0878  0.1034
 3627W        W20474   4.914   3.669   2.823 -0.2977  0.0759 -0.1143
 3628W        W20475   9.413   3.064  13.933  0.2006  0.3508 -0.0244
 3629W        W20476  18.742  18.569   1.964  0.1630  0.1949  0.0782
 3630W        W20477  19.792  14.216   0.268  0.4137  0.0545  0.1236
 3631W        W20478   2.667   0.483  12.538 -0.1060  0.1505 -0.0792
 3632W        W20479   3.207   8.583   3.809  0.3056  0.0736 -0.0653
 3633W        W20480   9.382  14.972   0.050  0.2018  0.0635  0.1010
 3634W        W20481   7.696   1.002   2.020 -0.2526  0.2739 -0.0196
 3635W        W20482  12.486   8.230  13.566 -0.0571 -0.2715  0.0608
 3636W        W20483  17.307   7.062   2.549  0.0466 -0.1556 -0.0880
 3637W        W20484  19.045   4.277   2.177  0.0080  0.1797 -0.1787
 3638W        W20485  11.616   9.274   1.946 -0.0038 -0.1092 -0.0391
 3639W        W20486  12.863   0.410  14.020 -0.4111 -0.2693 -0.5311
 3640W        W20487   2.304   2.116   4.907  0.0858 -0.0741  0.1334
 3641W        W20488   8.573   5.395  11.652  0.0616 -0.1686  0.2979
 3642W        W20489  14.572  18.588  14.274 -0.0032 -0.0104 -0.0259
 3643W        W20490   7.121  16.723   0.717  0.1121 -0.3169 -0.0133
 3644W        W20491  15.904  13.809   1.425  0.3874 -0.1048 -0.2400
 3645W        W20492   3.179  17.725  10.320 -0.0599  0.2777 -0.0579
 3646W        W20493  15.521   2.175   0.623 -0.2605  0.2200  0.2674
 3647W        W20494  18.995  17.501   0.708 -0.0458 -0.1084 -0.1144
 3648W        W20495  15.063  11.306  11.028 -0.2734  0.2395 -0.0366
 3649W        W20496   9.162  18.950   2.740 -0.0663 -0.2862  0.4322
 3650W        W20497  10.677  16.948  10.999 -0.0990 -0.0081  0.0663
 3651W        W20498   6.701   1.865  13.146 -0.2895  0.0553 -0.0779
 3652W        W20499  15.055  18.805   4.511  0.0355 -0.2579 -0.4251
 3653W        W20500  15.091  15.439  10.540  0.1306 -0.0770 -0.0427
 3654W        W20501  18.544   9.386  12.481 -0.2235 -0.1525  0.0329
 3655W        W20502  12.210   5.569  11.788  0.2157  0.0944 -0.1124
 3656W        W20503  15.926  17.412  11.759 -0.0887 -0.1943 -0.1989
 3657W        W20504   5.981   0.604   2.213 -0.2565 -0.2072  0.1116
 3658W        W20505   1.692  16.070  12.296 -0.0509  0.2298 -0.3446
 3659W        W20506   1.861  15.959   2.573  0.1052  0.2716 -0.1242
 3660W        W20507  13.988  10.060  12.936  0.1762 -0.0376  0.2712
 3661W        W20508  11.377   5.248   9.902 -0.0470 -0.0859  0.3723
 3662W        W20509  16.465  12.658   3.042 -0.1467 -0.1554 -0.3203
 3663W        W20510  15.669  11.422   1.850  0.2529  0.0059  0.2138
 3664W        W20511  10.484   4.672   2.858 -0.1163  0.3301  0.0235
 3665W        W20512  16.504   3.498   0.494  0.0702  0.1604 -0.0567
 3666W        W20513   6.937  19.783  11.886  0.1211  0.2507 -0.0437
 3667W        W20514   9.145  16.209   0.660  0.0188 -0.1407  0.1522
 3668W        W20515  12.506   5.010  14.335 -0.2770  0.5062  0.0968
 3669W        W20516  19.048  10.961  12.603 -0.0474 -0.1998  0.4622
 3670W        W20517   7.002  10.573  11.269 -0.0793 -0.2284  0.1743
 3671W        W20518  18.093   4.044  10.864  0.0516  0.1857 -0.2207
 3672W        W20519   6.970   9.387  11.797 -0.4037 -0.1600  0.0518
 3673W        W20520  15.622   4.222  12.608 -0.3847  0.2923  0.0058
 3674W        W20521  18.215   5.710   4.117 -0.3298  0.1448 -0.0831
 3675W        W20522  11.289  11.860   0.845  0.1725 -0.0277  0.1585
 3676W        W20523  15.612  16.192   4.044  0.2564  0.5075  0.1968
 3677W        W20524  19.404  12.963  12.935  0.1111  0.0769  0.0254
 3678W        W20525  10.512  12.454   3.420  0.0330 -0.3327 -0.0457
 3679W        W20526   2.719   7.794   3.747  0.1918 -0.2325  0.1217
 3680W        W20527   1.067  10.179  10.694  0.1019  0.2268 -0.0077
 3681W        W20528  15.050  16.043   1.889  0.2888  0.1093  0.1290
 3682W        W20529   5.531  13.091   0.176 -0.0922  0.3296  0.1669
 3683W        W20530   5.807  14.670   3.504  0.0411 -0.1374  0.2092
 3684W        W20531   5.771   9.465   1.719  0.1670 -0.1654  0.0008
 3685W        W20532  12.277   9.937   1.684  0.0455 -0.2634 -0.0367
 3686W        W20533   5.605   5.710   0.964 -0.0503 -0.0768 -0.0787
 3687W        W20534  11.109   4.354   1.803 -0.0220 -0.1830  0.0749
 3688W        W20535   0.289  11.564   4.469 -0.0128 -0.1371 -0.0554
 3689W        W20536   9.407  15.810   3.564 -0.0466 -0.0036  0.1915
 3690W        W20537   0.379  18.844  10.933 -0.2129  0.1942  0.1476
 3691W        W20538  19.046   8.233   3.019  0.1738  0.1781  0.1181
 3692W        W20539   5.007   0.342   0.032 -0.1748  0.4671  0.1015
 3693W        W20540  17.958   7.684  10.910  0.2303  0.0124 -0.0299
 3694W        W20541  11.780   1.403   4.144 -0.1516 -0.2718 -0.5595
 3695W        W20542   7.624  14.293  11.148  0.0799  0.0174 -0.0821
 3696W        W20543   4.346   6.210  12.016  0.1007  0.5680 -0.2902
 3697W        W20544  15.594   3.789   3.641  0.1720 -0.2505  0.0058
 3698W        W20545  11.940  13.792   2.338 -0.1164 -0.0230  0.3138
 3699W        W20546  13.329  18.971   2.588 -0.2772  0.0178  0.0672
 3700W        W20547   9.555  18.026  10.329 -0.1452  0.3212 -0.0621
 3701W        W20548   7.064   6.759   9.875 -0.2933  0.2350  0.0551
 3702W        W20549   1.896   8.808  10.491  0.3364 -0.1815  0.1092
 3703W        W20550   1.546  16.334   3.779 -0.1823 -0.0308  0.2498
 3704W        W20551  15.483  11.104  12.354  0.1852  0.1913  0.2151
 3705W        W20552  12.714  13.302   3.681 -0.3190 -0.0236  0.2992
 3706W        W20553  15.638   3.740   0.004 -0.1491  0.2759 -0.2066
 3707W        W20554   2.120   6.894   3.429 -0.0543 -0.1497  0.3836
 3708W        W20555  11.383  18.779   5.240 -0.1370 -0.3222  0.0573
 3709W        W20556  12.369   1.236  12.403  0.1135  0.1402  0.2459
 3710W        W20557   1.248  17.087  12.622 -0.3197  0.4873  0.0026
 3711W        W20558   3.767  18.087   2.841  0.1613  0.3197 -0.2272
 3712W        W20559  14.837  13.235   2.469 -0.4178  0.1143  0.0245
 3713W        W20560  12.029  12.847   0.212  0.1575 -0.0363 -0.3589
 3714W        W20561   1.155   9.633  12.526  0.0545 -0.0734 -0.1595
 3715W        W20562  12.123  18.723   3.407 -0.0083  0.1241  0.0126
 3716W        W20563   0.454   0.812  13.886  0.0303  0.0728  0.5301
 3717W        W20564  18.806   7.150   0.288 -0.0083  0.1665 -0.4738
 3718W        W20565   4.871   1.450   4.374 -0.0402 -0.0280 -0.1028
 3719W        W20566  11.558   4.774  13.940 -0.0566  0.1985  0.1471
 3720W        W20567   4.767   0.228  10.639 -0.0825 -0.2723  0.2021
 3721W        W20568  18.471   9.797  11.624 -0.1640 -0.3899 -0.0216
 3722W        W20569  15.479   7.963  13.343  0.0108 -0.2217  0.1238
 3723W        W20570   2.117  19.423   2.777  0.0262 -0.4308 -0.1532
 3724W        W20571   9.299   7.395  10.794  0.2501 -0.0318 -0.1427
 3725W        W20572  13.238  12.368   0.448 -0.0253  0.0271 -0.2356
 3726W        W20573  18.747  12.047   1.947  0.4235 -0.0248  0.1812
 3727W        W20574   5.439   4.037   9.093 -0.3994 -0.2256 -0.0440
 3728W        W20575   5.402  18.874   3.984  0.1016  0.3658  0.3049
 3729W        W20576  15.061   1.619  12.524  0.4886 -0.3503  0.0260
 3730W        W20577  19.750   6.400   1.013  0.3252  0.4441  0.0613
 3731W        W20578  16.400  14.270  12.994  0.1114  0.1010 -0.1033
 3732W        W20579   9.686   0.332  11.443  0.3004  0.0536  0.0522
 3733W        W20580  15.611  16.322   0.219 -0.0803 -0.0827  0.3159
 3734W        W20581   3.220   5.268  13.992 -0.1558 -0.0606  0.0576
 3735W        W20582  17.076   9.325  10.832  0.1034 -0.3111 -0.0958
 3736W        W20583   6.768  15.670   1.652  0.0556  0.1630  0.1695
 3737W        W20584  13.712  19.689  14.033 -0.0097  0.1064  0.0693
 3738W        W20585   1.167  12.045   5.345 -0.4844  0.1695  0.1409
 3739W        W20586   9.020   9.479  12.047 -0.0427  0.1368 -0.1173
 3740W        W20587  12.503   1.177  14.194  0.0979 -0.3337 -0.2242
 3741W        W20588  17.145   0.240  13.699  0.2920  0.0208  0.2197
 3742W        W20589  14.206   7.747   0.473 -0.0637  0.0685  0.1063
 3743W        W20590  17.125  10.075   0.003 -0.2506  0.2080 -0.0339
 3744W        W20591   2.679   0.704  13.445  0.2963 -0.0162 -0.1877
 3745W        W20592   6.041  13.290  11.495 -0.3120  0.0675 -0.1008
 3746W        W20593  14.671  18.845   3.300  0.0476 -0.1249  0.0837
 3747W        W20594   8.926  14.338  11.378  0.1010  0.0517  0.2209
 3748W        W20595  15.890  15.565   1.701 -0.3455 -0.1229  0.3709
 3749W        W20596   7.041   2.960   1.054 -0.1017 -0.2526 -0.4257
 3750W        W20597  18.168  17.981   1.641 -0.3170  0.1639 -0.1438
 3751W        W20598  10.648   2.220   4.663 -0.1355 -0.1749  0.2497
 3752W        W20599   3.169  10.602  11.671  0.1447  0.2108 -0.0185
 3753W        W20600   5.289   8.485   1.841 -0.0801 -0.0790  0.3012
 3754W        W20601  14.911   8.775  13.596  0.1325 -0.3365  0.1511
 3755W        W20602   7.697  19.154   3.473  0.1057  0.0247 -0.1336
 3756W        W20603   8.915   7.809  14.059  0.1438  0.1270  0.0142
 3757W        W20604  18.997  10.546  13.758  0.0560  0.2646  0.1703
 3758W        W20605  12.128  19.729   9.302 -0.0542  0.0531 -0.0834
 3759W        W20606  15.581   8.249   1.119 -0.0395 -0.3022  0.0996
 3760W        W20607  16.842  16.532   0.942  0.3793 -0.0608  0.0324
 3761W        W20608   3.642  12.284   0.000  0.3472 -0.2231  0.1248
 3762W        W20609  18.879  14.930  11.558  0.0423 -0.1076  0.2195
 3763W        W20610  15.543   4.053  13.542 -0.0072 -0.3500 -0.0318
 3764W        W20611  19.878   2.142  10.761 -0.1677  0.0843 -0.1088
 3765W        W20612  14.014   8.817  13.739  0.0815  0.0927 -0.0000
 3766W        W20613   2.713  16.359   4.778  0.0850  0.1912  0.0943
 3767W        W20614  18.093   8.944  12.560  0.2095 -0.0550 -0.1677
 3768W        W20615   6.042   1.613  10.599  0.1148  0.3240 -0.1901
 3769W        W20616  11.910   1.408  12.511  0.1522  0.3515  0.3156
 3770W        W20617  19.079  19.067   1.510 -0.3695  0.4308 -0.2311
 3771W        W20618  13.490   4.160   4.537  0.5477 -0.0819 -0.0053
 3772W        W20619  10.274  18.249   3.492 -0.1054 -0.1604 -0.0632
 3773W        W20620   5.894  17.936   2.723 -0.0838  0.0042  0.2640
 3774W        W20621  16.609  19.588   0.434  0.1150  0.1358 -0.1408
 3775W        W20622   2.995   7.644   0.722 -0.0238 -0.1161 -0.1582
 3776W        W20623   6.672   4.280   0.224  0.1708  0.0108 -0.1640
 3777W        W20624  19.222   0.071   5.086 -0.3128  0.0642  0.1438
 3778W        W20625   9.241  13.634  10.712 -0.1943  0.0890 -0.1013
 3779W        W20626   2.545  19.250  10.893 -0.1948 -0.1385  0.1297
 3780W        W20627   8.722  13.876  12.906 -0.0713 -0.0290  0.3607
 3781W        W20628   5.689  14.646   4.782  0.0202  0.0964  0.0265
 3782W        W20629   1.918   6.181  13.423  0.2858  0.0827  0.3837
 3783W        W20630   5.220   4.004   9.778 -0.2525 -0.1389 -0.0453
 3784W        W20631  10.502   1.938   0.737 -0.2615  0.2269 -0.2837
 3785W        W20632  17.998   5.270  13.733  0.0174 -0.2401  0.5296
 3786W        W20633   3.315  15.930  14.343  0.4299  0.1831 -0.1672
 3787W        W20634  16.731   7.400   3.230  0.1479  0.0963 -0.0531
 3788W        W20635   0.408   5.014  10.751 -0.1411  0.0509 -0.3187
 3789W        W20636  19.872  15.583   2.169 -0.1037  0.0946 -0.1302
 3790W        W20637   5.085   5.996   9.982 -0.1008  0.2288 -0.1892
 3791W        W20638   6.539   5.540  11.879  0.0711 -0.2662  0.2144
 3792W        W20639   9.503  19.102   1.464 -0.2183  0.0848 -0.2460
 3793W        W20640  18.918  13.111   9.830 -0.1165 -0.2581 -0.0193
 3794W        W20641  18.547   4.086   0.778  0.2685  0.2362 -0.1325
 3795W        W20642   0.974  13.913   1.371  0.1576  0.3462 -0.1437
 3796W        W20643  16.107   1.123  12.003 -0.2239  0.0757  0.2236
 3797W        W20644   7.589  15.715   4.305 -0.1297  0.1265 -0.1231
 3798W        W20645  19.774  15.938  10.798  0.0696 -0.0001 -0.0420
 3799W        W20646   5.124   4.024   0.729  0.0757 -0.0107 -0.2556
 3800W        W20647   8.112  10.431   0.895  0.3452 -0.2694  0.1676
 3801W        W20648  16.742  17.582  12.885  0.4003  0.1834 -0.2422
 3802W        W20649  17.529   1.469   1.560 -0.0363  0.4641 -0.0856
 3803W        W20650   4.294   9.587   4.940 -0.3273 -0.1481  0.1309
 3804W        W20651  18.678  10.897   1.266  0.1422 -0.0542  0.0149
 3805W        W20652   0.386   5.366  12.599  0.0518  0.0481 -0.0675
 3806W        W20653  10.308   2.014   2.279 -0.1122 -0.1156  0.2999
 3807W        W20654  16.926   8.567  13.458  0.2167  0.2700 -0.1951
 3808W        W20655   9.908   8.687   4.802 -0.0704 -0.0342  0.2603
 3809W        W20656  19.178  13.364   5.113  0.4769 -0.4042 -0.2002
 3810W        W20657  14.418   2.147   1.490  0.4922  0.0095  0.2343
 3811W        W20658  17.015   7.209  11.438 -0.1039  0.1019 -0.2334
 3812W        W20659  12.783   9.960  13.567 -0.1018  0.0490  0.3774
 3813W        W20660   8.209  14.888   4.473 -0.4139 -0.0061 -0.1461
 3814W        W20661  16.039   4.644   4.806  0.3036  0.0847  0.2675
 3815W        W20662  10.063   7.505  11.450  0.2423  0.0345  0.4030
 3816W        W20663   8.429   6.783   3.157  0.1799  0.1506  0.3345
 3817W        W20664   8.952  11.622   0.415  0.0114 -0.2203 -0.0012
 3818W        W20665  10.545   8.687  13.661  0.1393  0.0034  0.1086
 3819W        W20666   2.423   3.626  12.391 -0.1255 -0.0884 -0.0201
 3820W        W20667   0.161  16.839   0.095  0.1550  0.1114  0.1548
 3821W        W20668   5.244  14.075   4.868  0.2916  0.0853 -0.3427
 3822W        W20669  17.629   8.027   9.945  0.2483  0.1358  0.3146
 3823W        W20670  16.375   9.491  13.080  0.1883 -0.0376 -0.0017
 3824W        W20671   0.099  18.082   5.053 -0.2243 -0.0577  0.1251
 3825W        W20672  18.103  16.343   3.272  0.0756 -0.3697 -0.2970
 3826W        W20673   4.882   9.644  11.353 -0.0626  0.1527 -0.0408
 3827W        W20674  17.048  11.003   2.409 -0.2353 -0.0017 -0.0012
 3828W        W20675  13.462   2.242   2.269 -0.1421  0.0129 -0.2767
 3829W        W20676   5.057   0.310   1.864  0.3691  0.0017  0.1242
 3830W        W20677   2.891   7.758   1.632  0.2635  0.1145 -0.2190
 3831W        W20678  15.517  10.710   0.475 -0.3008 -0.0774  0.1049
 3832W        W20679   8.309  18.644   0.566 -0.0629  0.0477 -0.2621
 3833W        W20680  17.159  13.471  13.810  0.1239  0.1170 -0.0108
 3834W        W20681  18.853   2.470   4.567  0.1697 -0.2453  0.2422
 3835W        W20682   1.071  14.956   3.907  0.1125 -0.3585 -0.2199
 3836W        W20683  11.427  15.013   2.452 -0.1243  0.1361 -0.0637
 3837W        W20684   5.603   6.631  11.459  0.1001  0.1115  0.1690
 3838W        W20685   9.852   0.399   1.800  0.1306 -0.1278  0.1414
 3839W        W20686   7.523   6.246   4.361  0.2389 -0.2145  0.0602
 3840W        W20687  14.275  18.356   4.005 -0.0758 -0.2145 -0.1772
 3841W        W20688   7.191  18.271   1.339 -0.1475 -0.0007  0.2581
 3842W        W20689  13.911  16.143  11.937 -0.1840  0.0773 -0.1158
 3843W        W20690   1.015  16.989   1.955  0.1457 -0.2389  0.2462
 3844W        W20691   9.856   5.733   1.610 -0.2205  0.1798 -0.1706
 3845W        W20692  14.008   1.707   3.102  0.0822 -0.3199  0.0331
 3846W        W20693  18.809   8.528  12.349  0.3773  0.1881  0.0417
 3847W        W20694  17.271   9.624   3.761 -0.1197  0.2838 -0.0295
 3848W        W20695   6.169  11.146   2.145 -0.3117  0.3310  0.0036
 3849W        W20696  17.205   1.055   2.174  0.0736  0.3516  0.0377
 3850W        W20697  15.024  16.184  11.930  0.1478 -0.2542  0.2715
 3851W        W20698   3.141  16.968  12.760 -0.1283  0.0745  0.0092
 3852W        W20699  15.810   5.716   1.821 -0.0982  0.0895 -0.1080
 3853W        W20700  18.579  13.324  12.880 -0.2879  0.1266  0.2222
 3854W        W20701   6.233   3.229   0.747 -0.1974 -0.0080  0.2228
 3855W        W20702  10.248  18.197   9.817 -0.0976  0.0800 -0.2323
 3856W        W20703   6.576   1.316  14.211 -0.1769  0.0572  0.2112
 3857W        W20704   1.694  10.785   3.341  0.1604  0.0070 -0.4591
 3858W        W20705  10.860   2.204  12.282  0.1977 -0.2414  0.1801
 3859W        W20706  12.631  13.275  12.628  0.0046  0.0089  0.0784
 3860W        W20707   2.461  16.605   2.043  0.1211 -0.1538  0.0682
 3861W        W20708  15.194  11.901  12.422 -0.2059 -0.2048  0.0973
 3862W        W20709  15.273   1.491  13.929  0.2158  0.4057 -0.1005
 3863W        W20710  16.967   1.973  11.120  0.0068  0.1210 -0.0434
 3864W        W20711   5.058  12.201   4.170 -0.2207  0.2610 -0.2841
 3865W        W20712   9.554   2.936   4.699  0.0529 -0.0219 -0.2418
 3866W        W20713   2.000  14.503   0.361  0.2246 -0.0958  0.3091
 3867W        W20714   2.247  14.524   1.436 -0.2505 -0.2451 -0.1104
 3868W        W20715  11.523   1.455  10.196  0.1153  0.0004  0.2602
 3869W        W20716   4.591   4.587  12.883 -0.2820  0.0141 -0.2013
 3870W        W20717  18.232   4.613   1.608 -0.0518  0.0455 -0.0093
 3871W        W20718  18.371   8.887   0.718  0.0181  0.2469  0.1241
 3872W        W20719  16.228   6.338   2.228 -0.0140 -0.0112 -0.2600
 3873W        W20720  18.306   0.884  11.908 -0.1473  0.1996 -0.0254
 3874W        W20721  10.880  14.265  10.826  0.2194  0.2596  0.3736
 3875W        W20722  16.307  15.327   9.071  0.4529 -0.1559  0.0527
 3876W        W20723   7.746   1.735   0.871  0.0311 -0.2542 -0.1471
 3877W        W20724   4.132   0.326   3.844 -0.0809  0.2013 -0.0759
 3878W        W20725  12.895  18.320   3.839 -0.2053 -0.1560  0.0282
 3879W        W20726  16.374  17.521   3.948 -0.3350 -0.0705  0.1197
 3880W        W20727  16.244  12.920  11.235 -0.1503 -0.3190  0.0906
 3881W        W20728  13.665   2.582   1.024 -0.1625 -0.1472 -0.0160
 3882W        W20729  19.041   5.092   2.118  0.3623  0.0031 -0.0501
 3883W        W20730  16.861   3.891  10.732 -0.1291 -0.0688  0.0419
 3884W        W20731   3.543  14.368   0.767 -0.3730 -0.2525  0.3161
 3885W        W20732   4.485   1.935  11.511 -0.0506 -0.0646  0.2224
 3886W        W20733   6.158   6.641  10.299 -0.2284  0.3961  0.1397
 3887W        W20734   3.420   4.045   0.693  0.1243  0.0717 -0.0296
 3888W        W20735  17.415   1.186   0.184 -0.2747 -0.2844 -0.3341
 3889W        W20736   0.856  11.701   3.053 -0.0078  0.0552 -0.3317
 3890W        W20737   7.163  10.931   4.346 -0.1462  0.2813 -0.2223
 3891W        W20738  14.184   8.479   4.802  0.0662  0.0676 -0.0216
 3892W        W20739   2.921   0.129  11.129  0.1450 -0.0650 -0.1727
 3893W        W20740  14.947   7.290   0.428 -0.0524  0.2280 -0.2709
 3894W        W20741   5.120   3.068   4.293 -0.1194  0.0328  0.2730
 3895W        W20742  16.548  10.382  14.199 -0.0093 -0.0675 -0.1185
 3896W        W20743  15.951  13.936  12.956 -0.2061 -0.2648 -0.2943
 3897W        W20744   3.608   9.319  14.060 -0.1044  0.0561 -0.2363
 3898W        W20745  13.505  17.384  11.392  0.3393  0.1315 -0.1513
 3899W        W20746  10.781  18.338   1.212  0.2539 -0.1314 -0.0626
 3900W        W20747  14.577   9.421   2.996 -0.0752 -0.1190  0.1022
 3901W        W20748  17.185  11.134  12.702  0.1082  0.0283  0.2327
 3902W        W20749   6.026   8.699  13.341 -0.0625 -0.3332  0.1333
 3903W        W20750   0.475   7.860  12.273 -0.2780  0.1241  0.0682
 3904W        W20751   4.604  11.811   0.725 -0.0024 -0.2382 -0.0693
 3905W        W20752   6.217   1.857  13.107  0.0559 -0.4256 -0.1122
 3906W        W20753   4.789   3.448  11.443 -0.1762 -0.1423 -0.1234
 3907W        W20754   3.092  16.763  11.504 -0.2480 -0.0189  0.0955
 3908W        W20755  14.437  17.104  11.084  0.2240  0.1105 -0.1223
 3909W        W20756  10.713  19.456  13.084  0.0413  0.0938 -0.1063
 3910W        W20757   6.891   3.979   1.807 -0.1629  0.2958 -0.2620
 3911W        W20758   5.497  19.217   2.201  0.3424 -0.2132  0.0788
 3912W        W20759  14.608  14.336   2.702 -0.3094  0.3546 -0.2215
 3913W        W20760  15.163  13.899   1.994  0.0737  0.0233  0.3186
 3914W        W20761   1.783   8.545  13.550  0.0424  0.0625  0.3044
 3915W        W20762   5.392   4.197   5.274 -0.2796  0.4542 -0.2154
 3916W        W20763  14.102   8.337  10.659  0.0927  0.2200  0.1112
 3917W        W20764  17.033   2.050   8.921  0.2461  0.1832  0.1324
 3918W        W20765   7.600   4.388  11.865 -0.1291 -0.0071 -0.2240
 3919W        W20766  19.100   3.392  12.292 -0.1309 -0.3119  0.0994
 3920W        W20767  10.145  14.841   0.500  0.2641  0.3929  0.2463
 3921W        W20768   7.643  12.029   2.991  0.2253 -0.0727 -0.2772
 3922W        W20769  10.823   2.298   3.589 -0.3478 -0.0345 -0.1979
 3923W        W20770   0.359  19.551  10.984 -0.0712 -0.1117  0.0203
 3924W        W20771  10.798   5.161  12.757  0.1694 -0.2123 -0.3341
 3925W        W20772   1.817  16.940   3.145  0.2315 -0.3790 -0.0578
 3926W        W20773   4.419  16.767  11.363  0.0779  0.0331 -0.0659
 3927W        W20774  16.294   5.911   4.375 -0.2777  0.2512 -0.0222
 3928W        W20775   0.283  14.420  12.375 -0.1192 -0.3421  0.0861
 3929W        W20776   4.111  18.782  14.295 -0.1770  0.1736 -0.1767
 3930W        W20777   8.546  10.114   3.635 -0.3200  0.0734  0.0253
 3931W        W20778  17.912  12.722   1.018  0.2701  0.1105 -0.3105
 3932W        W20779  12.020   7.349   1.089 -0.3445  0.1735  0.1149
 3933W        W20780   8.086  12.552   1.625 -0.0094 -0.1094  0.1076
 3934W        W20781   0.039  17.833   2.271 -0.3257  0.2923  0.0819
 3935W        W20782  12.451   9.243  11.468  0.1676 -0.0704  0.1087
 3936W        W20783   6.842   3.436   0.213  0.0447  0.1604  0.0252
 3937W        W20784  15.119  17.629   4.125  0.1080 -0.0596 -0.0256
 3938W        W20785   2.619   9.007   4.424  0.1199 -0.0281  0.0199
 3939W        W20786  10.019   2.101   4.435  0.2878 -0.0162  0.1144
 3940W        W20787   2.304   8.669  12.503  0.1237  0.2515 -0.1281
 3941W        W20788   8.602  19.005   0.351  0.1165 -0.0768 -0.1487
 3942W        W20789  17.399   6.356   3.402  0.1380 -0.0894 -0.1687
 3943W        W20790   1.370  13.164   3.122 -0.0821  0.1574  0.0535
 3944W        W20791  13.104  17.189  14.157 -0.2142 -0.1335  0.0353
 3945W        W20792   6.414   9.866   2.596 -0.1677 -0.1765 -0.4270
 3946W        W20793  12.669   2.904   4.362 -0.2777 -0.0166 -0.1772
 3947W        W20794   2.902   0.592  10.157 -0.1427  0.3066 -0.0877
 3948W        W20795   3.441   9.214  12.308  0.0837  0.0172 -0.1676
 3949W        W20796   8.421  16.991  11.005  0.0074  0.0142 -0.0835
 3950W        W20797   5.572   1.410  11.896 -0.0386  0.1605 -0.0474
 3951W        W20798  11.962   7.839   4.595  0.0516 -0.1702  0.0244
 3952W        W20799  13.195   7.327   0.114  0.0895  0.0830 -0.2338
 3953W        W20800   7.302   5.358   0.910  0.0353 -0.1223  0.0419
 3954W        W20801   3.072  18.078   0.547 -0.0515  0.2484  0.0491
 3955W        W20802   2.724   0.606  11.387 -0.0968 -0.2861  0.0425
 3956W        W20803   4.908   5.609   0.332 -0.1775  0.4421 -0.2317
 3957W        W20804   6.659  15.724   0.603 -0.0497 -0.2098  0.0512
 3958W        W20805   5.557   4.091  12.086 -0.0640  0.4633  0.1660
 3959W        W20806   4.355   9.196   2.631  0.1701  0.1881  0.1862
 3960W        W20807   4.491   6.764   4.225 -0.6958  0.2661 -0.0184
 3961W        W20808  18.967  13.651  11.189  0.3678  0.0794 -0.0458
 3962W        W20809   7.277   0.958  12.586 -0.0580 -0.0122  0.2655
 3963W        W20810  17.421   7.187  11.060  0.1030 -0.1424  0.0922
 3964W        W20811  13.067  16.910  10.902 -0.2436 -0.0775  0.0485
 3965W        W20812   4.160   6.107  10.336  0.2560  0.0351  0.0913
 3966W        W20813   4.379   1.791   2.749  0.3601 -0.0843 -0.0313
 3967W        W20814  16.436  14.828   5.327 -0.3450 -0.1084 -0.2557
 3968W        W20815  13.873   2.323   1.525  0.3224 -0.0814  0.4556
 3969W        W20816  10.806   5.324   3.144  0.0481 -0.1651  0.0217
 3970W        W20817  16.148   6.953  12.515  0.1176  0.2502  0.1627
 3971W        W20818  14.820  17.350  10.861  0.0327 -0.0108 -0.2601
 3972W        W20819   6.662   8.132   1.679 -0.0604  0.1967 -0.1329
 3973W        W20820   9.667  18.722  10.801 -0.1518  0.1438  0.0808
 3974W        W20821  18.568   0.939   2.750 -0.4771 -0.1853  0.2116
 3975W        W20822  18.051   5.960   2.019 -0.2792  0.1481  0.1295
 3976W        W20823  12.235  18.603   0.214  0.2242 -0.1399  0.1445
 3977W        W20824   7.659  14.248  13.020 -0.1146 -0.0815 -0.1791
 3978W        W20825  13.811   2.351  10.274 -0.0792  0.1761 -0.0673
 3979W        W20826  16.802   8.899   0.824  0.0610  0.2465 -0.1979
 3980W        W20827  13.868   5.866  10.943  0.1659 -0.0077 -0.2844
 3981W        W20828  11.093  10.166   2.827  0.0479 -0.0820  0.0886
 3982W        W20829   3.737  16.315   4.349 -0.2668 -0.4355 -0.0430
 3983W        W20830   4.405  14.060   2.649 -0.0251 -0.2312 -0.4098
 3984W        W20831  13.499   8.999  11.752 -0.0897  0.1014 -0.0894
 3985W        W20832  17.200   8.530   1.575 -0.0773  0.1071 -0.1369
 3986W        W20833  19.146   5.454   5.048 -0.0150 -0.0090 -0.1435
 3987W        W20834   8.973   0.275   2.371  0.3533 -0.1265  0.1003
 3988W        W20835   3.376  18.840   2.856  0.0134 -0.1447 -0.0059
 3989W        W20836  14.910  11.436  10.175  0.0420 -0.0284  0.0655
 3990W        W20837  19.312   8.941  11.774 -0.1171  0.2087  0.2989
 3991W        W20838  16.851   0.974  13.217 -0.3666  0.2546  0.1834
 3992W        W20839  16.489  17.883   3.533  0.2374  0.0172 -0.0418
 3993W        W20840   2.601   5.534  11.712  0.1993 -0.3571 -0.4701
 3994W        W20841   9.342  17.095  10.536 -0.2561 -0.1642 -0.1077
 3995W        W20842  14.491  19.046   2.640  0.0308  0.2980 -0.0974
 3996W        W20843   6.161  18.176   4.958 -0.1751 -0.0576  0.1256
 3997W        W20844  11.518   7.814   0.316  0.3293 -0.1544 -0.1562
 3998W        W20845   0.930   3.566   2.165 -0.3159 -0.2347 -0.0178
 3999W        W20846   4.140   7.534  11.057 -0.0251 -0.0170  0.4071
 4000W        W20847  10.209  10.909   4.044  0.0166 -0.0918 -0.1863
 4001W        W20848  17.690   5.488  11.756 -0.1445 -0.2744 -0.0244
 4002W        W20849   0.273   6.440   3.342  0.3447 -0.1187  0.0601
 4003W        W20850  11.672  10.473   0.188 -0.2231  0.2729  0.2620
 4004W        W20851  15.043  13.611   1.510  0.1809  0.0234  0.0640
 4005W        W20852   2.968   5.474   1.314  0.0965 -0.5399 -0.0539
 4006W        W20853  13.112   9.547   0.363 -0.4401 -0.1336  0.1893
 4007W        W20854  17.760   8.550  14.200 -0.0308 -0.0951 -0.2993
 4008W        W20855   3.126  10.773   0.290 -0.0204  0.1103  0.1178
 4009W        W20856  18.668  13.380   4.498 -0.0357  0.2572  0.0710
 4010W        W20857  14.823  18.294   0.493  0.0458 -0.1477  0.0790
 4011W        W20858  13.335   3.901  13.373  0.2756  0.1210  0.0473
 4012W        W20859   7.969   7.129  12.014 -0.4281 -0.0817  0.5250
 4013W        W20860  19.379   1.882  10.675  0.4389  0.1541  0.3199
 4014W        W20861   3.721  17.557  12.243  0.1253 -0.5504  0.0334
 4015W        W20862  18.440  10.371  11.476  0.1517  0.2225  0.0104
 4016W        W20863   6.914  18.890   0.821  0.1780 -0.0551 -0.0864
 4017W        W20864  17.790  16.350   4.240 -0.0436 -0.1619 -0.0422
 4018W        W20865   7.140   7.897   4.590  0.0876  0.2248  0.1022
 4019W        W20866  17.313  17.330   3.024  0.0724 -0.2750  0.2409
 4020W        W20867  13.071  17.399  10.823 -0.1985  0.1166 -0.4604
 4021W        W20868  16.320   5.864   3.111  0.0561 -0.2120  0.1323
 4022W        W20869  18.987  16.011  12.556  0.2961  0.0767 -0.1114
 4023W        W20870  13.792   2.394   3.753  0.0938 -0.1279  0.2751
 4024W        W20871  17.179   0.180  11.707  0.2361  0.0234 -0.0646
 4025W        W20872   3.816   5.233   3.713 -0.4127 -0.2722 -0.1097
 4026W        W20873  12.339   2.829  13.550 -0.1737  0.1296  0.3421
 4027W        W20874   3.529  11.607   3.359 -0.0119 -0.2346  0.1949
 4028W        W20875   8.204  13.834  14.154 -0.1442 -0.2697  0.3022
 4029W        W20876  15.237   7.658  12.369 -0.0330 -0.5016 -0.0598
 4030W        W20877   3.688   6.761  13.031  0.1309 -0.0652  0.3144
 4031W        W20878   9.165   7.806   4.598 -0.1445 -0.1927  0.2254
 4032W        W20879   8.061   5.065  13.572 -0.0958  0.0411 -0.1037
 4033W        W20880  12.439   5.170   1.669 -0.1306  0.1255  0.0700
 4034W        W20881  15.011  15.229  13.268  0.3973 -0.2641 -0.2156
 4035W        W20882   9.033  13.692   3.403  0.2624  0.0167  0.1734
 4036W        W20883  15.638   9.358  12.496 -0.0491 -0.0965 -0.0602
 4037W        W20884  14.758   5.842   9.300 -0.1541 -0.2675 -0.0220
 4038W        W20885   8.081   8.021   2.108 -0.1556  0.1696  0.0994
 4039W        W20886  15.021  12.015   2.815 -0.0130 -0.1060 -0.0680
 4040W        W20887   1.115  10.480   2.583 -0.1857  0.0512 -0.1383
 4041W        W20888   7.020  16.702  10.346  0.1030 -0.3409  0.1050
 4042W        W20889   0.187  10.153   1.429 -0.1288  0.0831  0.2923
 4043W        W20890   7.062   8.132  10.635 -0.1891 -0.0192 -0.1026
 4044W        W20891  16.154   5.589  11.651 -0.1956 -0.0699  0.0608
 4045W        W20892  12.017  12.922   2.642  0.1433  0.2337 -0.0518
 4046W        W20893   2.751  19.503   2.868  0.1081  0.2215 -0.1007
 4047W        W20894   5.670  16.103  11.581 -0.2611 -0.0758 -0.1303
 4048W        W20895  15.414   5.148   9.160 -0.0577 -0.0437  0.2768
 4049W        W20896  10.249   6.471  12.445  0.1439  0.2224 -0.1881
 4050W        W20897  13.994   5.070   2.320  0.1748  0.1329 -0.0899
 4051W        W20898  19.269  18.253   2.777  0.0546 -0.1305  0.1099
 4052W        W20899   5.138  18.574   3.035  0.1400  0.2393 -0.2764
 4053W        W20900  13.065   1.919   1.523  0.1672  0.2906  0.2438
 4054W        W20901  15.747  11.379  10.689  0.2831  0.0029  0.2127
 4055W        W20902  17.561  19.098  13.294  0.2262  0.1900 -0.1858
 4056W        W20903   3.301   9.143   4.212  0.3518  0.0700  0.0218
 4057W        W20904   6.091   6.802   2.792  0.2516  0.0950  0.2562
 4058W        W20905   7.959   4.743   9.702 -0.2726  0.1354  0.1104
 4059W        W20906   0.950   7.558   0.082 -0.1662 -0.1067  0.1817
 4060W        W20907  11.304   2.036   1.066 -0.0172 -0.0005  0.0078
 4061W        W20908  16.530  17.436   4.663  0.2419  0.0021  0.4100
 4062W        W20909   3.219  15.424  11.416  0.1321 -0.0102  0.2081
 4063W        W20910   2.242   8.498  13.316  0.2693 -0.1350 -0.4105
 4064W        W20911  16.783   4.290   9.614  0.0371  0.2562 -0.0960
 4065W        W20912   8.577  18.045   2.746 -0.0661 -0.0341  0.0178
 4066W        W20913  18.447  17.606  14.187  0.2564  0.2378  0.1859
 4067W        W20914  15.378   5.612   4.855 -0.0764 -0.2280  0.1752
 4068W        W20915  13.657  12.580  13.905 -0.1029  0.0648 -0.0623
 4069W        W20916   6.559  11.552  14.054 -0.0412  0.2722  0.1282
 4070W        W20917   1.698  12.170   3.126 -0.1579 -0.1587  0.0245
 4071W        W20918   3.391  17.468  10.697  0.2561  0.1471 -0.0548
 4072W        W20919   7.633  16.936  13.307 -0.1873 -0.1272 -0.0505
 4073W        W20920  12.843   6.586   3.429  0.4163  0.1774  0.1081
 4074W        W20921  18.128   4.737   9.912  0.3218 -0.0718  0.0364
 4075W        W20922   4.569   6.900   9.863 -0.1050 -0.0343  0.0927
 4076W        W20923  17.560   7.518   3.492  0.2948  0.1991 -0.0046
 4077W        W20924  11.894  13.963   0.179 -0.1211 -0.1451  0.2430
 4078W        W20925   3.247  14.678   2.945  0.2439  0.2197 -0.1653
 4079W        W20926   8.386   2.846  13.586 -0.0632  0.1230  0.4578
 4080W        W20927  15.107   1.361  11.420  0.0830  0.3105  0.0122
 4081W        W20928   0.068  12.584  10.462 -0.1201 -0.0269 -0.0174
 4082W        W20929   6.757   0.373  10.370 -0.2207  0.1031  0.2949
 4083W        W20930   1.818   0.572  11.833 -0.0001 -0.0590  0.1543
 4084W        W20931   1.171  16.550   5.171 -0.1779  0.2357 -0.2557
 4085W        W20932   1.882  12.813   1.356 -0.0347  0.0195 -0.0977
 4086W        W20933   4.711   7.264   0.923  0.1069  0.1977  0.1944
 4087W        W20934   8.496   8.135   2.932  0.0871 -0.3502  0.2410
 4088W        W20935  10.320  19.192   9.675 -0.2063  0.1250  0.1555
 4089W        W20936   7.251   9.103  11.469 -0.1199  0.2526  0.0324
 4090W        W20937   9.391  11.798  12.388 -0.1254 -0.4175  0.2076
 4091W        W20938   6.847   7.476   0.776  0.0634 -0.0597 -0.0095
 4092W        W20939  16.169  17.067   4.190  0.1313 -0.2870  0.3262
 4093W        W20940  16.781  15.752   4.506 -0.3676 -0.0117  0.2060
 4094W        W20941  12.345   4.984  13.326 -0.2821  0.4033 -0.1993
 4095W        W20942  11.563   7.989  13.769 -0.0427  0.3118 -0.0221
 4096W        W20943   2.866   9.849   1.228  0.5141 -0.0795  0.0663
 4097W        W20944  16.825   2.185  11.527 -0.2732 -0.4923 -0.4818
 4098W        W20945   8.615   8.773   3.850  0.1377  0.0013  0.2434
 4099W        W20946  13.000   2.383   2.046  0.0118 -0.0175  0.2641
 4100W        W20947  18.403   5.574  10.473  0.0574  0.0996  0.1653
 4101W        W20948  10.871  12.778  13.433  0.0444 -0.1632 -0.0579
 4102W        W20949  18.108   9.916  14.182 -0.0773 -0.2158  0.0064
 4103W        W20950  14.012   5.806   3.146  0.0133 -0.2651 -0.0946
 4104W        W20951   9.051  11.245  10.974  0.1131 -0.1002  0.3000
 4105W        W20952   3.789  11.714  11.319  0.0582 -0.0998 -0.2369
 4106W        W20953   5.911   0.065  11.650  0.0723  0.0293  0.0993
 4107W        W20954   1.984  18.359  11.223 -0.1297 -0.0613 -0.3816
 4108W        W20955  15.047   2.989  10.551  0.0449  0.4103  0.3733
 4109W        W20956   8.145  16.240  13.776  0.2110 -0.0682 -0.1924
 4110W        W20957  13.396  12.872   1.791  0.0339 -0.0276  0.1048
 4111W        W20958   2.517   1.952  11.995 -0.4016 -0.1123 -0.1741
 4112W        W20959  18.415  15.718   1.683  0.1666  0.1528  0.3573
 4113W        W20960   0.691  13.779  10.605 -0.2758 -0.0101 -0.0869
 4114W        W20961   9.633   1.442   2.489 -0.3364  0.2214  0.2942
 4115W        W20962   5.062   2.146   5.088 -0.1106 -0.2114 -0.0494
 4116W        W20963  18.428   6.218   0.326  0.1054  0.3340 -0.3153
 4117W        W20964   6.868   2.862   2.694  0.0444  0.2031 -0.2291
 4118W        W20965   3.245   0.089   4.478 -0.0606 -0.0922  0.7283
 4119W        W20966   0.901   4.313  10.045  0.1712  0.0132  0.2071
 4120W        W20967   7.474  10.703   3.299  0.5106  0.0045 -0.1549
 4121W        W20968  19.150  14.575   2.844 -0.0710 -0.1898 -0.0598
 4122W        W20969  18.443   2.020   3.255  0.1261 -0.0951 -0.1354
 4123W        W20970  16.960  17.905  10.837 -0.1261 -0.0913 -0.1569
 4124W        W20971  11.475  14.758  10.261 -0.1485  0.1169 -0.2851
 4125W        W20972  19.433  16.622   3.308  0.4375  0.1816  0.0663
 4126W        W20973  12.644  10.564  10.046 -0.0163 -0.1389  0.1342
 4127W        W20974   0.168   9.806   2.042  0.0866 -0.0077 -0.0063
 4128W        W20975   0.821   3.184  10.969  0.2497 -0.2999 -0.1811
 4129W        W20976   6.295   7.605   4.954  0.0986  0.1952 -0.2404
 4130W        W20977  11.851   0.090   2.112 -0.2397 -0.3012 -0.0191
 4131W        W20978   1.990   7.715   0.158  0.1635  0.2297  0.2083
 4132W        W20979   9.044   5.528   4.274 -0.2003 -0.0682 -0.0106
 4133W        W20980   2.210  15.650  11.968 -0.0156  0.0840 -0.3450
 4134W        W20981  14.768   4.367  10.999  0.0576 -0.0880 -0.2438
 4135W        W20982   2.479   1.364  14.282  0.2571 -0.1240 -0.0113
 4136W        W20983  15.566   9.084   1.782  0.2576  0.1166  0.1794
 4137W        W20984  10.106   7.225  10.222 -0.0051 -0.2016 -0.0406
 4138W        W20985  13.576   9.175   4.051  0.0152  0.0857  0.2228
 4139W        W20986  11.029   9.513   3.319  0.1288  0.2627 -0.1502
 4140W        W20987   9.598   2.656   3.631  0.2758 -0.1982 -0.1526
 4141W        W20988  13.342  10.687   3.013 -0.1605  0.3116  0.2890
 4142W        W20989   0.836  15.256  10.924  0.1547 -0.0943 -0.0965
 4143W        W20990  12.831  14.108  14.248  0.2864  0.2181 -0.2237
 4144W        W20991  17.925   9.066   4.568  0.1741 -0.0716 -0.2449
 4145W        W20992   5.270   5.436  11.723  0.3274  0.2361 -0.0083
 4146W        W20993   5.239   1.821   3.124  0.1636  0.2192  0.1038
 4147W        W20994  17.493  11.035   1.500  0.1363  0.2292  0.4730
 4148W        W20995  18.505  11.141  12.338  0.4804  0.1116  0.0211
 4149W        W20996   5.743   6.599   4.448 -0.1640  0.3156 -0.1143
 4150W        W20997  17.445   5.039  13.664 -0.4242  0.2869 -0.0883
 4151W        W20998   2.936   4.471  13.943 -0.1518 -0.1710 -0.0195
 4152W        W20999   5.858  13.693   3.407  0.1727  0.0637  0.1251
 4153W        W21000  10.730   2.519   0.684 -0.0942 -0.1172 -0.0036
 4154W        W21001  14.910   5.090  11.818 -0.0139 -0.3301  0.0434
 4155W        W21002  14.292   4.989   1.971 -0.3666  0.0165  0.2326
 4156W        W21003  19.867  16.895  11.744  0.2100  0.1437 -0.2020
 4157W        W21004   8.241  15.312  11.696  0.0253  0.1673  0.1699
 4158W        W21005  13.745  15.852   5.438  0.5224 -0.2480  0.1694
 4159W        W21006  15.203  13.913  11.937 -0.2486 -0.1440  0.1105
 4160W        W21007   6.208  15.057   3.645 -0.0551  0.1402 -0.0338
 4161W        W21008  11.869   0.172   4.899  0.0283 -0.0450 -0.3333
 4162W        W21009   2.646  19.768   1.180  0.0644  0.4267  0.1835
 4163W        W21010   8.757   2.665  13.910 -0.1890  0.1511  0.2865
 4164W        W21011  15.885  10.761   0.848  0.1818 -0.0545  0.4494
 4165W        W21012   4.295  12.121  12.652  0.1800 -0.3281  0.1412
 4166W        W21013  15.016  11.828   3.388 -0.0825  0.0786 -0.3357
 4167W        W21014  19.561   3.755   9.950  0.0009 -0.0869 -0.0470
 4168W        W21015  16.110  13.626  10.980  0.2837  0.3192 -0.2355
 4169W        W21016   3.201   8.359  12.303  0.1772  0.0465 -0.0802
 4170W        W21017   7.493   9.968  13.954 -0.1045  0.0067  0.0783
 4171W        W21018   4.509   5.333   2.995  0.4177  0.1249  0.2236
 4172W        W21019  13.370   9.336   2.259  0.1532  0.0645 -0.1241
 4173W        W21020   9.108  10.263   1.356 -0.2312  0.1699  0.2325
 4174W        W21021  14.401  12.898  10.329 -0.1369  0.0268 -0.0289
 4175W        W21022   0.036  14.746   4.163 -0.2021  0.0465 -0.0774
 4176W        W21023   5.891   0.032  12.508 -0.2205  0.3265  0.1962
 4177W        W21024   6.083   6.152   3.683  0.3893 -0.1463 -0.2231
 4178W        W21025  19.389  10.912  13.514 -0.2589 -0.2031 -0.1217
 4179W        W21026   1.269  14.832   0.491 -0.2366 -0.0903 -0.0653
 4180W        W21027  13.044   8.116  11.638 -0.3620 -0.1181  0.0810
 4181W        W21028  11.475   9.538   4.581  0.0667  0.2164  0.1003
 4182W        W21029  15.251   5.564   2.610 -0.2147 -0.1941  0.3543
 4183W        W21030   2.032  15.355  12.724 -0.0201 -0.0241  0.0727
 4184W        W21031  13.000  12.192   4.771 -0.3171  0.1957  0.0208
 4185W        W21032   6.652   9.724   3.838 -0.1530  0.2727 -0.3438
 4186W        W21033  13.081   6.571  13.395  0.3514 -0.0965  0.0021
 4187W        W21034   3.534  18.481  14.146 -0.3503 -0.0995 -0.0592
 4188W        W21035   5.164   1.884  11.069 -0.2085  0.0007  0.3404
 4189W        W21036   6.205   8.682   1.823 -0.3420  0.0085 -0.0072
 4190W        W21037  17.406  14.177  13.375  0.0128 -0.2330 -0.3145
 4191W        W21038  17.091  18.847  13.210 -0.2063  0.1580 -0.2693
 4192W        W21039   1.930   4.858  11.612  0.1727  0.1623 -0.0715
 4193W        W21040  17.121   1.907  13.369  0.0872 -0.0175 -0.2638
 4194W        W21041  13.929   2.406   0.627 -0.0016  0.1919  0.0535
 4195W        W21042  19.603  17.997   4.600 -0.1105 -0.1342 -0.1370
 4196W        W21043   0.139   0.801   1.556 -0.0753 -0.0397  0.2957
 4197W        W21044   2.793   6.940   0.257  0.0373 -0.2626  0.2493
 4198W        W21045   8.824   5.559  13.035 -0.1221  0.0822 -0.1736
 4199W        W21046   6.627  12.181  13.164  0.0254 -0.1336  0.2273
 4200W        W21047  15.805  15.207  13.909  0.0776  0.0954 -0.0636
 4201W        W21048   3.441  15.990   4.611 -0.2283 -0.0370  0.0721
 4202W        W21049   3.767  14.077  12.683  0.1135  0.3392 -0.1465
 4203W        W21050   7.907   1.476   4.875  0.3174 -0.0217  0.2386
 4204W        W21051  11.225   9.797  13.930  0.0646 -0.0576 -0.0085
 4205W        W21052  10.130  11.127   2.453 -0.0142  0.0518  0.1075
 4206W        W21053   4.464   1.477  13.709  0.0996  0.2392  0.0757
 4207W        W21054  15.103  15.272  14.242  0.0440 -0.0364 -0.2070
 4208W        W21055   2.109   3.287  13.677 -0.0599  0.2696 -0.4670
 4209W        W21056   4.805   1.453   2.569  0.0196 -0.0841 -0.0687
 4210W        W21057   5.488  11.417  12.527  0.0662 -0.1620 -0.1597
 4211W        W21058  19.249  14.708   0.886  0.1853 -0.0296  0.1086
 4212W        W21059  11.166   4.792  13.621  0.1365 -0.3178 -0.0227
 4213W        W21060   4.488  17.978  10.348 -0.0843  0.0131  0.2355
 4214W        W21061  10.992   6.351   2.430 -0.0054  0.3609 -0.0503
 4215W        W21062  19.725  11.518   4.636  0.0756  0.1031 -0.1445
 4216W        W21063   6.918   0.240  12.493  0.1343 -0.2301  0.0998
 4217W        W21064  17.762  19.660   4.149  0.0438  0.0253  0.1425
 4218W        W21065   3.256   2.441  10.165  0.4343  0.0849 -0.1085
 4219W        W21066   9.775   7.624   0.523 -0.0989  0.1853 -0.1984
 4220W        W21067   5.412  16.633  11.416  0.3390 -0.0133 -0.1422
 4221W        W21068  18.733  14.440   2.226  0.1120  0.1838 -0.0987
 4222W        W21069   1.168  10.920   4.276 -0.2136 -0.1220 -0.2107
 4223W        W21070  11.330   5.827  11.504 -0.1225  0.2372 -0.2717
 4224W        W21071  17.798  16.688   1.028  0.0385  0.3111 -0.1414
 4225W        W21072  19.886  14.347  13.176 -0.1564  0.0331 -0.1314
 4226W        W21073  18.481   3.634  12.298  0.0524 -0.0578  0.2940
 4227W        W21074  17.373   3.634  11.305 -0.2318  0.3483 -0.3239
 4228W        W21075   8.185  18.122   2.398 -0.1253 -0.0128 -0.3458
 4229W        W21076  15.068   6.175   3.693 -0.0666  0.0898  0.4377
 4230W        W21077   3.857   5.223  13.223 -0.2012 -0.0999  0.2961
 4231W        W21078   6.028   2.354  10.200 -0.0893 -0.1002  0.0234
 4232W        W21079   0.161  16.656   3.149 -0.4922 -0.1677  0.0718
 4233W        W21080  18.173   3.445  14.250 -0.0169 -0.0728 -0.2204
 4234W        W21081  14.621  12.332   2.743 -0.0987 -0.0899 -0.0124
 4235W        W21082   8.657  15.624  11.953  0.1806  0.4199  0.3874
 4236W        W21083  16.880   2.291   1.545 -0.2668 -0.0554 -0.3377
 4237W        W21084   3.139  16.224  11.231 -0.5303 -0.1865 -0.0891
 4238W        W21085  10.248  17.439   0.169 -0.0218 -0.1243 -0.2624
 4239W        W21086  19.540  13.048   4.249 -0.0801  0.3787  0.2224
 4240W        W21087   3.123   7.136  10.702 -0.0982  0.2436 -0.0920
 4241W        W21088   8.965  12.214   9.407 -0.1064  0.4644 -0.5331
 4242W        W21089   7.359  10.960   3.904 -0.3221  0.1094  0.0218
 4243W        W21090  11.819  16.182   0.748 -0.1010  0.2634  0.1615
 4244W        W21091   8.514  14.323  10.671 -0.1224 -0.1027  0.0179
 4245W        W21092  15.152   1.182   3.621 -0.1743  0.2110  0.2616
 4246W        W21093   0.025  12.894  12.354  0.1288  0.0378  0.2743
 4247W        W21094   6.225  17.841   3.166 -0.0494 -0.2790 -0.0312
 4248W        W21095  18.168  15.284   0.729  0.2834 -0.1232  0.0208
 4249W        W21096   9.145  16.652   1.869 -0.1475 -0.1533 -0.1581
 4250W        W21097   0.851   9.758   0.830  0.0980 -0.3839 -0.1870
 4251W        W21098  19.131  11.543   0.960 -0.1255  0.0930 -0.1423
 4252W        W21099   9.051  13.039  14.051  0.0568  0.1614 -0.0768
 4253W        W21100   4.401   7.074  11.865  0.2477  0.1564  0.4609
 4254W        W21101   6.594  17.141   3.310 -0.2954  0.0594 -0.1306
 4255W        W21102  16.808  19.705  13.492 -0.0052  0.2396  0.1779
 4256W        W21103  14.145  10.488  14.217 -0.0745 -0.0597 -0.0083
 4257W        W21104   4.635   1.882  13.423  0.2112 -0.1429  0.0572
 4258W        W21105   6.591   9.925   4.855  0.0909  0.0779 -0.1600
 4259W        W21106  14.955   3.019   0.309 -0.0382 -0.2704  0.2806
 4260W        W21107   7.611   4.720  12.737 -0.0124 -0.1698 -0.0393
 4261W        W21108  10.161  19.003   1.712  0.1224 -0.0273 -0.0758
 4262W        W21109   5.010   7.241  12.612 -0.0146 -0.0352  0.2012
 4263W        W21110  10.252   7.686   0.594  0.1863 -0.0013 -0.0222
 4264W        W21111   3.514  17.426  11.600  0.0480 -0.5171  0.1428
 4265W        W21112  11.295  13.160   3.184 -0.2776  0.0473 -0.2051
 4266W        W21113  18.843  12.996  14.187  0.1974  0.2612 -0.1261
 4267W        W21114  16.172  18.373   2.067  0.4425 -0.0527  0.2625
 4268W        W21115  13.945   7.442   0.843 -0.0290  0.0537 -0.0386
 4269W        W21116   6.173  17.405   9.396 -0.0404  0.1594  0.1705
 4270W        W21117  13.733   5.442  11.162 -0.1312  0.0281 -0.0532
 4271W        W21118  15.909   9.815   0.617  0.0449  0.2439  0.1161
 4272W        W21119   8.172   7.212   3.336 -0.2928 -0.2615  0.1855
 4273W        W21120   5.058  18.745   4.410  0.1372 -0.0273  0.3266
 4274W        W21121  16.288  18.614  10.695 -0.2121 -0.0954 -0.1613
 4275W        W21122  18.184  11.379  10.911 -0.3240 -0.3358  0.0711
 4276W        W21123  19.571  13.252  12.534 -0.2005  0.1501  0.2297
 4277W        W21124   0.055   6.019   1.215  0.0450 -0.0904  0.2383
 4278W        W21125  17.267  15.287  11.395  0.1942 -0.1547 -0.0342
 4279W        W21126   5.264  19.563   4.577 -0.0697 -0.0099  0.2689
 4280W        W21127   7.858   8.257  13.663  0.1810 -0.2163 -0.1422
 4281W        W21128  17.499   6.772   3.743 -0.2348 -0.3830 -0.1314
 4282W        W21129  11.113   2.492  10.587  0.0311  0.2364 -0.1440
 4283W        W21130   2.560   3.836   1.019 -0.0644  0.0756  0.0823
 4284W        W21131   8.485   7.941  13.195 -0.1294  0.4429 -0.2269
 4285W        W21132   9.090  18.902   4.607  0.0875  0.0601 -0.1607
 4286W        W21133  11.568   8.524   4.078 -0.1638 -0.2742 -0.2089
 4287W        W21134  14.700   1.517   4.876  0.0338 -0.0952 -0.0278
 4288W        W21135  14.006   7.008  14.118  0.2282  0.1486 -0.1398
 4289W        W21136  17.664  13.658   4.274 -0.0561 -0.2499  0.5071
 4290W        W21137   2.616  17.441  12.092 -0.0460 -0.1550  0.1788
 4291W        W21138   9.618  12.644   1.576  0.1020  0.0492  0.1300
 4292W        W21139   3.759  10.522  14.244  0.0503  0.1162  0.2471
 4293W        W21140  10.762  15.274   4.415 -0.0227  0.0012 -0.0709
 4294W        W21141  17.458   7.099  11.668  0.0015  0.2592 -0.0656
 4295W        W21142  13.969  16.443  10.965 -0.2038 -0.1664  0.0039
 4296W        W21143   9.060  15.585   2.722 -0.0074  0.1256 -0.0391
 4297W        W21144  14.196  14.796   1.491 -0.0821 -0.0139 -0.0866
 4298W        W21145  11.845  15.716  11.103 -0.2578 -0.1333 -0.2969
 4299W        W21146  15.021  13.258  11.958 -0.0082 -0.0298 -0.0945
 4300W        W21147  11.733  13.479   4.891  0.2377  0.1564  0.4225
 4301W        W21148  14.137  14.305   1.318 -0.2392  0.1789  0.2599
 4302W        W21149  10.385  14.567   9.965  0.0419 -0.0742  0.0790
 4303W        W21150  18.500   6.089   2.776  0.0459  0.0699 -0.1056
 4304W        W21151   5.344   5.557  10.430 -0.1000  0.2646 -0.2372
 4305W        W21152  17.315   8.011  10.493  0.3936 -0.3350  0.2790
 4306W        W21153   6.045  11.930   0.894  0.1896 -0.4156 -0.2069
 4307W        W21154  17.737   9.809  11.364  0.0519 -0.4283  0.0427
 4308W        W21155   8.281   8.274  12.538 -0.0443 -0.1335 -0.1886
 4309W        W21156  11.933  17.381   4.553  0.5397 -0.1271 -0.0482
 4310W        W21157  18.426  16.728   3.479 -0.3159  0.0538  0.0041
 4311W        W21158   8.929  15.807   2.309  0.1038  0.5402  0.0311
 4312W        W21159   3.619  10.229   3.223  0.1869  0.1378  0.1492
 4313W        W21160   6.221   5.014  12.622  0.1992 -0.4476  0.2728
 4314W        W21161   4.595  10.412   1.347  0.2856 -0.0689  0.4985
 4315W        W21162  12.927   1.880  12.940  0.1163 -0.0455  0.0521
 4316W        W21163  13.784  10.594  11.225  0.2098  0.2208  0.0736
 4317W        W21164   9.900  15.741   3.723  0.0709 -0.2691  0.1744
 4318W        W21165  13.661   8.581   3.558 -0.0439  0.0074  0.4190
 4319W        W21166   4.933  17.463   3.908  0.1427  0.0519 -0.0091
 4320W        W21167   7.507   1.306  14.245 -0.2097  0.1369 -0.1386
 4321W        W21168   2.608   0.265   5.211  0.1245  0.0525  0.1564
 4322W        W21169   0.118   0.976   3.373  0.0412 -0.1881 -0.1867
 4323W        W21170   7.718  19.137   4.417 -0.3164 -0.0542  0.1591
 4324W        W21171   3.853  12.833  12.580 -0.0245 -0.2194  0.2009
 4325W        W21172  10.115  18.572  11.583  0.0583 -0.0224 -0.2065
 4326W        W21173   5.937   2.544   2.838  0.2946 -0.0268 -0.0572
 4327W        W21174   1.250   5.706  10.066  0.3298  0.0392 -0.0055
 4328W        W21175  13.040  18.813  12.112 -0.1725  0.2083  0.0530
 4329W        W21176   3.594   1.819  10.490 -0.0545 -0.1598 -0.2623
 4330W        W21177   0.242  11.894  11.035  0.0318  0.2861  0.2361
 4331W        W21178  15.678   9.659  10.577  0.1348 -0.2452  0.1446
 4332W        W21179  10.111   9.607  11.218 -0.2835 -0.1662  0.0702
 4333W        W21180   9.934  10.188   9.944 -0.3265  0.0473 -0.1429
 4334W        W21181   1.810  17.152   2.145  0.1465 -0.0331  0.0029
 4335W        W21182  17.980  19.317   4.497  0.1476 -0.0982 -0.1596
 4336W        W21183   7.990   1.321  11.029 -0.0719 -0.2111  0.1116
 4337W        W21184  16.398   0.296  12.175 -0.0400 -0.4047  0.2126
 4338W        W21185   5.898  10.424   4.453  0.1408  0.0330 -0.1077
 4339W        W21186   3.833   4.144  12.331 -0.2206 -0.0027  0.0900
 4340W        W21187  11.566   9.045  11.265  0.0063  0.3086  0.0628
 4341W        W21188  19.725   0.547  10.559  0.1335 -0.0336 -0.1356
 4342W        W21189  14.086  11.048  11.092 -0.0717 -0.2067 -0.0387
 4343W        W21190  19.429  19.485   1.079  0.0645 -0.0170 -0.0280
 4344W        W21191  12.646  11.373   3.546  0.2533  0.1155  0.1470
 4345W        W21192  11.838  17.828   1.377 -0.0559  0.0586  0.1409
 4346W        W21193  18.290  14.142   9.241  0.0087  0.2455  0.0534
 4347W        W21194   1.084  17.380   1.524 -0.1329 -0.2662  0.4200
 4348W        W21195   3.382   4.981  12.451  0.1579 -0.0846 -0.0069
 4349W        W21196   8.216   7.634   2.500 -0.4481  0.1715 -0.2187
 4350W        W21197  12.349  15.280  11.427  0.3357  0.0684  0.0981
 4351W        W21198  14.379   0.052   0.058 -0.0703  0.0337 -0.1143
 4352W        W21199  15.452  19.324   3.989  0.1430  0.0550 -0.1699
 4353W        W21200   2.668   2.182   2.159  0.0182  0.0396  0.1164
 4354W        W21201  15.604   1.040  11.805 -0.1502 -0.2383 -0.0289
 4355W        W21202   9.699   1.977   1.731 -0.2502 -0.0107  0.4511
 4356W        W21203   7.933  14.108   4.862 -0.3810 -0.1186  0.3075
 4357W        W21204  11.186   1.843  13.792  0.0538  0.3814 -0.1655
 4358W        W21205  18.990  17.383  12.026  0.0862 -0.1611 -0.0746
 4359W        W21206  19.672  15.945  11.798 -0.0166  0.3295 -0.3018
 4360W        W21207  11.349   6.573   2.192 -0.2273 -0.3369  0.2170
 4361W        W21208  12.061   8.006   1.737  0.0819  0.0965 -0.2633
 4362W        W21209  10.379  11.338   1.655  0.3085  0.1942  0.0910
 4363W        W21210   1.592  14.447   0.718 -0.0602  0.2001  0.2685
 4364W        W21211  18.109   3.797   0.440  0.0684 -0.2142  0.2462
 4365W        W21212  16.361   8.756   0.640  0.2679  0.2784  0.0684
 4366W        W21213  11.297   0.971   9.828  0.0079  0.0289 -0.0553
 4367W        W21214  15.291   0.212   2.258  0.2942 -0.2646  0.3741
 4368W        W21215   8.363  12.553   5.242 -0.2214 -0.1089  0.0735
 4369W        W21216   7.737  17.337  10.683  0.3156  0.0941  0.0327
 4370W        W21217  18.961   3.937   0.607  0.2066 -0.1259 -0.1012
 4371W        W21218   1.536  14.128   3.612 -0.1212 -0.0482  0.0822
 4372W        W21219  14.795  11.705  13.771 -0.0310  0.1941  0.1223
 4373W        W21220   5.884   4.087   1.756 -0.1039 -0.0024  0.1322
 4374W        W21221   3.271   7.121  10.043  0.2174 -0.1192 -0.0044
 4375W        W21222   0.500   3.754  13.903  0.2546 -0.1490 -0.2000
 4376W        W21223   9.588   8.407  13.782  0.0012  0.3296  0.0345
 4377W        W21224  14.518   9.451  12.949  0.0692 -0.0146  0.1063
 4378W        W21225   3.766   4.365  14.151  0.2636 -0.0967 -0.2223
 4379W        W21226  12.192   4.033   2.144 -0.1173 -0.0354  0.3220
 4380W        W21227  19.543  15.061   4.252  0.3914 -0.0195  0.0246
 4381W        W21228  17.001  11.239   1.676  0.2119 -0.0850  0.0185
 4382W        W21229   2.911   1.306  10.952 -0.1784  0.0796 -0.0019
 4383W        W21230  12.846  19.443  14.149 -0.1513 -0.1257  0.2285
 4384W        W21231  17.347   1.563   3.981 -0.0749  0.1483 -0.0050
 4385W        W21232  13.805   0.336  13.699 -0.2737  0.0199 -0.2347
 4386W        W21233  13.050  16.142  10.789 -0.2507 -0.1673 -0.1199
 4387W        W21234   6.778  18.567  11.338  0.0393 -0.2070 -0.3037
 4388W        W21235  15.531  16.484   4.454  0.0903  0.3075  0.1499
 4389W        W21236   2.080  13.551   2.577 -0.0966  0.1207  0.3520
 4390W        W21237  18.922  18.822   0.785 -0.0175 -0.1249 -0.2879
 4391W        W21238   6.867  18.847  11.797 -0.0270  0.2662 -0.1482
 4392W        W21239  18.866  18.435   1.468 -0.1334 -0.0235 -0.0718
 4393W        W21240  17.267  10.512  10.183 -0.2697 -0.1058  0.3042
 4394W        W21241  12.038   4.795  12.166  0.0604  0.0506 -0.1771
 4395W        W21242  11.197   9.292  10.732  0.1402 -0.1941  0.2738
 4396W        W21243   7.633  12.439  11.119 -0.0212 -0.0480  0.3897
 4397W        W21244  19.295  11.734   3.295 -0.1995 -0.0388  0.1555
 4398W        W21245  15.294  14.700  11.809  0.0943 -0.0325 -0.0022
 4399W        W21246  17.872   9.214  13.410 -0.0276 -0.0859 -0.2387
 4400W        W21247   7.153  17.653  13.190  0.0943 -0.0058 -0.1923
 4401W        W21248  15.097  17.249   3.346 -0.3854  0.0537  0.3545
 4402W        W21249  14.332   9.795  10.296 -0.1307 -0.3553  0.0355
 4403W        W21250   5.129   8.438  13.415 -0.1515  0.0287  0.0382
 4404W        W21251   5.248   4.108   2.740 -0.1805 -0.0992 -0.2713
 4405W        W21252   7.377   3.665  10.148 -0.0437 -0.3156 -0.0690
 4406W        W21253   8.584   0.653   2.352 -0.2189  0.1092  0.1853
 4407W        W21254   4.686  12.245   3.161 -0.2027  0.0177  0.3786
 4408W        W21255  15.074   2.453  11.197  0.0654 -0.3119  0.1332
 4409W        W21256  16.791  10.816   0.377 -0.0155 -0.2210  0.1494
 4410W        W21257   7.949  12.083  12.963 -0.1033 -0.0372 -0.1793
 4411W        W21258  13.452   2.254   2.819 -0.6798  0.2719 -0.0192
 4412W        W21259  13.672   6.251  12.106  0.0554  0.0473  0.1293
 4413W        W21260  10.265   2.479   4.260  0.2471  0.1045 -0.1760
 4414W        W21261  10.099  15.364   2.435 -0.1773 -0.0964  0.4866
 4415W        W21262   6.852   9.627   1.904  0.3244  0.1022  0.0107
 4416W        W21263   0.773   2.058  11.851  0.1853 -0.2353  0.3514
 4417W        W21264   1.776   8.208  10.479  0.2119 -0.4282 -0.1455
 4418W        W21265   6.914  10.305  11.692 -0.2923 -0.1597 -0.0184
 4419W        W21266   0.305   2.653   5.097 -0.1703  0.0781 -0.4299
 4420W        W21267   2.140  11.649   9.518  0.2418  0.0366 -0.1848
 4421W        W21268  13.637   1.567   1.795 -0.1007 -0.0553 -0.2671
 4422W        W21269   4.675   6.730  11.599 -0.2738  0.1395  0.2820
 4423W        W21270  12.904  14.471   4.236 -0.1803  0.0225 -0.1491
 4424W        W21271   4.800  15.669   1.787  0.0133  0.0653 -0.3119
 4425W        W21272   1.864  19.863   0.659  0.1084  0.1337 -0.0614
 4426W        W21273   3.824   0.449  14.082 -0.1172 -0.4603 -0.1586
 4427W        W21274  14.486  14.439  13.572  0.1753  0.3401  0.0927
 4428W        W21275  15.702   1.061  13.572  0.1447  0.0354 -0.2824
 4429W        W21276   9.572  13.988   0.196 -0.1785  0.1313 -0.1697
 4430W        W21277   5.922  12.921  12.996  0.0895  0.0944  0.0700
 4431W        W21278  12.739  18.566   0.128  0.0856  0.2769 -0.1490
 4432W        W21279   9.151   4.483  10.714  0.4267 -0.2464  0.1460
 4433W        W21280   4.992  15.026  11.890  0.0670 -0.0580 -0.0219
 4434W        W21281  18.321  18.220   2.220  0.0323 -0.1104  0.0001
 4435W        W21282   4.882  14.110   2.409 -0.1682  0.0170 -0.0070
 4436W        W21283   6.141  11.999   2.161  0.0960 -0.0909 -0.1338
 4437W        W21284  13.218   5.396  11.288 -0.1071  0.1953 -0.2193
 4438W        W21285  16.319   6.539  12.739 -0.3257  0.1872  0.1147
 4439W        W21286   2.494  18.369   3.411 -0.3667 -0.1431 -0.0950
 4440W        W21287   5.713  16.837   1.684  0.1513 -0.1548  0.2091
 4441W        W21288   7.614   8.419   9.797 -0.1398 -0.2912  0.2624
 4442W        W21289  10.203  15.883   2.702 -0.0722 -0.1099  0.4581
 4443W        W21290  13.828   9.617   3.495  0.1101 -0.0397  0.0162
 4444W        W21291  14.059   6.807   2.659  0.1236 -0.1405 -0.1135
 4445W        W21292  15.555  11.923   9.637  0.0135  0.0889  0.0903
 4446W        W21293   5.061  12.409  12.358  0.1437 -0.3550  0.0953
 4447W        W21294  18.243   3.933  12.020 -0.2747  0.0581 -0.2317
 4448W        W21295  15.884  13.864   5.040 -0.0040  0.0302  0.1443
 4449W        W21296  13.701   8.546   2.986  0.2005  0.1258  0.1967
 4450W        W21297  12.057  15.924   3.574  0.0849 -0.3084 -0.0271
 4451W        W21298  16.016   2.223   3.090  0.2086  0.3602  0.0705
 4452W        W21299  18.443  16.782   2.337  0.1236 -0.1363 -0.2658
 4453W        W21300  17.023   5.598  14.116  0.3922  0.1024  0.3433
 4454W        W21301   3.453  13.600   2.129 -0.1505  0.0136 -0.2748
 4455W        W21302   8.995   6.612  12.645  0.1381  0.2433 -0.2161
 4456W        W21303   5.008  11.999   2.374 -0.1048 -0.1582  0.1142
 4457W        W21304   1.032   0.920   0.920 -0.1864  0.2544 -0.1264
 4458W        W21305   8.858  13.848   4.055  0.0560 -0.1144  0.3071
 4459W        W21306   4.189  18.467   3.688  0.1232 -0.0927  0.1283
 4460W        W21307  14.918  19.729  12.250 -0.5184 -0.1506 -0.3597
 4461W        W21308  11.506  17.879   5.574 -0.1595  0.0168 -0.2569
 4462W        W21309   4.941   8.655  13.020  0.1671 -0.2930 -0.1914
 4463W        W21310  10.554   1.230   3.375  0.0973 -0.2618 -0.1230
 4464W        W21311   9.175   0.439   3.503 -0.1227  0.0745 -0.2001
 4465W        W21312   5.478   4.633  12.053  0.0951 -0.4720 -0.2208
 4466W        W21313   6.592   9.897  13.511  0.1121  0.0739 -0.1132
 4467W        W21314   0.668  19.826  10.704 -0.0628  0.0162  0.0858
 4468W        W21315   0.525  12.605  13.549 -0.1076 -0.0097  0.0496
 4469W        W21316  11.057  10.812   2.595  0.0070  0.1398 -0.2311
 4470W        W21317  15.813  18.595   0.869  0.5160  0.2119  0.3868
 4471W        W21318   9.762   9.729   8.902  0.1093 -0.0435  0.2030
 4472W        W21319   2.026   2.012  11.241  0.1807 -0.0829  0.0372
 4473W        W21320   3.355   2.187  13.747  0.0789  0.2140  0.1752
 4474W        W21321  11.883  13.552   1.293  0.5294  0.1499 -0.1388
 4475W        W21322  19.227   9.729   4.217  0.2427 -0.0370 -0.1517
 4476W        W21323  11.994   2.131   4.805  0.0812  0.0939  0.2040
 4477W        W21324   1.206  16.219  14.241  0.0601  0.3750 -0.5049
 4478W        W21325  13.998  11.674   0.921  0.1945 -0.0476 -0.2499
 4479W        W21326  11.942  18.401  10.919  0.1590 -0.0154  0.0653
 4480W        W21327  11.759  16.989  11.612 -0.0380  0.1300  0.3002
 4481W        W21328   5.918   2.274  12.058 -0.0480  0.0045  0.1164
 4482W        W21329   8.921  13.177  12.216 -0.0868 -0.1355  0.2419
 4483W        W21330  10.345  13.614   2.287  0.1220  0.3116  0.0844
 4484W        W21331   2.682  12.756  13.205  0.0836 -0.0166 -0.1105
 4485W        W21332  12.466   0.530   2.680 -0.0492 -0.2915  0.1474
 4486W        W21333  11.298   6.093   2.833  0.1205 -0.1911  0.0169
 4487W        W21334  15.978   4.054  14.287  0.2346  0.2422  0.0430
 4488W        W21335   7.223   0.879   4.695  0.0517 -0.1123  0.1236
 4489W        W21336   8.767  17.309   0.035 -0.0432 -0.1022  0.3105
 4490W        W21337   0.142  18.226   2.794 -0.0300  0.3480  0.1325
 4491W        W21338  17.293  10.963   9.982  0.1116  0.1219  0.0299
 4492W        W21339  11.918  18.780  12.652  0.0409  0.0727 -0.0161
 4493W        W21340   5.539  15.616   4.252  0.2292 -0.3201  0.1108
 4494W        W21341   4.190  15.545  10.608 -0.1955  0.3034  0.0060
 4495W        W21342  10.327   3.946   3.290 -0.2040  0.2875 -0.1288
 4496W        W21343  17.563  15.607  14.360 -0.5390 -0.0295  0.1119
 4497W        W21344  17.948   7.209   1.806 -0.3711 -0.0329 -0.0044
 4498W        W21345   5.317   1.022   1.870 -0.2380  0.0447 -0.1315
 4499W        W21346   4.454   2.847  12.124  0.2034 -0.0394 -0.1735
 4500W        W21347   0.762   0.453  10.794  0.0581  0.2917  0.1062
 4501W        W21348   9.767  13.280  12.225 -0.0830  0.1599 -0.0633
 4502W        W21349   4.311   7.255   3.384 -0.2704  0.3366  0.2441
 4503W        W21350  12.014  18.080  13.718  0.0601  0.0548  0.1551
 4504W        W21351   0.601   0.075  10.125  0.4996 -0.0749  0.0856
 4505W        W21352   5.067  12.368   2.817 -0.2763  0.1447 -0.0088
 4506W        W21353  17.163   3.418   2.340  0.2607  0.4059 -0.3817
 4507W        W21354   5.066  16.687   0.323  0.0651 -0.0747  0.0669
 4508W        W21355  15.392   5.771  12.338  0.1229 -0.1336 -0.1178
 4509W        W21356  16.557   2.493  11.810 -0.3639  0.0095  0.1745
 4510W        W21357   6.191  11.176   1.662 -0.1485 -0.0589  0.1608
 4511W        W21358   4.526   8.892  13.246  0.1025  0.2493  0.1208
 4512W        W21359   7.793  13.101   5.422  0.1380 -0.2641 -0.1979
 4513W        W21360   7.286  18.736  11.376 -0.2914 -0.2431  0.2934
 4514W        W21361  18.713  11.929   1.456  0.2868 -0.1073 -0.0726
 4515W        W21362  16.869  19.292  10.992  0.0484 -0.1241  0.1853
 4516W        W21363  14.601  18.367  13.487  0.0186  0.1098 -0.2435
 4517W        W21364   0.601   8.317   1.080 -0.0035 -0.0169  0.3637
 4518W        W21365   2.068   9.446   3.840 -0.1701  0.0483 -0.1493
 4519W        W21366  11.511   0.487  11.942  0.1139  0.1032  0.0179
 4520W        W21367   5.756  13.808  14.116 -0.2143 -0.0263  0.0338
 4521W        W21368  10.332   5.197   4.446 -0.0221  0.2282  0.0495
 4522W        W21369   9.185  12.893   0.253 -0.0215 -0.1758 -0.1908
 4523W        W21370  11.123  19.478  11.734 -0.0890 -0.0627 -0.1624
 4524W        W21371  12.632   1.133   5.302  0.0877  0.4558 -0.1040
 4525W        W21372  16.999  19.672   3.140  0.0230 -0.0211 -0.2271
 4526W        W21373   0.793   8.736  12.117  0.2567  0.0663  0.0427
 4527W        W21374   6.291   9.509  10.503 -0.0239  0.0956  0.1305
 4528W        W21375  16.444  14.351   3.030 -0.2171  0.0348 -0.0366
 4529W        W21376  12.378  19.167  13.722 -0.1404  0.0531  0.2065
 4530W        W21377   2.227  14.264  12.992 -0.1166 -0.1242 -0.2446
 4531W        W21378   8.965  15.119  13.380 -0.0484 -0.0833  0.0537
 4532W        W21379  18.629  16.502  14.026  0.1541  0.3375 -0.1625
 4533W        W21380  11.648   0.760  10.353  0.1802  0.0690  0.2543
 4534W        W21381   1.038  18.228   3.268 -0.1745  0.1706  0.2926
 4535W        W21382  10.610   5.645   9.846  0.2348  0.0510  0.0332
 4536W        W21383  18.112  18.783  13.821 -0.0105  0.0869 -0.0389
 4537W        W21384  11.623   0.987   4.399  0.2064 -0.0244 -0.4224
 4538W        W21385   5.858  11.339  10.999  0.0457  0.2708 -0.0682
 4539W        W21386   0.684  14.875   1.207 -0.1048  0.2678  0.0111
 4540W        W21387  19.508  16.467  11.993  0.2612  0.0150  0.0786
 4541W        W21388   9.723  11.724  12.772 -0.2326  0.3246  0.1096
 4542W        W21389   7.806   9.934  11.499  0.1621 -0.3309 -0.0430
 4543W        W21390   6.871   1.222   0.933 -0.0264  0.0141 -0.0477
 4544W        W21391   5.396   9.701  11.429 -0.3738 -0.0346  0.4202
 4545W        W21392  13.164  14.218   3.926  0.1400  0.2286  0.0975
 4546W        W21393  12.358   0.362   4.662  0.0585 -0.0486 -0.2103
 4547W        W21394  16.962  16.723   2.140 -0.0310 -0.3683 -0.1527
 4548W        W21395  15.107  17.869  11.234 -0.0808  0.0929 -0.0408
 4549W        W21396  11.399   5.529   3.153  0.0455  0.1656  0.2739
 4550W        W21397   6.862  11.218  13.185  0.2367 -0.1136 -0.1592
 4551W        W21398  10.380   0.500  10.562  0.0940 -0.0312 -0.2689
 4552W        W21399   4.330   1.288  10.574  0.1572 -0.1522  0.0131
 4553W        W21400   3.863  11.794  14.320 -0.1888 -0.1402  0.2042
 4554W        W21401   8.137  18.558   9.869  0.2430 -0.0399  0.2147
 4555W        W21402   9.052  18.661   2.253  0.3239  0.3046  0.1329
 4556W        W21403  11.180   0.529   1.618 -0.1852 -0.1257 -0.2939
 4557W        W21404   2.550  14.641  14.027 -0.1792  0.1638 -0.1149
 4558W        W21405   1.362   6.041  13.682  0.3167 -0.2345 -0.1763
 4559W        W21406   4.660  12.031   1.664 -0.1489 -0.2951 -0.0924
 4560W        W21407  18.288   7.358   4.057  0.1820 -0.0450 -0.0304
 4561W        W21408   8.459  16.312  11.853  0.1331 -0.0376 -0.1176
 4562W        W21409  13.317   8.575   9.634 -0.1142  0.0642 -0.0518
 4563W        W21410   6.763  11.825  11.205  0.1108 -0.1356 -0.0460
 4564W        W21411  15.013   2.096  12.235  0.2225 -0.2289 -0.0063
 4565W        W21412  11.456  11.076  11.141 -0.0369 -0.0898 -0.2031
 4566W        W21413   8.585  18.529   3.152 -0.3141  0.0430 -0.0037
 4567W        W21414   1.899  16.588   4.437  0.2535 -0.0701 -0.2088
 4568W        W21415   0.005   3.986   4.365  0.0369  0.2355  0.2592
 4569W        W21416  15.085   6.396   4.224  0.4706  0.0133 -0.2785
 4570W        W21417  17.237   1.013  14.013  0.1990 -0.2030 -0.0567
 4571W        W21418  12.095   0.399   2.924 -0.0393  0.1062  0.3052
 4572W        W21419  11.668   8.834  12.273 -0.0599  0.1339  0.1809
 4573W        W21420  17.428   2.902   3.008  0.1102  0.3624  0.1507
 4574W        W21421   2.456  12.101   1.304 -0.3939 -0.1295 -0.0641
 4575W        W21422   1.310  14.040  13.360  0.2793  0.0808  0.1548
 4576W        W21423  13.778   3.306   5.265  0.1956  0.2011 -0.2041
 4577W        W21424   2.518   4.251  11.019  0.2972 -0.3158  0.0151
 4578W        W21425  13.996   5.528   4.015 -0.0139  0.2055 -0.0388
 4579W        W21426   9.153  14.709   0.551  0.1905  0.1817  0.1460
 4580W        W21427   5.310   3.892  13.800  0.0536 -0.2441 -0.0178
 4581W        W21428   1.212  19.531  12.099  0.1744 -0.0324 -0.2279
 4582W        W21429  16.525   0.932  10.405 -0.0112 -0.0878 -0.1418
 4583W        W21430  15.570  18.058  10.903 -0.2464 -0.3589 -0.0713
 4584W        W21431  13.665  19.560   1.064 -0.2452  0.0479 -0.1913
 4585W        W21432   8.446   4.326  12.438  0.0406  0.0844 -0.2730
 4586W        W21433   4.372  10.583  14.203  0.0950  0.1115 -0.1911
 4587W        W21434  12.913  14.454  11.556  0.0713  0.0383  0.3814
 4588W        W21435   7.640   9.266   2.683 -0.1045 -0.3299  0.3977
 4589W        W21436  15.995   7.208   4.503 -0.1886  0.1102  0.2093
 4590W        W21437  13.343   9.114  13.128  0.2369 -0.2100  0.0571
 4591W        W21438   6.048  16.747  12.960 -0.1699 -0.1174  0.3823
 4592W        W21439  12.498   8.738  13.574  0.0745 -0.0172 -0.2977
 4593W        W21440  18.183   7.525  14.215 -0.4180  0.2488 -0.0061
 4594W        W21441  10.213  11.645   0.247 -0.1388 -0.2604 -0.2028
 4595W        W21442  16.183  19.861   0.210 -0.1021 -0.0669 -0.1471
 4596W        W21443   7.343  15.156  12.895 -0.0974  0.1722 -0.1346
 4597W        W21444  14.641  10.322   0.072  0.0588  0.1165 -0.1836
 4598W        W21445  13.502  17.952   1.573  0.3721 -0.0835  0.0176
 4599W        W21446   1.324   6.920  12.087  0.3239 -0.5918 -0.1521
 4600W        W21447   8.189   7.759   3.020  0.3401  0.1676  0.0195
 4601W        W21448   1.363   3.464   1.850  0.1269 -0.0441  0.1094
 4602W        W21449   9.751   6.494  12.364  0.0716  0.1627 -0.3652
 4603W        W21450  14.544   3.738   1.560 -0.1350  0.0233 -0.2639
 4604W        W21451   7.639  17.322  13.698 -0.2972  0.3622  0.0382
 4605W        W21452   4.118  17.524  10.370 -0.1055 -0.1743 -0.0718
 4606W        W21453  19.216   6.510   4.299 -0.1616 -0.0838  0.4307
 4607W        W21454   6.619   7.779  12.830  0.1205 -0.0497  0.1055
 4608W        W21455  16.801   1.000  10.819  0.1403 -0.4023 -0.2266
 4609W        W21456  19.150   2.927   1.038 -0.1056  0.0970 -0.0391
 4610W        W21457   2.847   3.607   3.448 -0.1402 -0.1225 -0.1823
 4611W        W21458  18.000   1.994  11.941  0.1083 -0.0898 -0.4650
 4612W        W21459  13.066  11.487   5.208 -0.1243 -0.0518  0.0448
 4613W        W21460   0.510   9.918   3.560 -0.1585  0.1041 -0.3917
 4614W        W21461  11.097  13.704   1.841  0.3313  0.0754  0.5704
 4615W        W21462   7.002   3.566  12.642 -0.1003  0.2191 -0.0734
 4616W        W21463  17.778  15.147  14.226  0.1866 -0.0587  0.0321
 4617W        W21464  17.113  10.724  12.967 -0.1674  0.0277  0.0615
 4618W        W21465   8.344  15.643   3.890 -0.3901  0.1451  0.0157
 4619W        W21466   1.633   8.540   1.401  0.3712  0.1968 -0.0856
 4620W        W21467   0.895   9.915   4.366 -0.1868  0.1491  0.1271
 4621W        W21468  12.975  15.794  13.834  0.0662  0.0314  0.3922
 4622W        W21469  13.383  14.702   1.948  0.2429  0.0464 -0.0851
 4623W        W21470  14.972  15.696   0.148 -0.3262  0.0936 -0.0885
 4624W        W21471   5.920  15.927   1.877  0.0343 -0.0777  0.0520
 4625W        W21472  14.771  17.984  10.007 -0.0418  0.2171 -0.0564
 4626W        W21473  15.446  19.881  12.498 -0.0197 -0.2111 -0.1357
 4627W        W21474   6.253   5.245   2.123 -0.2215  0.3010 -0.0019
 4628W        W21475   1.934  15.033   1.539 -0.1797 -0.2405  0.0827
 4629W        W21476  17.477  14.482  12.571 -0.1206 -0.1926  0.0927
 4630W        W21477   1.488   1.251   9.881  0.2102  0.3224 -0.3741
 4631W        W21478  10.433  10.796   3.185 -0.0324 -0.0445 -0.0062
 4632W        W21479  19.139   7.301   2.459  0.1667 -0.0398 -0.0846
 4633W        W21480  13.382  14.439  13.122 -0.0876  0.2966 -0.1661
 4634W        W21481  18.073   0.567   0.742 -0.2533  0.2639  0.3280
 4635W        W21482   7.061   4.013  12.353 -0.0421  0.1363 -0.0456
 4636W        W21483  10.955  13.380   2.211  0.3566  0.0492 -0.3114
 4637W        W21484   8.615   8.541   2.701  0.0303 -0.1566  0.1116
 4638W        W21485   1.515   8.863  13.068 -0.3200 -0.1586  0.2484
 4639W        W21486   6.479  18.814  12.138 -0.3710 -0.0272  0.1714
 4640W        W21487   3.662   6.828  10.840 -0.1560  0.3207  0.1407
 4641W        W21488  10.237   1.960  13.041  0.0312 -0.1079 -0.1151
 4642W        W21489   7.208  12.526  12.084 -0.2542  0.0145 -0.0806
 4643W        W21490   3.610   1.803   4.916  0.0975  0.2108 -0.1236
 4644W        W21491   4.175   6.659  11.067  0.2149 -0.3783 -0.4044
 4645W        W21492  16.473   2.570   1.523 -0.0692 -0.1435  0.1678
 4646W        W21493  12.387   2.173   2.746 -0.1810 -0.3891  0.0364
 4647W        W21494  15.697   0.846  11.081 -0.1176 -0.2886  0.3813
 4648W        W21495   4.560   6.309  10.699  0.1226  0.1958  0.1328
 4649W        W21496  17.106  13.388   2.958 -0.0759 -0.5408 -0.1764
 4650W        W21497   5.588   0.985   1.361 -0.1332 -0.1989 -0.0676
 4651W        W21498  13.749  12.728   0.678  0.0878  0.1536 -0.0316
 4652W        W21499  11.130  16.841   4.380  0.1090 -0.0161  0.0716
 4653W        W21500   2.958  18.951  11.213  0.3856  0.0397  0.1253
 4654W        W21501  19.325  17.203   1.174 -0.1265 -0.1778  0.0140
 4655W        W21502  19.881   3.051  12.765 -0.3916  0.0571  0.1849
 4656W        W21503  18.030  12.066   3.192 -0.1195 -0.0291 -0.2406
 4657W        W21504   3.900  10.906   9.509  0.4760  0.0616  0.4148
 4658W        W21505  12.039   9.084   2.234 -0.0469 -0.3370 -0.3241
 4659W        W21506  12.291   3.524  10.272 -0.2082 -0.1214 -0.1611
 4660W        W21507  11.740   6.720   4.049 -0.1672 -0.0220 -0.0008
 4661W        W21508  18.539  10.883   2.507  0.1154  0.2104  0.3168
 4662W        W21509  12.137   1.661   3.380  0.0619  0.2180 -0.1568
 4663W        W21510   3.988  16.507  13.955  0.0277  0.1820  0.0192
 4664W        W21511  19.009  17.293  13.281 -0.1936 -0.1272 -0.3494
 4665W        W21512   6.564   8.910  14.108 -0.1576 -0.0976 -0.0340
 4666W        W21513   1.108   1.310  12.032  0.1108  0.1803  0.2582
 4667W        W21514  12.484   8.370  14.035 -0.0994 -0.1654 -0.0008
 4668W        W21515  15.087  13.685   0.544 -0.1649 -0.0729 -0.0450
 4669W        W21516  12.010  15.980   3.067  0.0477  0.0611  0.0616
 4670W        W21517   7.971   8.042  13.251  0.3575 -0.0037  0.0601
 4671W        W21518  12.045   0.022   4.445 -0.0558 -0.0999 -0.0577
 4672W        W21519   6.290  18.937   3.898 -0.0638  0.2368 -0.0414
 4673W        W21520  14.915   5.007   2.716 -0.0251  0.1597 -0.1037
 4674W        W21521   3.146   3.206   9.616 -0.4637  0.1316 -0.0743
 4675W        W21522  15.315  14.960   0.236 -0.3503  0.1816  0.0544
 4676W        W21523  14.866  15.507   2.751 -0.2925 -0.2341  0.1506
 4677W        W21524   0.472  18.348   2.423 -0.1808 -0.1288  0.0432
 4678W        W21525   2.630   9.298   1.072  0.2660  0.0554  0.2388
 4679W        W21526  11.382   7.964   3.269 -0.3304  0.0795  0.0573
 4680W        W21527   2.561   2.127   0.369  0.1216 -0.3647  0.0232
 4681W        W21528  10.614  12.916  12.391  0.1349 -0.0624  0.2092
 4682W        W21529   3.831  18.834   1.032  0.3884  0.1690  0.0794
 4683W        W21530  15.525   2.769   0.567  0.2592 -0.1142 -0.0659
 4684W        W21531  13.820   0.802  13.817 -0.1499  0.4046  0.1784
 4685W        W21532  19.227  16.586   1.833 -0.1926 -0.0227 -0.0511
 4686W        W21533  19.161   9.761   2.021  0.3348  0.2249  0.2214
 4687W        W21534  14.289  18.721  13.713 -0.0255  0.3319  0.3118
 4688W        W21535   7.289   5.839   0.644  0.1070 -0.2172  0.1144
 4689W        W21536  10.024  17.860   0.755 -0.0347 -0.0972 -0.2353
 4690W        W21537  14.245   2.293  10.628  0.2482 -0.2245 -0.1467
 4691W        W21538   9.327   8.017  14.153  0.0406 -0.1938  0.1109
 4692W        W21539  18.290  13.617  10.279  0.2414 -0.1584  0.0691
 4693W        W21540   9.978  11.398   5.262  0.2222  0.1806  0.1478
 4694W        W21541  12.405   5.643   3.793  0.0664 -0.0056 -0.0509
 4695W        W21542   8.271   9.893  11.977 -0.2462 -0.0417  0.1287
 4696W        W21543   3.690   5.065   0.780 -0.1738 -0.0853 -0.0951
 4697W        W21544  14.105   4.278   9.938 -0.2944  0.1264 -0.0220
 4698W        W21545  12.037  19.290  11.944 -0.1682  0.0446  0.0855
 4699W        W21546   0.889   8.426  12.935 -0.0713  0.5526  0.2225
 4700W        W21547   3.606  10.620  13.717  0.3070  0.1092 -0.3204
 4701W        W21548  19.573  18.176   9.635  0.2268 -0.0693 -0.2620
 4702W        W21549   1.188  11.307   2.049 -0.1125 -0.0868 -0.0641
 4703W        W21550  11.739  14.999  11.768  0.0399  0.0522 -0.3526
 4704W        W21551   1.860   3.600  11.587 -0.0102  0.1357 -0.0258
 4705W        W21552   3.603  14.026   2.721 -0.1118  0.0013 -0.0379
 4706W        W21553  12.712   2.815  11.386  0.0467 -0.3072  0.0636
 4707W        W21554  16.147   1.846  12.566 -0.0267  0.0310  0.0880
 4708W        W21555  16.477   2.330   2.338 -0.2225  0.0426  0.0810
 4709W        W21556  17.167  18.278  11.844 -0.0284  0.3013  0.0343
 4710W        W21557   9.798  15.722  13.200  0.1398  0.0374 -0.0691
 4711W        W21558   7.781   1.394   3.218  0.0295 -0.1149  0.0930
 4712W        W21559   4.928   8.191   2.244  0.0336  0.0944  0.0552
 4713W        W21560   4.975  10.416   0.256 -0.0558 -0.0537  0.1158
 4714W        W21561   1.540   3.766  12.803 -0.0409 -0.2693 -0.4099
 4715W        W21562   2.661   1.309  13.547 -0.2634 -0.0357 -0.0779
 4716W        W21563  17.818   4.680   1.968 -0.0543 -0.0892  0.1859
 4717W        W21564   6.594  12.043   0.843 -0.1932  0.2427  0.3478
 4718W        W21565  19.470  12.037  10.447  0.0069 -0.0178 -0.1624
 4719W        W21566   2.497   2.217   4.151 -0.0312  0.1283  0.4502
 4720W        W21567  14.104  15.605   3.074  0.0894  0.1559 -0.0977
 4721W        W21568  13.626  10.138   4.067  0.2095 -0.1864 -0.1312
 4722W        W21569  12.326  19.486   1.639  0.2478  0.3442 -0.1556
 4723W        W21570   1.337   2.731   0.401 -0.3192  0.2369  0.0965
 4724W        W21571  17.527   4.542  12.341  0.1201 -0.0476  0.0875
 4725W        W21572   4.884   8.251   0.562  0.1516 -0.0793 -0.0415
 4726W        W21573   7.721   9.589  12.263 -0.1340  0.0327  0.0287
 4727W        W21574  15.384  17.211  14.070 -0.0407  0.2437  0.3128
 4728W        W21575   1.200  15.847   4.316 -0.2182 -0.2173  0.2982
 4729W        W21576   2.045  18.299   0.753  0.0763  0.0950  0.0252
 4730W        W21577  11.942  12.066   3.136  0.3620 -0.1599 -0.0635
 4731W        W21578   1.697  18.943   3.891 -0.1749 -0.4425  0.2283
 4732W        W21579  14.844   5.395   4.184  0.0438 -0.4088  0.0419
 4733W        W21580   8.391   2.528  11.517 -0.1267 -0.1760 -0.0280
 4734W        W21581  12.784   6.548   2.944 -0.3742 -0.3790 -0.0531
 4735W        W21582  12.699  11.847  11.087  0.0865 -0.2978  0.0203
 4736W        W21583  17.512  18.776   3.159  0.1549  0.1900  0.2461
 4737W        W21584  10.787  18.252   3.636 -0.3700  0.1516 -0.3252
 4738W        W21585  11.196   8.271   3.638  0.2165 -0.1123 -0.0667
 4739W        W21586   3.943   9.470   1.717  0.0847  0.0423 -0.0070
 4740W        W21587  18.662   4.878   2.393  0.2155  0.1774  0.0261
 4741W        W21588  16.286  16.993   4.693  0.0964  0.1634 -0.0383
 4742W        W21589   5.560  16.596   2.523  0.1679  0.0558 -0.1215
 4743W        W21590   8.704  10.437  10.452  0.0656 -0.1742  0.2431
 4744W        W21591  18.949   8.086  11.930  0.0326  0.2305 -0.2049
 4745W        W21592  15.271   5.910   1.054 -0.1950 -0.1016  0.0024
 4746W        W21593   9.119  16.532   4.651  0.1686 -0.3222  0.1425
 4747W        W21594  14.088   2.192  13.866  0.1382  0.0515  0.0354
 4748W        W21595  12.300  16.871   4.753 -0.2347  0.2020  0.2582
 4749W        W21596  18.094   4.547  12.963 -0.1591 -0.0640  0.0995
 4750W        W21597  17.580   3.838   3.301  0.4148 -0.1640 -0.0909
 4751W        W21598   3.576   4.587  10.781  0.2281 -0.0611  0.2012
 4752W        W21599  11.103   6.934   1.832 -0.1244  0.0221  0.0015
 4753W        W21600   5.742   4.536   2.850  0.3239 -0.0901 -0.2276
 4754W        W21601  11.720   1.275   9.725 -0.3923  0.2594 -0.2114
 4755W        W21602   1.591  16.819  13.466 -0.0857 -0.2724 -0.1432
 4756W        W21603  16.840  15.866  10.962 -0.1909 -0.0542  0.4455
 4757W        W21604   8.806  15.843   0.810 -0.2886 -0.3782 -0.1794
 4758W        W21605   8.272   7.721   4.643  0.0543  0.0645 -0.0183
 4759W        W21606   0.429   7.027  11.664 -0.6227  0.0771 -0.1121
 4760W        W21607  17.969   4.181   0.757 -0.1467 -0.0639 -0.0503
 4761W        W21608   8.742   8.082  12.331  0.0134 -0.2458 -0.0522
 4762W        W21609  13.959   0.604   2.391 -0.0952  0.0970  0.0683
 4763W        W21610  16.598  14.010  11.690  0.1768  0.0058 -0.1581
 4764W        W21611   9.760   6.581   2.774 -0.3009  0.0991  0.0854
 4765W        W21612  10.947   5.612  11.234  0.1227  0.5341 -0.0100
 4766W        W21613  16.502  19.002  11.392 -0.0696 -0.0632 -0.1552
 4767W        W21614  17.252  16.363   1.870  0.0090 -0.0904  0.2151
 4768W        W21615  15.787  10.141  13.029 -0.0233  0.0070 -0.1585
 4769W        W21616   4.734   9.576   0.220  0.1414  0.1800  0.1699
 4770W        W21617  14.577  18.877  10.418 -0.1161  0.2327  0.1980
 4771W        W21618  12.787   0.273   0.401 -0.0452  0.1815  0.0376
 4772W        W21619   6.126  14.450   5.019  0.1950 -0.1265  0.2145
 4773W        W21620  14.662   6.831  11.782 -0.0581 -0.1843  0.1692
 4774W        W21621   9.704   4.813  11.265 -0.5059  0.3053 -0.0591
 4775W        W21622   8.737  12.597  10.944  0.2549  0.3039  0.0906
 4776W        W21623  18.374  16.435   9.927  0.1620 -0.2055 -0.2835
 4777W        W21624  12.818   6.820   1.207  0.3195 -0.0154  0.2224
 4778W        W21625  13.736   8.824  10.724  0.0882 -0.3861  0.1283
 4779W        W21626  11.356  17.137   2.408 -0.1906  0.0656 -0.3457
 4780W        W21627  16.287  12.970   0.516  0.1717 -0.1424 -0.0091
 4781W        W21628   1.314  17.849   1.466  0.2806  0.2067 -0.1095
 4782W        W21629   0.908  12.666  12.421  0.0671 -0.0130 -0.0737
 4783W        W21630  14.781  16.153  12.778 -0.2420  0.2403  0.0972
 4784W        W21631   1.748   7.543  13.440 -0.4165  0.1554  0.1754
 4785W        W21632  17.486   9.098   1.611  0.0636 -0.1231  0.1016
 4786W        W21633   8.224  16.641   9.555 -0.2654 -0.1339  0.3819
 4787W        W21634   3.953   0.368  10.554  0.0234 -0.0260 -0.1027
 4788W        W21635   3.660   4.617   5.404 -0.1648 -0.2478  0.2273
 4789W        W21636  18.795  19.791   3.899  0.0025  0.1559 -0.0823
 4790W        W21637   5.953   1.564   4.292 -0.0861  0.0288 -0.0853
 4791W        W21638  10.670  19.823   2.745 -0.1297  0.0273 -0.0683
 4792W        W21639  18.073  13.349  13.120  0.2953  0.1516 -0.1052
 4793W        W21640   8.247  16.055   2.426 -0.1638  0.0694 -0.0319
 4794W        W21641  13.053  12.411  12.296 -0.2002 -0.0582  0.2511
 4795W        W21642  18.233  15.304   2.579 -0.0348 -0.2566 -0.2204
 4796W        W21643   2.596  16.317   5.659  0.0603  0.0653 -0.0841
 4797W        W21644   1.476  19.099  10.867  0.3726  0.4769 -0.1708
 4798W        W21645  18.439   1.114   9.449 -0.1089 -0.2788  0.0032
 4799W        W21646  11.166   0.557  10.228 -0.1798  0.0531  0.0726
 4800W        W21647  15.185  13.214   3.228 -0.0663  0.0251 -0.0861
 4801W        W21648  15.055  12.019  11.415  0.2571  0.0657 -0.2592
 4802W        W21649   0.268  13.500  13.400  0.1735  0.2701 -0.1210
 4803W        W21650  19.781  12.263   9.416 -0.0993 -0.2463  0.0568
 4804W        W21651  19.179   1.534  11.049 -0.3580  0.0590 -0.0699
 4805W        W21652   8.618  19.690  10.642 -0.4082 -0.0016  0.0210
 4806W        W21653  12.406   7.907   0.748  0.1188 -0.0026  0.2219
 4807W        W21654  11.447  11.180  13.012  0.3389  0.0051 -0.1179
 4808W        W21655   6.064  12.765   5.163  0.0284 -0.0135  0.0534
 4809W        W21656   6.445   4.324   3.190  0.1027 -0.0427 -0.0897
 4810W        W21657  16.622  14.910   4.157 -0.3052 -0.0568  0.0375
 4811W        W21658  13.214   2.933  11.387 -0.1745  0.0004 -0.2863
 4812W        W21659   9.651  11.308  10.902  0.1343  0.0490  0.0455
 4813W        W21660  13.449   4.206  11.476 -0.0783 -0.0118  0.0819
 4814W        W21661   7.898   6.129  10.992 -0.0486  0.0916 -0.2710
 4815W        W21662   7.141   1.479   3.927  0.0629  0.0289  0.0605
 4816W        W21663   5.039  12.531  13.735  0.1261 -0.1154 -0.0027
 4817W        W21664  10.482  19.273   1.332  0.5752  0.0384  0.2890
 4818W        W21665   2.517   3.405   5.027 -0.2475  0.2343  0.2023
 4819W        W21666  17.397   7.584  11.427  0.0360 -0.0082 -0.2014
 4820W        W21667  17.931  13.013   3.262 -0.1095 -0.3945  0.0031
 4821W        W21668   8.019  19.412  12.105 -0.1518 -0.1406  0.0564
 4822W        W21669   5.550  15.780  10.581  0.0167  0.0736  0.0076
 4823W        W21670  15.295  11.754  11.014 -0.0873 -0.1750 -0.0148
 4824W        W21671  16.032  18.199  13.171  0.1852 -0.0390  0.0911
 4825W        W21672  16.308   9.953  12.328  0.0658 -0.4028 -0.0014
 4826W        W21673  15.403   3.824  11.667  0.2652  0.1202  0.0192
 4827W        W21674  14.368   7.087  11.039 -0.1610  0.1841 -0.2101
 4828W        W21675  19.598   3.434   2.342 -0.0554  0.0576 -0.0445
 4829W        W21676   6.060   0.028  13.561  0.4007 -0.1195  0.2922
 4830W        W21677   9.271   2.320  13.242  0.0945  0.1610  0.1168
 4831W        W21678   4.508  10.379   3.849  0.1994 -0.0224 -0.0191
 4832W        W21679   4.977   8.547   0.944 -0.0314 -0.2430  0.2600
 4833W        W21680   2.774  10.642   2.713  0.0913  0.0761  0.1503
 4834W        W21681   5.331   8.655  12.190 -0.3459  0.0951  0.3889
 4835W        W21682   1.553   1.276   3.441 -0.1398  0.1769 -0.3617
 4836W        W21683   0.286   1.349   4.735 -0.3284 -0.1098  0.1500
 4837W        W21684  19.400  19.881  11.469 -0.0569  0.0270  0.1164
 4838W        W21685   3.914  11.542  11.831 -0.3560 -0.0025  0.0305
 4839W        W21686  13.476  11.164  12.030 -0.0964 -0.1843  0.0815
 4840W        W21687   4.862  17.452  13.046  0.4782  0.3923 -0.0627
 4841W        W21688  17.768   3.258   2.775  0.0262  0.0708  0.2375
 4842W        W21689  19.873   4.733   4.786 -0.1099 -0.2449  0.2307
 4843W        W21690   8.759   2.939   3.694  0.0859  0.0130  0.0487
 4844W        W21691  16.047   4.116   3.872  0.1531  0.0617 -0.0974
 4845W        W21692   2.111  12.366   2.294 -0.0326  0.1074  0.0869
 4846W        W21693  15.353  13.447   4.333  0.0182 -0.0501  0.4271
 4847W        W21694   3.333  15.422   4.059  0.0432 -0.0863  0.1700
 4848W        W21695   5.487  16.067   0.735  0.0271 -0.2623  0.2106
 4849W        W21696   0.605   2.911   1.283 -0.1254  0.3292 -0.1882
 4850W        W21697   2.411   1.415   3.236  0.0044  0.1854  0.0029
 4851W        W21698  18.077  14.260  11.288 -0.3159  0.1581 -0.1629
 4852W        W21699  13.004   0.501  10.852  0.2254  0.2486 -0.2949
 4853W        W21700   5.473   0.252   0.317 -0.1843 -0.1097 -0.0596
 4854W        W21701   8.884   5.473  13.822 -0.0265 -0.0623 -0.0041
 4855W        W21702   2.921  16.699  10.987 -0.0535  0.2628 -0.1695
 4856W        W21703  13.676  14.024   1.956 -0.2618  0.2027 -0.3512
 4857W        W21704   5.468  10.444   1.832  0.1434  0.2477  0.1978
 4858W        W21705   1.655   0.025  10.522 -0.4493  0.0778 -0.1384
 4859W        W21706   6.103  10.183  13.676  0.2498  0.2010 -0.2825
 4860W        W21707   6.432   4.196   1.801  0.0173 -0.1475  0.1133
 4861W        W21708  16.833  15.566  14.007  0.1340 -0.0839 -0.1082
 4862W        W21709   3.938   5.885  13.977 -0.1470 -0.1662 -0.1205
 4863W        W21710   6.248   3.202  12.669 -0.1370  0.0768 -0.2126
 4864W        W21711  10.014   3.728  12.064 -0.3438  0.1297  0.1143
 4865W        W21712  18.509  16.680  13.168  0.2521  0.0860 -0.2737
 4866W        W21713  10.572   7.126  10.188  0.1040 -0.3315 -0.0244
 4867W        W21714   4.263  10.914   2.221 -0.1589 -0.0633 -0.1074
 4868W        W21715  12.425  12.234  10.831  0.0199 -0.0848  0.0783
 4869W        W21716   3.546  14.630  12.821 -0.1667 -0.0268  0.1742
 4870W        W21717  17.712   6.664  14.037  0.0060  0.3453  0.0382
 4871W        W21718  13.280  10.004   0.085 -0.1884 -0.0069  0.1908
 4872W        W21719   0.169   4.542  10.863 -0.1137 -0.0983  0.1357
 4873W        W21720   1.501   2.755   4.306  0.0357  0.2100  0.1561
 4874W        W21721   7.308   3.885  11.884 -0.0779 -0.1903  0.3791
 4875W        W21722   6.828  16.828   0.291  0.1758  0.1729 -0.0454
 4876W        W21723  12.442  19.006   5.649  0.2499  0.0121  0.1323
 4877W        W21724   3.325   5.444  10.689  0.0913 -0.1206 -0.2411
 4878W        W21725   2.399   5.615  11.294 -0.0334  0.0058  0.2693
 4879W        W21726   8.408  16.388   1.030  0.2447  0.1438 -0.0706
 4880W        W21727  15.650  12.903  11.267  0.0032 -0.1859  0.1802
 4881W        W21728  16.432  12.350   9.646 -0.3021  0.4380 -0.0033
 4882W        W21729   2.478  16.374  13.918 -0.3163 -0.5573  0.1760
 4883W        W21730  17.016   1.544   2.211 -0.1367  0.0977 -0.0985
 4884W        W21731   6.089   5.501   3.491  0.0248  0.0581 -0.3193
 4885W        W21732  11.014  13.405  10.416 -0.1192  0.2336 -0.2256
 4886W        W21733   0.424   5.455   1.781  0.0243  0.2369 -0.2572
 4887W        W21734   6.290  12.838  11.677 -0.7484 -0.4172  0.0259
 4888W        W21735  17.526   6.310   0.126  0.1958  0.2637 -0.0831
 4889W        W21736   4.359  10.651   3.476  0.1962  0.1712  0.4238
 4890W        W21737  11.871   2.990   3.746 -0.0936  0.1677 -0.2271
 4891W        W21738   1.467   2.360  13.362  0.0710 -0.2793  0.0392
 4892W        W21739  12.018  17.906  12.172 -0.0123  0.3597  0.0045
 4893W        W21740   5.380  18.186  11.534 -0.2087  0.1803  0.2059
 4894W        W21741  16.406  14.905   0.758 -0.3858 -0.0028  0.0618
 4895W        W21742   5.089   0.147  11.607 -0.1258  0.0745 -0.0432
 4896W        W21743  14.514   0.624   2.514  0.0064 -0.3778  0.2666
 4897W        W21744   4.502  15.519  12.704  0.2033  0.2759 -0.1388
 4898W        W21745  19.671   1.408   3.727  0.5177  0.0639 -0.0868
 4899W        W21746  18.916   2.060   1.761  0.1007  0.0029 -0.1302
 4900W        W21747  17.788  14.769   9.897  0.2143 -0.2377 -0.0025
 4901W        W21748   4.067   0.753   1.169  0.0889 -0.0744 -0.0183
 4902W        W21749   4.291  13.725   3.034  0.1736 -0.2485 -0.1976
 4903W        W21750   0.489   0.635  12.511  0.3833  0.5101  0.1143
 4904W        W21751  19.507  11.978   0.653  0.0568  0.0877 -0.1591
 4905W        W21752   2.702   7.537   4.831  0.2409 -0.1936 -0.0488
 4906W        W21753   7.868  11.306  11.278  0.0268 -0.0749  0.0048
 4907W        W21754  13.129  18.395  11.670 -0.2170 -0.0320 -0.1746
 4908W        W21755  18.664  13.613  13.647  0.0988  0.1140  0.2435
 4909W        W21756  13.444   4.556   1.726  0.1288  0.0660 -0.0344
 4910W        W21757   6.533  15.201   1.443 -0.3562 -0.0630 -0.1211
 4911W        W21758  18.671   3.466  10.533 -0.2599 -0.0707  0.0703
 4912W        W21759   1.963  19.756  12.748 -0.2646  0.2431 -0.0288
 4913W        W21760   6.504  10.548  10.940 -0.2695 -0.1000  0.3059
 4914W        W21761   3.444   1.910  11.656  0.1423  0.2885  0.2825
 4915W        W21762  14.255   9.814  13.987  0.1122  0.2710  0.0659
 4916W        W21763   5.187   3.240   0.892 -0.2319 -0.0324 -0.1474
 4917W        W21764   8.573  12.552  11.533  0.0436  0.2118  0.3374
 4918W        W21765   9.031  12.378   1.737  0.1566  0.4865  0.4103
 4919W        W21766  18.644   3.793  13.480 -0.0824 -0.1934  0.0409
 4920W        W21767   3.072   4.393  11.527  0.0261 -0.1004  0.1858
 4921W        W21768  14.508   6.478   4.240  0.3534 -0.0057 -0.0625
 4922W        W21769   3.196   2.653   4.832  0.1504 -0.1766  0.1372
 4923W        W21770  11.730   8.536  11.019 -0.0439 -0.0763  0.3142
 4924W        W21771  15.819   9.104   3.419 -0.2066 -0.0008  0.4203
 4925W        W21772  19.234  18.624   1.721 -0.0915  0.0656 -0.5597
 4926W        W21773  11.593   3.613   2.659 -0.0008 -0.1225 -0.2774
 4927W        W21774   8.524  18.410  13.531 -0.1543 -0.1467  0.0356
 4928W        W21775  18.393   5.454   1.969  0.1745 -0.1173  0.3585
 4929W        W21776   6.338  13.842   3.682  0.1052 -0.0768  0.2466
 4930W        W21777  13.342   1.923   1.953  0.2063 -0.0475 -0.2264
 4931W        W21778   0.673  12.392   3.045  0.2447 -0.3752  0.0132
 4932W        W21779  18.954   8.786  14.096  0.2024 -0.0943 -0.0297
 4933W        W21780  11.564  17.230   8.866  0.0003 -0.0804 -0.0137
 4934W        W21781   1.175  11.476  13.226 -0.0716  0.0552  0.2709
 4935W        W21782   4.776   1.936   9.844  0.0552  0.1828 -0.0658
 4936W        W21783  17.280  13.327  13.107  0.0172 -0.1584 -0.2013
 4937W        W21784   7.172   3.239   2.307  0.4868 -0.0792 -0.1807
 4938W        W21785  14.064  15.035   3.739 -0.1736 -0.0507  0.0817
 4939W        W21786   8.835   0.332   1.338 -0.1122  0.0537 -0.0626
 4940W        W21787   3.957  19.697   3.905  0.3383 -0.0769 -0.3605
 4941W        W21788  17.981   7.082  13.327 -0.1854 -0.2673 -0.1104
 4942W        W21789  19.779   9.266  11.757 -0.0281  0.0958  0.3473
 4943W        W21790   1.446  16.143  11.792  0.2000 -0.0961 -0.0773
 4944W        W21791   9.415   3.807  13.262  0.2931  0.3664 -0.3274
 4945W        W21792   0.156  13.004   3.515 -0.1821  0.3665 -0.1377
 4946W        W21793   3.886  13.915   2.087  0.0158  0.4053  0.0258
 4947W        W21794   1.552   6.724  13.116  0.2472  0.1743 -0.2427
 4948W        W21795   9.496  10.134  10.253  0.1464 -0.1508  0.3203
 4949W        W21796   6.639  19.211   2.108 -0.0250 -0.3597  0.1026
 4950W        W21797   9.130   7.304  10.329  0.0741  0.1902  0.0127
 4951W        W21798  14.481  13.573   3.942  0.1984 -0.3620 -0.0443
 4952W        W21799  15.029  16.282  13.246 -0.0011 -0.0286 -0.0843
 4953W        W21800   3.081   9.321  11.945 -0.1002 -0.0981  0.1460
 4954W        W21801   5.187  14.121   3.125  0.2075  0.1348  0.0563
 4955W        W21802  15.703   3.602   1.719  0.2394 -0.0682  0.0051
 4956W        W21803  18.529  13.025   2.320 -0.2512  0.0921 -0.0965
 4957W        W21804   8.780  10.492  11.418 -0.0367 -0.2197 -0.2899
 4958W        W21805   1.843   3.371  14.317  0.0515 -0.0908 -0.0535
 4959W        W21806  12.368  10.817   2.781  0.0176  0.1150 -0.1902
 4960W        W21807  11.191   3.909   2.090  0.1231  0.1967 -0.2044
 4961W        W21808  12.398  11.138   0.655 -0.0139  0.0989  0.3679
 4962W        W21809  11.596   6.899  10.242 -0.0094 -0.1100  0.0273
 4963W        W21810   2.832   8.512   2.947  0.0227  0.0087  0.2370
 4964W        W21811  18.483   0.778  13.345  0.2057 -0.2158 -0.0242
 4965W        W21812   0.434  11.354  10.322 -0.1141 -0.0543  0.0585
 4966W        W21813   3.357  18.934  12.809 -0.1758  0.0056 -0.2359
 4967W        W21814   3.186  14.038   0.494  0.1966  0.2259 -0.3680
 4968W        W21815  10.042   1.776  10.741 -0.1417  0.2157  0.0548
 4969W        W21816   0.071   6.932   5.461 -0.5370 -0.0947 -0.0707
 4970W        W21817   1.325   2.992   4.708 -0.2018 -0.1474  0.4166
 4971W        W21818  13.434   9.921   2.058  0.0986  0.1387  0.1472
 4972W        W21819   1.113  18.638   1.506 -0.0462 -0.1558  0.1635
 4973W        W21820   6.601   5.902   1.204 -0.2111  0.1339  0.2697
 4974W        W21821   2.128   1.054   0.106 -0.0606 -0.0985  0.1490
 4975W        W21822   2.434  10.108  12.279 -0.4144 -0.4705  0.0726
 4976W        W21823   0.049  15.573  11.046 -0.1214 -0.0638  0.3622
 4977W        W21824   0.916  17.519   3.213  0.0631  0.0983  0.4323
 4978W        W21825  12.103   5.378  10.468 -0.1195  0.0653 -0.1347
 4979W        W21826  17.504  10.328  13.052 -0.1347  0.0125  0.0360
 4980W        W21827   6.488   2.031   4.376 -0.3328  0.0369  0.0315
 4981W        W21828  14.610  14.557   3.925  0.2347 -0.3168  0.2115
 4982W        W21829   4.527   6.546  10.261  0.2622  0.0083  0.0856
 4983W        W21830  14.863  18.721  12.832  0.0488  0.2599 -0.2494
 4984W        W21831  11.058   5.724  10.702  0.2783  0.4769 -0.1801
 4985W        W21832  15.668  12.724   2.267  0.2817 -0.0125  0.0704
 4986W        W21833   7.393  16.874   0.265 -0.2695  0.4354 -0.2657
 4987W        W21834   6.722   5.421   2.597 -0.1065 -0.0002 -0.3417
 4988W        W21835  10.699   9.543   0.869  0.0311 -0.1090 -0.3994
 4989W        W21836   9.180   3.839  11.946  0.2260 -0.1922 -0.2722
 4990W        W21837   8.344  10.338   0.088 -0.0761 -0.0404  0.1223
 4991W        W21838  17.477   9.509   2.578  0.2601 -0.3221 -0.2260
 4992W        W21839   4.683   5.435   4.180  0.4517 -0.1203  0.0032
 4993W        W21840  14.339   7.499  10.448  0.0040  0.1871  0.0688
 4994W        W21841   4.947  12.324   0.899 -0.2357  0.1176  0.3443
 4995W        W21842  16.785  12.793  14.358  0.3148 -0.0163  0.1028
 4996W        W21843  12.132  16.295   1.709  0.1443  0.0060  0.4765
 4997W        W21844  13.202   1.467  12.861  0.0420 -0.0077  0.1332
 4998W        W21845  10.427  19.162  13.470  0.1254  0.1615  0.3534
 4999W        W21846  15.941   0.053   3.216  0.0785  0.1732  0.5029
 5000W        W21847  15.927   5.905   2.669 -0.2147  0.0379 -0.0804
 5001W        W21848   3.299   3.173  10.751  0.1716 -0.0674  0.2983
 5002W        W21849   5.454  18.519   0.623 -0.1077 -0.0403 -0.2314
 5003W        W21850  10.969   0.045   9.326 -0.0178  0.1874  0.1803
 5004W        W21851   3.788   4.499   0.983  0.0514  0.1738 -0.0929
 5005W        W21852   9.655  19.867   3.477  0.0925  0.1604 -0.0537
 5006W        W21853   8.553   1.433  10.984 -0.2384 -0.2984 -0.3720
 5007W        W21854   2.676  15.389  13.909  0.0387 -0.1210 -0.3720
 5008W        W21855  17.627   5.345   0.692 -0.1167 -0.3190 -0.1666
 5009W        W21856  16.306   0.874   1.202 -0.1513  0.2457 -0.1428
 5010W        W21857  16.343  19.707  12.006 -0.0475 -0.1347  0.1433
 5011W        W21858   2.972   9.604   2.716  0.0914 -0.1765 -0.0389
 5012W        W21859  10.139   9.794  11.996 -0.5033 -0.4274 -0.1047
 5013W        W21860   7.993   2.874   2.873  0.1858  0.0798 -0.0196
 5014W        W21861  10.460  19.470   2.388 -0.0088 -0.0881 -0.2368
 5015W        W21862  15.141  12.239   9.445  0.2207  0.1990 -0.2853
 5016W        W21863  13.452  13.774   4.097  0.2836 -0.1200  0.3381
 5017W        W21864  18.596  11.233   4.730 -0.2180  0.4089  0.1274
 5018W        W21865  11.653  16.807   1.150  0.2923  0.1865  0.1210
 5019W        W21866  18.738   0.988  11.002  0.3046  0.2614 -0.1688
 5020W        W21867  18.122   8.419  10.961  0.2101 -0.0260 -0.1063
 5021W        W21868  13.873   6.068  13.347  0.0631 -0.0531 -0.2665
 5022W        W21869  16.956  11.255  13.604  0.0787 -0.0127 -0.1545
 5023W        W21870  10.800  17.399  13.373 -0.0333 -0.0614  0.0697
 5024W        W21871  17.952   0.247   2.081  0.0576  0.0265 -0.1861
 5025W        W21872   3.895   3.484   4.711 -0.0961  0.0002  0.0339
 5026W        W21873   4.664   3.177   0.701  0.1887  0.1664  0.0982
 5027W        W21874  17.091   7.928   4.440  0.0023  0.2754 -0.0005
 5028W        W21875   9.763  10.954  13.453  0.2378  0.2570  0.0488
 5029W        W21876  12.191   4.721  11.158  0.3709  0.3241 -0.1195
 5030W        W21877  16.390  16.270   1.623  0.1029 -0.2001  0.1709
 5031W        W21878  11.415   3.609   9.918 -0.0131 -0.3046 -0.0665
 5032W        W21879   3.545   2.665  10.945  0.2860 -0.0109 -0.1807
 5033W        W21880  13.587  15.546   1.324  0.1784 -0.2321  0.3517
 5034W        W21881  16.050   7.104   2.155 -0.1754  0.1365  0.1662
 5035W        W21882  11.863  16.217  11.133 -0.0579  0.0394 -0.0626
 5036W        W21883   4.885   4.170   0.255 -0.5216 -0.1898 -0.2141
 5037W        W21884   0.273  16.736   4.001 -0.3407  0.0645  0.0487
 5038W        W21885  13.585   6.707   2.414  0.0453  0.2474  0.0707
 5039W        W21886  12.170  12.615   2.160 -0.1815 -0.1722 -0.1381
 5040W        W21887  13.521   9.894   0.600  0.1507  0.2566 -0.1830
 5041W        W21888   3.279   5.140  11.548  0.0307 -0.0027 -0.0288
 5042W        W21889  15.434   3.463  10.192 -0.1306  0.4346  0.0672
 5043W        W21890  15.164   5.875  10.877 -0.2071 -0.1511  0.0114
 5044W        W21891   0.262   4.467   3.326  0.1801  0.0720 -0.0631
 5045W        W21892   2.708   3.245  11.276  0.0044  0.2837 -0.1881
 5046W        W21893   3.583  11.243   0.517 -0.0424 -0.0050 -0.3336
 5047W        W21894   1.954   6.635  10.490 -0.2482  0.1925  0.1295
 5048W        W21895   6.630  10.366   5.445  0.1493 -0.0340 -0.2434
 5049W        W21896   5.231   0.623   2.612  0.1601 -0.0205  0.3000
 5050W        W21897  19.325  14.900  11.309 -0.0000  0.1579  0.1477
 5051W        W21898  14.302   0.530   8.909 -0.0398  0.1248 -0.1164
 5052W        W21899  15.365  19.642  10.024 -0.1163 -0.3389 -0.1658
 5053W        W21900  11.061   4.616   4.267 -0.0702  0.0677  0.0992
 5054W        W21901   5.418  18.060  10.712  0.1409  0.1279  0.2426
 5055W        W21902  17.758  12.893   3.727 -0.1233  0.2375 -0.2656
 5056W        W21903  17.568   8.437  13.757 -0.0094  0.0053  0.0359
 5057W        W21904   9.542  15.370   3.862 -0.0124  0.0294 -0.0547
 5058W        W21905   9.830   7.690   9.738 -0.0694 -0.1607 -0.0906
 5059W        W21906   5.442   8.196  14.186 -0.0864  0.0063 -0.3289
 5060W        W21907  13.224   8.593  11.994  0.0053 -0.1541  0.2835
 5061W        W21908   6.170   9.539  12.253  0.1628 -0.1011 -0.1538
 5062W        W21909   9.690  17.034   4.460 -0.1613  0.2280 -0.0543
 5063W        W21910   5.942   5.478   1.798 -0.1426 -0.1417  0.1213
 5064W        W21911   9.493  18.733  13.617 -0.0886 -0.0127  0.1676
 5065W        W21912   0.129   4.054  13.667  0.0595  0.4828 -0.0322
 5066W        W21913   8.800   1.061  11.708 -0.1265 -0.2408 -0.0099
 5067W        W21914   1.467   6.661  10.801  0.1650  0.1462 -0.0299
 5068W        W21915  11.349  15.628  11.207  0.0526 -0.2053  0.1632
 5069W        W21916   8.572  13.519   1.648 -0.1978  0.1072 -0.0815
 5070W        W21917  19.067  14.495  13.475  0.2152  0.2645 -0.2330
 5071W        W21918   2.872  13.729  14.063 -0.0825  0.4465  0.1551
 5072W        W21919   4.040   6.626   2.606 -0.0676  0.3277  0.0319
 5073W        W21920  19.430  10.520   2.176  0.3026  0.1335  0.3920
 5074W        W21921  10.510   4.078  13.958 -0.2570 -0.0257  0.1729
 5075W        W21922   3.551   1.344   2.932  0.1566 -0.3690  0.0675
 5076W        W21923   4.308   5.951   4.780  0.2688 -0.2691  0.1253
 5077W        W21924  11.077  15.260   1.896 -0.2326 -0.1880 -0.2213
 5078W        W21925  15.461  16.443  11.935 -0.4860  0.3163 -0.0710
 5079W        W21926   3.216   1.330   4.946  0.0103  0.1941 -0.0228
 5080W        W21927  13.973   8.067  13.994 -0.0352 -0.2134  0.2078
 5081W        W21928   8.969  15.909  12.191  0.2127 -0.0471  0.3421
 5082W        W21929  15.983  19.880  12.325 -0.0222 -0.3192 -0.0479
 5083W        W21930   4.184  16.619   2.931 -0.2064 -0.0472  0.0046
 5084W        W21931   4.706   2.093  10.361  0.1418  0.0466  0.3558
 5085W        W21932   0.118   1.798   4.719 -0.0977  0.0005 -0.2393
 5086W        W21933  11.982  13.218  13.447 -0.1333  0.3984 -0.1923
 5087W        W21934   8.016   1.914  12.688  0.1415  0.0820  0.3715
 5088W        W21935   2.181   5.442  12.791 -0.1557  0.3166  0.1825
 5089W        W21936   2.033  12.919   2.312 -0.1433 -0.0899  0.1756
 5090W        W21937   9.269   2.595  13.671 -0.2638 -0.1261  0.1742
 5091W        W21938   2.395  17.545  13.624 -0.1440 -0.2420 -0.0241
 5092W        W21939   8.321  12.883   3.385  0.0741  0.0597  0.0837
 5093W        W21940  17.558   0.204  13.451 -0.3102  0.4894  0.3023
 5094W        W21941   4.456  16.047   1.751  0.5287  0.0914  0.0495
 5095W        W21942   8.382   9.833   2.302 -0.0119  0.0307 -0.4735
 5096W        W21943  10.975  11.190  13.191  0.0214  0.2160  0.1111
 5097W        W21944   4.268  16.839  12.217  0.0502 -0.2988  0.1381
 5098W        W21945  15.301  15.082  12.709 -0.1226  0.0538  0.0716
 5099W        W21946   0.692   5.367  11.040  0.1510 -0.1487 -0.3105
 5100W        W21947  14.649  15.029   3.622  0.1070  0.1784  0.1119
 5101W        W21948  13.318   5.488  12.561 -0.1935  0.2564  0.0647
 5102W        W21949   7.593   1.030  13.787 -0.2647  0.2002 -0.1925
 5103W        W21950   0.439   0.241   2.492  0.0575 -0.3673 -0.1298
 5104W        W21951  15.573  11.975  11.449 -0.4040  0.0417 -0.0997
 5105W        W21952   1.320   2.089   2.988  0.2480 -0.2571 -0.0186
 5106W        W21953  11.956   4.042   3.967  0.0847  0.3088  0.0135
 5107W        W21954   4.309   3.360  12.198 -0.0094 -0.0764  0.0603
 5108W        W21955  17.916   9.835   1.237 -0.1420 -0.2287 -0.0768
 5109W        W21956   3.477   8.861  13.196  0.3087 -0.1815 -0.1528
 5110W        W21957   2.426   0.446  10.335 -0.0259  0.0246 -0.0817
 5111W        W21958   8.484  12.415   9.643 -0.1439 -0.1198  0.1640
 5112W        W21959  15.966  16.672  10.273  0.2457 -0.0746 -0.1885
 5113W        W21960   2.255   0.986   4.321 -0.0788 -0.3334  0.1262
 5114W        W21961  18.934  13.345  10.312  0.2611 -0.0476 -0.0936
 5115W        W21962  16.118  17.029  10.679  0.5184  0.4471 -0.2076
 5116W        W21963  12.021  15.199  11.001 -0.2066 -0.0407 -0.1212
 5117W        W21964   3.366  13.661  13.845  0.1122 -0.0823  0.1787
 5118W        W21965  12.521   7.748   1.371 -0.2278 -0.0502  0.0095
 5119W        W21966   0.906  13.379   0.553 -0.0149  0.2572 -0.0514
 5120W        W21967  10.214  19.125  12.255 -0.0412  0.1345  0.1342
 5121W        W21968   3.138  18.184   3.481  0.1710 -0.0786 -0.1089
 5122W        W21969   4.144   8.061  12.798 -0.0318 -0.1855 -0.2704
 5123W        W21970   7.202  11.893   0.066 -0.0776  0.0235 -0.2662
 5124W        W21971   1.513  18.219  11.929 -0.0062 -0.0975  0.0541
 5125W        W21972  19.079  13.329  12.780 -0.3116  0.2325  0.0427
 5126W        W21973   3.675   6.235   1.614  0.1112 -0.3840 -0.2088
 5127W        W21974  15.577   3.284   2.982 -0.1801  0.1162 -0.0903
 5128W        W21975  19.600  12.008   0.108  0.0940 -0.3719  0.1820
 5129W        W21976  17.043  17.291  11.983 -0.0691 -0.3128  0.3311
 5130W        W21977   9.726  12.358   3.060  0.1514  0.1999 -0.0723
 5131W        W21978  15.544   6.285  10.328  0.1396 -0.1623  0.2085
 5132W        W21979   0.769  11.929   9.574  0.3737  0.1085  0.0108
 5133W        W21980   6.255  18.493   3.563  0.0679  0.0291 -0.0028
 5134W        W21981   6.844   5.698   3.966  0.3789  0.2495  0.3422
 5135W        W21982  12.012  18.269   1.319  0.3338  0.0012  0.2105
 5136W        W21983  14.499   2.692   0.291 -0.3164 -0.1232 -0.0026
 5137W        W21984  13.522  19.732  13.575  0.0259  0.3874  0.4019
 5138W        W21985   2.865   0.819   9.722 -0.1758  0.0829  0.0264
 5139W        W21986   0.331  11.302  11.818 -0.0880 -0.0311 -0.0433
 5140W        W21987  17.249  19.527  10.210 -0.0001 -0.0428 -0.0251
 5141W        W21988   0.142  18.079   1.401 -0.0716  0.4634  0.3610
 5142W        W21989   2.405  11.760   3.933 -0.0504  0.1113 -0.1539
 5143W        W21990  19.244  16.342  12.364  0.2810 -0.2482  0.2425
 5144W        W21991  18.394   7.173  13.712 -0.2256 -0.3329 -0.3702
 5145W        W21992   2.067   1.444   2.019  0.1483  0.0108 -0.0191
 5146W        W21993   4.911   9.196   4.410  0.0716  0.1684  0.1168
 5147W        W21994   3.657   8.495  10.625 -0.2580  0.1842 -0.0265
 5148W        W21995  13.887  10.772   3.131  0.0307  0.0372  0.2594
 5149W        W21996   5.821  16.914   2.931 -0.3582 -0.1418  0.1781
 5150W        W21997   5.857   5.030  12.291  0.0607  0.1020 -0.0080
 5151W        W21998  13.556  17.245  10.892 -0.1413 -0.0390 -0.3383
 5152W        W21999   9.105   4.719  12.096  0.2711  0.2517  0.1166
 5153W        W22000  19.195  15.959  11.069 -0.1865  0.0580  0.1422
 5154W        W22001  10.731  18.775  14.034  0.1368  0.3555 -0.3623
 5155W        W22002  18.731   4.223   1.783 -0.3304 -0.0866  0.0969
 5156W        W22003   3.664  15.670   1.122 -0.6165 -0.0385 -0.0830
 5157W        W22004   5.866  17.663  10.831  0.0709 -0.2170  0.3768
 5158W        W22005  14.971  15.819  13.593  0.0124 -0.4986 -0.1490
 5159W        W22006  18.776   3.556   2.475 -0.0991 -0.2312  0.0136
 5160W        W22007  18.709  11.165  11.088  0.3345 -0.3107  0.0513
 5161W        W22008  19.369  10.578  14.351 -0.0760 -0.2397  0.0295
 5162W        W22009  11.333   1.564   1.354 -0.1312  0.2311  0.2647
 5163W        W22010   5.777  10.231   3.158  0.0181  0.1809  0.2707
 5164W        W22011   1.295  10.693   0.076  0.0318  0.1115 -0.3110
 5165W        W22012   3.969   8.299   0.030  0.2051  0.1479 -0.3554
 5166W        W22013  15.069  15.138  10.958 -0.2935 -0.1964 -0.3476
 5167W        W22014  10.679   9.530   4.563 -0.3998  0.3345 -0.2253
 5168W        W22015   8.306  13.724   1.153  0.0557 -0.0772  0.4301
 5169W        W22016   8.973   2.315   1.491 -0.0249  0.0878 -0.0101
 5170W        W22017  18.450   8.173  10.083 -0.1638 -0.3159  0.1430
 5171W        W22018   3.788   5.263   1.622 -0.1651  0.1302 -0.0819
 5172W        W22019   0.102  10.321   2.951  0.1824  0.1074 -0.1099
 5173W        W22020   8.620   1.656   1.161 -0.1163 -0.0136  0.0341
 5174W        W22021  12.819   7.238  10.054  0.1770  0.1563 -0.1686
 5175W        W22022   2.441   8.196  12.535 -0.0190 -0.1971  0.2140
 5176W        W22023  16.269   9.968   3.813  0.0033 -0.0351 -0.3409
 5177W        W22024   0.212  19.227   5.126 -0.0841 -0.0644  0.1507
 5178W        W22025   2.433  15.933   4.640  0.4113 -0.2148  0.1269
 5179W        W22026   1.041   4.043  13.542  0.2569  0.1027 -0.0682
 5180W        W22027  11.444  14.686  12.095 -0.0019 -0.2051  0.0590
 5181W        W22028  15.574  10.121   0.746  0.1523  0.0004  0.2245
 5182W        W22029   1.293  15.394   4.631 -0.0927 -0.0403  0.0277
 5183W        W22030  19.403  17.237   9.884  0.1005  0.1834 -0.3185
 5184W        W22031   5.833   2.283   3.766  0.3279 -0.2210 -0.0350
 5185W        W22032   6.554   8.147  10.630 -0.1797  0.0583  0.0836
 5186W        W22033   9.333  13.381   2.946  0.3879  0.1066  0.1099
 5187W        W22034   7.253   0.522   0.452 -0.2208  0.2195  0.2130
 5188W        W22035   3.369  17.199   2.342  0.0529 -0.0279 -0.1516
 5189W        W22036  17.467   4.592  13.307 -0.1187  0.3948  0.1333
 5190W        W22037   5.651   5.895  10.181  0.5351  0.1032 -0.1462
 5191W        W22038  15.349   2.031  12.636  0.3023 -0.1453  0.0973
 5192W        W22039   5.767  18.911  13.182  0.0908  0.1701  0.2657
 5193W        W22040  12.990  11.328   3.161 -0.1231  0.0799 -0.0552
 5194W        W22041   0.867   5.596   9.719  0.5135 -0.1420  0.1843
 5195W        W22042   5.469  16.532   4.691  0.2478  0.2118  0.1210
 5196W        W22043   6.690  10.955   4.020 -0.1822  0.0795  0.0653
 5197W        W22044   8.816   6.739   1.468  0.0990 -0.2159 -0.1356
 5198W        W22045  12.310  14.068   3.403 -0.2028 -0.1542  0.0205
 5199W        W22046   2.770   1.893  12.993 -0.3375 -0.1680  0.0885
 5200W        W22047  12.809   8.154   1.552 -0.0215  0.0380 -0.1792
 5201W        W22048  10.541  19.419   4.335 -0.0196  0.2127  0.0423
 5202W        W22049  16.437   1.129  11.620 -0.4130 -0.4273  0.0488
 5203W        W22050  12.983   6.905  11.140 -0.1337  0.1454 -0.1018
 5204W        W22051   3.274   0.480  11.147 -0.1070 -0.0232  0.2784
 5205W        W22052   6.790   4.639  11.694  0.0854 -0.0748  0.0065
 5206W        W22053   1.218   2.255  11.957  0.1781 -0.1279 -0.3351
 5207W        W22054   6.445   9.301   3.942  0.2790  0.1855  0.2348
 5208W        W22055   3.665   7.595  10.832  0.0559 -0.2939  0.1805
 5209W        W22056  13.527  17.913  12.925 -0.1197  0.2336 -0.0622
 5210W        W22057  15.478   3.749  12.850  0.2137 -0.1725  0.0558
 5211W        W22058  18.711  19.312   1.265 -0.1282  0.1046  0.0878
 5212W        W22059  14.711   4.653  11.939 -0.0069  0.4355 -0.3240
 5213W        W22060  18.409  14.787  11.930 -0.0646 -0.0620  0.1341
 5214W        W22061   0.660  16.551  12.957  0.0627  0.2096 -0.3484
 5215W        W22062  15.310   0.136  13.014 -0.0546 -0.1603 -0.0462
 5216W        W22063  10.668  11.134  13.847  0.1839 -0.3685  0.0631
 5217W        W22064   4.915   6.089   9.487  0.2148  0.1717  0.0102
 5218W        W22065   0.106  19.086  14.338  0.0859 -0.0567  0.2702
 5219W        W22066   4.539   4.197  11.801 -0.1435  0.1040  0.0512
 5220W        W22067  16.616  14.988  12.389 -0.2274 -0.0510  0.3357
 5221W        W22068  14.451   1.890   4.492  0.3392 -0.1090 -0.0925
 5222W        W22069  16.713   1.833   1.470 -0.3515 -0.1315  0.0418
 5223W        W22070  11.040   7.878   0.100 -0.2891 -0.1069 -0.2576
 5224W        W22071   1.357   4.146  13.068  0.1267  0.0487  0.3752
 5225W        W22072  12.503   1.349  11.932  0.2340 -0.3118 -0.1997
 5226W        W22073   4.701   3.976  10.603 -0.0077 -0.1171 -0.1317
 5227W        W22074  15.626  14.160   5.504 -0.1784 -0.0379  0.3585
 5228W        W22075   1.100   1.281  13.087  0.0001  0.0427  0.5024
 5229W        W22076  14.447   4.703  11.422 -0.0331 -0.1901  0.1393
 5230W        W22077  19.361   3.884  12.831 -0.1877  0.2057  0.1646
 5231W        W22078   6.187  16.353  12.456  0.4426  0.1866 -0.0417
 5232W        W22079  17.769  14.269   9.888 -0.3277  0.5635  0.1728
 5233W        W22080   5.824  18.916  10.327  0.0658  0.0613 -0.0047
 5234W        W22081  13.298  18.398  12.144  0.0370 -0.1134  0.0202
 5235W        W22082  15.676  17.964   1.603  0.2781 -0.4522  0.0801
 5236W        W22083   5.717  14.342   2.271 -0.1293 -0.1120 -0.2092
 5237W        W22084  17.071   9.477  11.592 -0.0108 -0.2165 -0.4099
 5238W        W22085  19.524  14.541   3.246 -0.2121 -0.1367 -0.1553
 5239W        W22086   0.294  15.672   4.282 -0.0392  0.0364 -0.5685
 5240W        W22087   4.224   0.919   3.622 -0.1097 -0.0876 -0.1463
 5241W        W22088  14.774   5.900  11.309  0.1419 -0.2850 -0.0635
 5242W        W22089  14.942   3.797   1.257  0.1963 -0.0159 -0.1631
 5243W        W22090   3.123   8.969   1.758 -0.1063  0.0100 -0.0086
 5244W        W22091   2.418  14.491   3.265  0.1149  0.0133 -0.0510
 5245W        W22092   2.849  12.808  10.655 -0.0706 -0.2130 -0.3226
 5246W        W22093  18.966   1.190  12.392 -0.1005 -0.0331 -0.1761
 5247W        W22094   1.474  13.551   4.580 -0.0517 -0.0227 -0.0055
 5248W        W22095  10.548  13.866  12.999 -0.1077  0.3610 -0.3651
 5249W        W22096   5.665  12.540   1.607 -0.2977 -0.0681  0.5250
 5250W        W22097  16.571   6.627  12.308  0.1221  0.0204  0.1623
 5251W        W22098   9.125  14.743   2.069  0.2030  0.2093 -0.0852
 5252W        W22099   7.121  15.914   9.588 -0.0662 -0.5240 -0.1956
 5253W        W22100   6.253  18.142  12.831  0.2197  0.1185 -0.0952
 5254W        W22101  10.033  15.298  11.833 -0.0407  0.0287  0.0491
 5255W        W22102  15.583   1.236   3.386  0.3039  0.1445  0.0568
 5256W        W22103  13.014  17.560   0.134  0.0719 -0.1797  0.0087
 5257W        W22104  17.450  15.881  11.704  0.1717  0.0257 -0.0061
 5258W        W22105  18.235  12.405  12.480  0.0029 -0.1926  0.1382
 5259W        W22106   3.517   3.943  14.071  0.1903  0.3707 -0.0272
 5260W        W22107  16.220   1.146  13.372 -0.1067 -0.0968  0.2043
 5261W        W22108   9.741   7.171   2.728 -0.0112  0.0461 -0.1206
 5262W        W22109  12.107   3.569  11.131 -0.1361  0.1488  0.2688
 5263W        W22110   2.171  13.067   2.839  0.1512  0.0657 -0.2636
 5264W        W22111  14.455  11.360  14.128  0.2067 -0.2167  0.0733
 5265W        W22112  17.804  13.883  14.355  0.3089 -0.3960  0.1600
 5266W        W22113   6.412   5.397   0.706  0.1045  0.3431 -0.0606
 5267W        W22114   7.030   4.481   1.571 -0.1924  0.2674  0.3560
 5268W        W22115  13.460  11.397   4.549 -0.1900 -0.0429  0.0254
 5269W        W22116  12.895  18.916   0.464 -0.2927 -0.0722 -0.0915
 5270W        W22117  10.100   2.941  11.423  0.1906 -0.1800  0.0186
 5271W        W22118  12.514   3.877  12.241  0.4089 -0.2277 -0.1953
 5272W        W22119  11.564  15.194   0.468 -0.1115 -0.2315 -0.1613
 5273W        W22120  19.560  10.511   4.746  0.0174 -0.0461  0.2436
 5274W        W22121   9.378  10.694   3.822  0.2280  0.3084  0.3477
 5275W        W22122   6.113  16.894   3.625 -0.0126 -0.0693 -0.1659
 5276W        W22123  11.437  14.807   0.874 -0.1990 -0.0226 -0.3769
 5277W        W22124  19.720   5.292  14.359 -0.1441 -0.2251  0.0091
 5278W        W22125   1.409   7.565  10.577  0.2195  0.0913  0.1148
 5279W        W22126  15.167  14.970   2.156  0.5110  0.0003  0.2073
 5280W        W22127   6.558  14.763   2.742 -0.0455 -0.0645  0.1072
 5281W        W22128  15.514  10.356  13.415  0.0278 -0.1224 -0.1999
 5282W        W22129   3.881   0.315  13.136  0.1795 -0.3889 -0.1500
 5283W        W22130  16.093  14.306   2.331 -0.0353 -0.0105  0.1657
 5284W        W22131   9.145  17.242   5.171  0.1001 -0.2807 -0.0019
 5285W        W22132  11.023  10.056   0.022  0.1652 -0.2005 -0.0039
 5286W        W22133   6.236   7.379  11.482  0.0559  0.1708  0.0763
 5287W        W22134   3.077  15.573   1.325  0.1386  0.1804 -0.4784
 5288W        W22135   1.521  13.188  12.534 -0.0396  0.2349  0.0634
 5289W        W22136   0.449  14.254  11.447 -0.4476  0.1269  0.0054
 5290W        W22137   0.215   2.580   0.572  0.1122 -0.0820 -0.1079
 5291W        W22138   9.722  12.061   2.637 -0.1828  0.0895 -0.0578
 5292W        W22139  11.799   2.296   9.804 -0.1759 -0.4977 -0.4624
 5293W        W22140  10.543  17.991  13.221  0.0839  0.5006  0.0584
 5294W        W22141   4.571  18.346  12.025 -0.3279  0.1205  0.4569
 5295W        W22142  15.777   6.558   9.981 -0.0884  0.0421 -0.1318
 5296W        W22143  19.695  18.162   4.071 -0.1245 -0.0117  0.0785
 5297W        W22144   0.975   4.147   2.249 -0.2475  0.1794  0.0093
 5298W        W22145  11.051  12.389   4.619  0.1019  0.2131 -0.0372
 5299W        W22146  12.359   3.021   3.639  0.0912 -0.0454 -0.0197
 5300W        W22147   1.023  12.626   3.581 -0.5265  0.0313  0.1788
 5301W        W22148  17.449   1.887   4.680 -0.1402 -0.1022 -0.1669
 5302W        W22149  16.404  19.742  12.535 -0.2449  0.2369 -0.0366
 5303W        W22150   3.334  10.177  13.609 -0.2897  0.1368  0.1156
 5304W        W22151   7.626   9.197  11.895  0.0883 -0.0473  0.0240
 5305W        W22152   6.623   7.515   3.698  0.1637  0.0906 -0.0521
 5306W        W22153   2.888  16.759  10.481  0.0614  0.3068  0.0004
 5307W        W22154  17.460   5.872  14.319  0.1531  0.0356  0.3659
 5308W        W22155   1.245  15.808   2.887  0.1070 -0.0072 -0.1414
 5309W        W22156  15.927   0.973  13.001  0.2264 -0.0447  0.1678
 5310W        W22157  11.851  14.544  10.507  0.3398 -0.1774  0.2180
 5311W        W22158  15.771  17.894   2.881 -0.0118 -0.0020  0.1086
 5312W        W22159  19.622   6.954  12.078  0.2217 -0.2579 -0.0426
 5313W        W22160  16.974  16.172   2.234  0.3141  0.1237 -0.2924
 5314W        W22161   9.379   3.308  11.390  0.2891  0.1170  0.2369
 5315W        W22162  12.982   4.525   0.804 -0.3282  0.0556 -0.1334
 5316W        W22163   7.171   7.443  12.088 -0.1163  0.0434 -0.0719
 5317W        W22164   3.472  13.806  14.330 -0.2973 -0.0829 -0.0398
 5318W        W22165   4.793  16.953  10.932 -0.1067 -0.0306  0.2897
 5319W        W22166  13.448   0.692  14.172 -0.1604  0.0177 -0.1655
 5320W        W22167  17.973   0.430   1.233 -0.4597  0.0729 -0.0321
 5321W        W22168   8.130   6.890   4.637 -0.0879  0.2191 -0.0453
 5322W        W22169  10.224   0.982  11.846 -0.2292 -0.0331 -0.0332
 5323W        W22170   6.580  19.226  12.401 -0.1247 -0.0497 -0.0161
 5324W        W22171   2.952   8.945   0.743  0.0872  0.4216  0.0685
 5325W        W22172   2.322   3.429   3.627 -0.1434  0.1781 -0.5337
 5326W        W22173  18.959  11.660  13.309 -0.1323  0.1311 -0.1370
 5327W        W22174   0.670   1.601  12.909 -0.1916  0.0712  0.4404
 5328W        W22175  13.459   0.348  10.640  0.0961 -0.1309 -0.1604
 5329W        W22176   8.658   3.250  12.679  0.1703  0.1539  0.0931
 5330W        W22177   5.260  10.236  11.646 -0.0169  0.0577  0.1116
 5331W        W22178   9.327   4.875   3.540  0.0563 -0.2933 -0.1471
 5332W        W22179   1.017   3.461  13.796  0.4834 -0.0593 -0.1930
 5333W        W22180   1.155  15.667  13.021 -0.0567 -0.0131  0.2501
 5334W        W22181  16.942  18.279  14.050 -0.0707  0.1665 -0.1613
 5335W        W22182  14.946   5.949   4.180 -0.1570  0.2036  0.0684
 5336W        W22183  16.361   2.564  13.051 -0.3984  0.2810  0.1839
 5337W        W22184  10.655  12.684   9.665  0.2433 -0.2534  0.1455
 5338W        W22185  19.593  18.191  11.658 -0.2027 -0.2764  0.0189
 5339W        W22186  14.619  16.989  11.599 -0.0344  0.1585 -0.2208
 5340W        W22187  15.877  12.280   2.405 -0.0026  0.2411 -0.2655
 5341W        W22188   9.411   6.892   5.115 -0.1516  0.0475 -0.1413
 5342W        W22189   1.548  15.543   3.459 -0.0966  0.0274  0.0477
 5343W        W22190   2.013  10.826  11.394 -0.0608 -0.1054 -0.0192
 5344W        W22191   2.270  12.138   1.857 -0.2039 -0.1293 -0.1124
 5345W        W22192  16.647  11.569   3.027  0.1026  0.0275 -0.1276
 5346W        W22193   1.433  10.449   3.642 -0.1715 -0.1155 -0.0412
 5347W        W22194  10.972  17.471   3.066 -0.2866  0.2070  0.0330
 5348W        W22195  17.748  10.024   2.576  0.1617  0.3040 -0.1080
 5349W        W22196  16.787   3.746   1.716  0.0044  0.1239 -0.1340
 5350W        W22197  10.495  16.638   1.806  0.1996 -0.0626 -0.1568
 5351W        W22198   0.391  16.883   0.561  0.1406  0.1919 -0.2299
 5352W        W22199   0.145   4.333   1.292  0.0389 -0.0895 -0.1523
 5353W        W22200  16.760  14.293   4.069  0.0146 -0.2484 -0.1016
 5354W        W22201  11.944  13.627  13.024 -0.1980  0.1346 -0.2726
 5355W        W22202  15.963   0.411   0.402  0.1558 -0.0385 -0.1564
 5356W        W22203  16.854   7.072   9.351 -0.2192  0.4472  0.1147
 5357W        W22204  18.966   6.679  12.689  0.1188 -0.2237  0.2812
 5358W        W22205  14.952   4.858  13.541 -0.1885  0.0061  0.1855
 5359W        W22206  14.668   3.745   2.045  0.1109 -0.3413 -0.2543
 5360W        W22207  17.778   8.918   0.645 -0.1585 -0.0993  0.1798
 5361W        W22208   7.422  16.782  10.064  0.0077  0.1319  0.3551
 5362W        W22209   4.345   1.087  14.287 -0.0360 -0.2451  0.0326
 5363W        W22210   3.967  19.047  12.811 -0.0388 -0.0745  0.3255
 5364W        W22211   3.300  18.540   3.897 -0.0945 -0.0778  0.0314
 5365W        W22212  15.979  18.669  13.966  0.3105  0.0211 -0.1069
 5366W        W22213   3.062   7.118  13.911  0.1177  0.0848  0.1623
 5367W        W22214  18.021  15.367  10.072 -0.0859 -0.1488 -0.1623
 5368W        W22215   2.324   1.900   3.665 -0.1637 -0.0095  0.0012
 5369W        W22216  12.704   4.255  13.774  0.0892 -0.2682 -0.0165
 5370W        W22217   2.115   6.008  12.195  0.0410 -0.0692  0.0984
 5371W        W22218  14.575   5.918   9.776  0.2922 -0.0537  0.1962
 5372W        W22219   8.843   7.902   1.834 -0.0824  0.1485  0.2332
 5373W        W22220   2.055   8.017   2.988 -0.1982  0.2476 -0.2463
 5374W        W22221  14.763   7.429  10.209 -0.1477  0.0086  0.0514
 5375W        W22222   2.143   0.558   0.193 -0.0269 -0.0202  0.3256
 5376W        W22223  14.670   8.147  13.440 -0.2290 -0.1849 -0.1004
 5377W        W22224   7.029   7.741  13.112  0.0098  0.2109 -0.0494
 5378W        W22225   7.159   2.517   3.952 -0.1816  0.0163 -0.0096
 5379W        W22226  14.619  19.553  13.753 -0.1744  0.0917 -0.3908
 5380W        W22227   0.408   1.225  14.147  0.0055 -0.4296 -0.1621
 5381W        W22228   8.859  18.383   4.586  0.0967 -0.0170 -0.3964
 5382W        W22229  18.086  15.968  13.529  0.1314 -0.1772 -0.1201
 5383W        W22230  15.043  17.171  13.736 -0.1473 -0.2888  0.1339
 5384W        W22231   0.187   5.810  13.884 -0.0779 -0.2191 -0.2390
 5385W        W22232  14.299  10.381  10.368 -0.1453 -0.7817  0.1621
 5386W        W22233  18.814  10.043   3.862 -0.0776  0.0870  0.1512
 5387W        W22234  16.268   3.754   3.479 -0.1229 -0.1254 -0.1414
 5388W        W22235  18.434   4.274  13.215 -0.1929 -0.0833  0.2504
 5389W        W22236   7.531  19.778  10.117 -0.3611  0.2794  0.0740
 5390W        W22237  17.574   2.432   2.510  0.2460  0.3230 -0.1377
 5391W        W22238  11.842   0.062  11.561 -0.1234  0.0005  0.1558
 5392W        W22239   3.318  17.590  13.760  0.3656  0.1152 -0.3177
 5393W        W22240   4.982   2.392   2.538  0.0385  0.0027  0.2503
 5394W        W22241   0.242   9.319   2.004 -0.0228  0.1087  0.1862
 5395W        W22242   2.118   9.815   0.876 -0.0963  0.0233 -0.0786
 5396W        W22243   7.400  10.568  12.715 -0.0119  0.1843  0.0510
 5397W        W22244  14.576  19.384  12.569 -0.0706 -0.0747  0.1335
 5398W        W22245   7.087  16.788  12.921 -0.2085 -0.0759 -0.0872
 5399W        W22246   5.114  12.512   3.291  0.1744 -0.1595  0.0740
 5400W        W22247   1.717   5.557   4.241 -0.1169  0.0985 -0.1774
 5401W        W22248   2.094  18.439  10.712 -0.1848 -0.1229  0.2359
 5402W        W22249   4.455   6.670  13.370 -0.2448  0.0293  0.0451
 5403W        W22250   1.862   5.269   2.156  0.0607 -0.3073  0.2708
 5404W        W22251   6.142   9.894   4.601  0.1362 -0.0503  0.2317
 5405W        W22252   0.803   2.724   2.437  0.1572  0.0967  0.2083
 5406W        W22253   6.905   5.483   1.092 -0.5658 -0.3588 -0.3247
 5407W        W22254   8.773   9.959  10.224  0.0320 -0.0644 -0.3046
 5408W        W22255   2.494   0.923  12.935 -0.0283 -0.0016 -0.2155
 5409W        W22256   2.031   5.995  11.238  0.0302  0.3426 -0.3415
 5410W        W22257  14.050   3.756   0.809  0.1176 -0.4225  0.2303
 5411W        W22258   2.456  18.476  12.344 -0.0585  0.2221 -0.1979
 5412W        W22259  10.784  19.143  11.486 -0.2397 -0.1298  0.2428
 5413W        W22260   2.026   2.250   1.586  0.0581  0.3394  0.0020
 5414W        W22261   2.996   4.019   5.459 -0.1305 -0.0612  0.1303
 5415W        W22262   2.918   7.030  12.052 -0.1066  0.1367 -0.1531
 5416W        W22263   4.683  14.552   3.582 -0.1414 -0.2906 -0.2447
 5417W        W22264   8.009  13.041  10.615 -0.2283  0.1165 -0.1560
 5418W        W22265   8.765  17.542  12.022  0.1110 -0.1347 -0.0342
 5419W        W22266  15.835   9.494   1.611  0.4821  0.0589  0.1005
 5420W        W22267  10.848   4.965   1.708  0.2027 -0.1679 -0.0396
 5421W        W22268  10.105  11.376   3.933  0.1952 -0.0819 -0.3425
 5422W        W22269  10.062   9.081   5.302 -0.1749 -0.3143  0.2102
 5423W        W22270  19.669  17.225  13.973 -0.0532 -0.3661  0.2698
 5424W        W22271   2.357  10.691  12.234 -0.1248  0.0556 -0.2740
 5425W        W22272  10.536  15.438   5.435  0.1719  0.0616 -0.0114
 5426W        W22273  18.205  19.787   2.432  0.0731 -0.3658 -0.1853
 5427W        W22274   3.132   9.517  13.355  0.1696  0.1121  0.2044
 5428W        W22275   0.014  15.329   3.456  0.0719  0.0530 -0.2443
 5429W        W22276   9.360   0.174  10.947  0.2142  0.4444 -0.0183
 5430W        W22277   6.010   8.353  14.022  0.0617 -0.0837 -0.4536
 5431W        W22278  19.081  19.384   2.363  0.1047 -0.0080  0.0528
 5432W        W22279  15.980   9.937  11.927  0.1190 -0.0214 -0.0414
 5433W        W22280   3.074  16.802   4.800 -0.0817  0.2027 -0.0613
 5434W        W22281  16.582   0.810  14.106 -0.3062  0.3291  0.0936
 5435W        W22282   2.535  13.298   3.626  0.0819 -0.0505 -0.1186
 5436W        W22283  15.278  16.930   4.417  0.0588  0.0143 -0.0781
 5437W        W22284  16.983   4.834   3.766  0.0242 -0.2706  0.2270
 5438W        W22285  15.018   4.289   9.153  0.0876  0.1196 -0.1050
 5439W        W22286   9.674  10.209   1.690  0.1131  0.0671 -0.2113
 5440W        W22287   7.499   0.579  11.575 -0.0502  0.1136  0.2746
 5441W        W22288  11.340  16.060   4.398  0.1577 -0.0406  0.0191
 5442W        W22289   1.971   1.349  14.131  0.0445  0.1136  0.1192
 5443W        W22290  10.143  11.162  11.883  0.3812  0.1591  0.0066
 5444W        W22291  12.948   9.967   2.035  0.1053  0.0605  0.0210
 5445W        W22292  15.549   2.703   3.194  0.0598 -0.0329  0.2068
 5446W        W22293   6.406  15.910   2.142  0.0419 -0.0353  0.1001
 5447W        W22294   9.798   1.232  12.687  0.0156 -0.1472 -0.0205
 5448W        W22295   8.542  14.653  11.160 -0.1625  0.1291  0.1711
 5449W        W22296  15.220  13.014   2.198  0.0846 -0.0586 -0.1161
 5450W        W22297   8.752  19.243   4.031 -0.0228  0.0493 -0.0991
 5451W        W22298   1.159   7.144   1.406 -0.3383  0.1167  0.0019
 5452W        W22299  17.130   8.732  13.917  0.0332 -0.0496 -0.1203
 5453W        W22300   2.328  12.651   1.208 -0.0035 -0.0186 -0.0484
 5454W        W22301  17.485   3.538   3.734  0.1790  0.3015 -0.1834
 5455W        W22302   7.348  17.754   3.905  0.0099 -0.0351 -0.0744
 5456W        W22303   1.891  19.182  12.365 -0.1266  0.0638 -0.1066
 5457W        W22304   2.308   9.174  14.228 -0.0747 -0.1613 -0.3637
 5458W        W22305   7.958   8.986   2.351  0.0780  0.1308 -0.2080
 5459W        W22306   3.738   5.395  12.685 -0.1928 -0.0331  0.0262
 5460W        W22307  14.321  14.359  10.919  0.1094  0.1524 -0.0098
 5461W        W22308  19.001   1.086   2.403  0.2072  0.0029  0.1122
 5462W        W22309   1.547  14.124   4.615  0.0342  0.1204 -0.2087
 5463W        W22310  18.108  15.975   9.995 -0.3098 -0.0770 -0.1836
 5464W        W22311   7.314   6.379   3.940 -0.0086 -0.1397  0.0018
 5465W        W22312   7.943  17.536   4.661  0.2561 -0.1847 -0.1049
 5466W        W22313   5.392  13.253  10.966  0.3438  0.3447  0.0801
 5467W        W22314  10.287   7.839  14.276  0.2279  0.0518  0.0099
 5468W        W22315  16.943   4.394   3.886 -0.1754 -0.0097  0.0851
 5469W        W22316  15.667  12.028  12.170  0.0077 -0.0322  0.3036
 5470W        W22317  12.341  19.208   2.525 -0.1729  0.1256  0.0901
 5471W        W22318   9.008   5.008  13.975 -0.1405  0.3410  0.0117
 5472W        W22319  10.112  13.460  11.333 -0.2726  0.4077  0.0083
 5473W        W22320  11.038   8.569   1.628 -0.3537  0.0920  0.0124
 5474W        W22321  12.690   3.357  14.191 -0.0311  0.2573  0.0894
 5475W        W22322  10.570  11.168   2.182 -0.5449  0.4031 -0.2324
 5476W        W22323  19.299   6.786   1.775 -0.1839  0.1461 -0.3745
 5477W        W22324   3.220  18.493  11.041  0.1309 -0.0970 -0.1488
 5478W        W22325  19.718   1.228  12.624 -0.1394 -0.2579  0.0655
 5479W        W22326   3.954   7.805  11.817  0.1136  0.2911  0.0622
 5480W        W22327   6.581   8.505   4.408  0.1979  0.1011 -0.0224
 5481W        W22328   5.255  19.490   4.094 -0.1339  0.0318 -0.1310
 5482W        W22329   8.089  12.641   4.617 -0.1700  0.0093 -0.1886
 5483W        W22330  10.495   8.215   9.373  0.0396 -0.0083  0.1355
 5484W        W22331   0.747  15.410  13.781  0.0396 -0.3456  0.2736
 5485W        W22332   7.347  15.009  11.499 -0.1218 -0.0535 -0.2591
 5486W        W22333   7.168   1.370   2.431 -0.1262  0.2823 -0.3956
 5487W        W22334   5.136  15.919   9.135 -0.1802 -0.0187  0.0986
 5488W        W22335   0.866  11.541  13.601 -0.2447  0.0126  0.2765
 5489W        W22336   0.421  10.847  10.258 -0.1178  0.3820  0.2592
 5490W        W22337  11.490   5.679  12.360 -0.1964 -0.4203  0.0608
 5491W        W22338  12.208   0.066  10.284  0.2811 -0.1410 -0.1851
 5492W        W22339   7.021  14.604   2.877  0.0188  0.1785 -0.1415
 5493W        W22340   2.315   0.145  10.734 -0.1721 -0.1134 -0.4016
 5494W        W22341   2.321   7.761  13.893  0.0576  0.2347 -0.0620
 5495W        W22342  14.059  12.606   2.217  0.1690 -0.2267 -0.2865
 5496W        W22343   1.795  12.749   0.374 -0.1724 -0.1295 -0.0018
 5497W        W22344  13.497   2.708   3.947 -0.0660 -0.0546 -0.1690
 5498W        W22345   6.853  10.582   3.167  0.2469 -0.0992  0.2324
 5499W        W22346   5.684   8.871  11.953 -0.1704  0.0041  0.3833
 5500W        W22347  18.788  12.146  13.144 -0.2816  0.0823 -0.1701
 5501W        W22348   1.358   7.030   1.894 -0.0089  0.0682  0.0282
 5502W        W22349  18.379   6.114   1.198 -0.1931 -0.1376  0.1425
 5503W        W22350  12.915  11.577  12.826  0.2954  0.1497  0.1195
 5504W        W22351  16.649  15.452   3.632  0.0198  0.4661 -0.0635
 5505W        W22352  14.144   9.355  12.395 -0.0747 -0.1057  0.2784
 5506W        W22353  19.123  18.159   1.877  0.0669 -0.4509  0.2554
 5507W        W22354   1.859  13.728  13.470 -0.1146 -0.0194 -0.0775
 5508W        W22355   6.868  17.612  14.013 -0.0801  0.0322  0.2213
 5509W        W22356   0.206   5.898   9.037  0.0048 -0.0112 -0.0386
 5510W        W22357   3.349  11.880  11.722  0.2924  0.2213 -0.0196
 5511W        W22358  13.057   8.753   1.564  0.0425  0.0092  0.0776
 5512W        W22359  11.957  11.282  10.282  0.0718 -0.1808 -0.1539
 5513W        W22360   1.320   5.943  10.512 -0.0494 -0.1979 -0.1655
 5514W        W22361  11.840   9.855   2.789 -0.2714  0.2393  0.1743
 5515W        W22362   0.551  10.868  12.020 -0.1980 -0.4590 -0.2906
 5516W        W22363  13.479   5.007  10.158 -0.2953 -0.1358 -0.0567
 5517W        W22364  18.118  14.985   4.398 -0.0364 -0.2133  0.2557
 5518W        W22365   9.660  13.261   0.876  0.2407 -0.1467 -0.0762
 5519W        W22366   7.114  18.273  11.612 -0.0023 -0.0211 -0.0791
 5520W        W22367   7.497  13.372   0.183  0.0934 -0.0434 -0.2521
 5521W        W22368   4.202   7.970   1.886 -0.2158 -0.1080 -0.0820
 5522W        W22369   7.670   6.702   1.964  0.0485  0.1191 -0.1694
 5523W        W22370  12.045  14.027   4.858 -0.0526 -0.0832  0.0891
 5524W        W22371  16.930  16.851   0.093  0.1881 -0.0253  0.1324
 5525W        W22372   8.857  18.687  11.095 -0.1975  0.1425  0.0486
 5526W        W22373  15.658  12.095  13.755 -0.2102 -0.3922  0.0790
 5527W        W22374   1.490  16.776   2.303 -0.1616  0.1440 -0.0055
 5528W        W22375   4.664   3.649  13.386 -0.0026 -0.2577  0.0936
 5529W        W22376  11.827   2.889  11.603  0.3287 -0.0604 -0.2162
 5530W        W22377  14.470   5.018   0.420  0.1850  0.0895 -0.0197
 5531W        W22378  11.235  18.893   0.748  0.1650 -0.0780 -0.7079
 5532W        W22379   0.240   6.608   0.703  0.1106 -0.0850  0.0429
 5533W        W22380   2.184   5.812  13.133  0.1578 -0.3180 -0.0744
 5534W        W22381  11.885  16.824  10.242  0.1088  0.3633  0.0139
 5535W        W22382  10.786   7.276   0.529  0.0642 -0.2462  0.1019
 5536W        W22383   9.800   4.799  13.232  0.1249  0.2274  0.0411
 5537W        W22384   4.269   2.131   4.095  0.1801 -0.0795  0.1301
 5538W        W22385  18.461   2.502  11.140 -0.0511  0.1518  0.0538
 5539W        W22386   3.694   3.063   0.377  0.3381  0.2210  0.0062
 5540W        W22387  18.976  13.248  11.520  0.0289 -0.0333  0.3106
 5541W        W22388  19.302   6.572   3.472 -0.2032  0.2369 -0.0400
 5542W        W22389   8.775  11.023   5.059  0.1352  0.1366 -0.2158
 5543W        W22390   0.717   9.539  12.229 -0.3289  0.2856 -0.1525
 5544W        W22391   4.281  11.723   1.193 -0.1615 -0.0920  0.2050
 5545W        W22392   6.663  11.327  10.670  0.0007 -0.1028 -0.2516
 5546W        W22393   2.764   3.174  10.653 -0.3823  0.0959  0.0605
 5547W        W22394   2.428  16.678   4.024  0.1668 -0.2007 -0.0901
 5548W        W22395   5.549   4.398   1.514 -0.0342 -0.1429  0.0030
 5549W        W22396   7.202   3.419   3.250 -0.2064 -0.3942 -0.1374
 5550W        W22397   9.432  13.425   4.469  0.3978 -0.2950  0.3308
 5551W        W22398  19.453  15.315   4.706 -0.3117 -0.1418 -0.1651
 5552W        W22399   8.637   8.395  11.367 -0.1305  0.1903  0.3221
 5553W        W22400  13.773   2.961   0.504  0.0937 -0.1872 -0.2906
 5554W        W22401   3.661  18.171   1.095  0.2353 -0.1193  0.0971
 5555W        W22402   6.518  16.911  14.185 -0.2894 -0.0895 -0.1182
 5556W        W22403  18.277   4.939   2.045  0.0088 -0.0146 -0.2685
 5557W        W22404   9.684   6.716  11.516  0.4549 -0.2202  0.1128
 5558W        W22405  11.343  19.201   1.131 -0.1043  0.0371  0.0079
 5559W        W22406   2.226  11.348  14.154 -0.2425  0.0933  0.2061
 5560W        W22407   4.980   5.990   1.551  0.0468 -0.0264 -0.3573
 5561W        W22408  15.956  16.333  12.108 -0.0958  0.0935 -0.0915
 5562W        W22409   2.483  10.945  13.099 -0.1511  0.0804  0.1110
 5563W        W22410  18.139  18.624   1.057  0.0864 -0.1017  0.0071
 5564W        W22411   4.404   5.571   0.486 -0.0147 -0.0626  0.1896
 5565W        W22412  11.004   4.779   0.330 -0.2627 -0.2031 -0.1670
 5566W        W22413  15.180   1.946  13.717 -0.1899  0.0001  0.2101
 5567W        W22414  19.028  17.049  12.400 -0.2178  0.0265 -0.1567
 5568W        W22415   1.707   7.885  12.062  0.0540  0.0742 -0.0325
 5569W        W22416   8.630   9.946   4.491  0.3023  0.1493 -0.0886
 5570W        W22417  19.390  10.102   3.553  0.0900 -0.0811 -0.2164
 5571W        W22418   2.598   2.094  12.539  0.1341  0.4162 -0.1428
 5572W        W22419   7.124   2.178  11.375  0.0131 -0.0427 -0.1818
 5573W        W22420  17.861   5.640  12.581  0.1244  0.1519  0.1501
 5574W        W22421  15.941  18.258  14.265  0.0023  0.2560 -0.2847
 5575W        W22422   5.123   8.713   3.559  0.0620 -0.4564 -0.4266
 5576W        W22423   3.433   5.169  13.036 -0.0620 -0.0408  0.1913
 5577W        W22424  19.823  14.395   4.951  0.1398 -0.0431 -0.1670
 5578W        W22425   4.707   7.853   2.548 -0.4062 -0.2927 -0.2177
 5579W        W22426   5.451  13.577   4.147 -0.2920  0.1004  0.1397
 5580W        W22427  14.438   1.380  14.323  0.1689 -0.0166  0.4532
 5581W        W22428  16.469   6.092   3.936  0.2742 -0.0938  0.0131
 5582W        W22429   5.812   7.942   3.783  0.0147  0.0929  0.0227
 5583W        W22430   3.317   9.016  14.322  0.1509 -0.1695  0.0270
 5584W        W22431   1.719   4.201   0.535  0.1354 -0.1804  0.0038
 5585W        W22432   8.149   5.481   0.331  0.1517  0.1893  0.1502
 5586W        W22433   2.554  13.136  12.856 -0.2163  0.0673  0.1024
 5587W        W22434   6.857  17.884  12.713  0.0653 -0.1279  0.1766
 5588W        W22435   7.955   8.749   4.554 -0.0844 -0.0374  0.0252
 5589W        W22436   6.408  13.039  12.238 -0.4260 -0.1270 -0.0915
 5590W        W22437  14.081   3.063  10.923 -0.1833  0.1761  0.0820
 5591W        W22438   6.298   7.847   4.020 -0.0554  0.1222  0.0365
 5592W        W22439  19.355  15.817   4.858  0.1106  0.2971  0.1568
 5593W        W22440  14.663   2.028   4.932  0.0560  0.1055 -0.0270
 5594W        W22441  11.948   6.203   0.651 -0.3209  0.1163 -0.2665
 5595W        W22442   0.461  12.089  12.560 -0.1638 -0.0029  0.2043
 5596W        W22443  12.948   0.685   2.654 -0.1084  0.0082 -0.0587
 5597W        W22444  19.374  19.693   2.005  0.0847  0.0133 -0.2467
 5598W        W22445   7.723  13.978   4.229  0.1272  0.0810 -0.4177
 5599W        W22446  15.806   4.370  11.120  0.0395  0.0394 -0.1337
 5600W        W22447   6.187   4.604   3.629  0.0579 -0.3516  0.0667
 5601W        W22448  15.879  10.274   0.351  0.3962 -0.1659  0.5990
 5602W        W22449   0.811  14.837  11.791 -0.2307  0.2811 -0.0808
 5603W        W22450  16.750  13.372  14.129  0.1407 -0.0144  0.2354
 5604W        W22451   4.111   1.333   1.248  0.1883  0.1165  0.0507
 5605W        W22452   1.686  13.351   4.024  0.0582 -0.2722  0.1673
 5606W        W22453   4.110  11.850  12.213  0.5125 -0.0806  0.2467
 5607W        W22454  16.340   9.006  13.688  0.0943  0.0123  0.0392
 5608W        W22455  11.415  13.198   0.427  0.1752 -0.3263  0.1816
 5609W        W22456  14.603  18.388   2.802 -0.0810  0.4594 -0.0181
 5610W        W22457  14.980   9.899   1.494  0.1419 -0.1377  0.0463
 5611W        W22458   5.202   3.838   4.686 -0.0688 -0.0746  0.3259
 5612W        W22459  14.141   5.429  13.574  0.0697 -0.2916  0.2548
 5613W        W22460   0.932   7.333   1.860  0.1862  0.5111  0.4090
 5614W        W22461  12.156   1.134  12.818  0.0171 -0.0230 -0.0294
 5615W        W22462   2.881   8.729  11.647  0.2283  0.2286  0.2558
 5616W        W22463  17.427  15.579   3.010 -0.1588 -0.1127  0.1323
 5617W        W22464   3.000   1.836   4.941 -0.0658 -0.1215  0.4629
 5618W        W22465   3.993  18.539  11.998 -0.0818  0.4030 -0.1127
 5619W        W22466   4.542  10.480   0.550 -0.1129  0.2191  0.3548
 5620W        W22467  14.602  11.102   8.709 -0.1034 -0.0872  0.0827
 5621W        W22468   5.995  16.220   2.400  0.5307  0.0213  0.3422
 5622W        W22469  13.283  16.934  12.883  0.0992 -0.1515  0.0095
 5623W        W22470   4.545   2.281  11.894 -0.1473  0.0502 -0.2917
 5624W        W22471  15.459   4.499  10.333  0.2777 -0.3933 -0.2784
 5625W        W22472  16.928   7.527   0.944  0.3910  0.0324 -0.2234
 5626W        W22473   4.135   0.474  13.558 -0.1481 -0.0388 -0.1990
 5627W        W22474   5.464   9.480   5.678  0.1461  0.1095 -0.0444
 5628W        W22475   4.231  10.174  10.897  0.1109 -0.0078 -0.4202
 5629W        W22476   5.154   6.264  12.738 -0.1302  0.0338 -0.1919
 5630W        W22477  18.495  15.385   4.592 -0.1412  0.2754 -0.1296
 5631W        W22478  19.705   9.907  14.254  0.3248  0.1435 -0.0923
 5632W        W22479  11.710   9.513  10.428  0.0656  0.1908 -0.2092
 5633W        W22480   3.927  19.401   1.800  0.1646 -0.0227  0.1764
 5634W        W22481  15.557   0.507   3.060 -0.1344 -0.3793 -0.2367
 5635W        W22482  12.745   6.742  11.606  0.1661 -0.0447 -0.0844
 5636W        W22483  10.610   6.732   2.789  0.1004  0.0323 -0.0705
 5637W        W22484  18.329  11.994   0.835  0.0882  0.0204  0.0597
 5638W        W22485  16.444  10.847   0.024  0.3725 -0.0103  0.2704
 5639W        W22486  19.684   5.826   3.778 -0.4320 -0.0341 -0.1803
 5640W        W22487  13.540  14.110   0.858 -0.0457 -0.2477  0.0763
 5641W        W22488  15.099  13.688  10.175  0.0449 -0.1039 -0.2058
 5642W        W22489   6.847  14.986   9.278 -0.3582  0.0690 -0.1414
 5643W        W22490   0.474   2.761  13.666  0.1053  0.0102  0.1985
 5644W        W22491   0.355   6.108   9.919 -0.2483 -0.2064  0.2490
 5645W        W22492   3.057   3.742   9.986  0.1455 -0.1350  0.0558
 5646W        W22493  18.780  10.513  14.215 -0.0474  0.0910  0.2005
 5647W        W22494  17.205  16.628  11.209  0.0876  0.1064 -0.0965
 5648W        W22495   8.047   9.001   0.619 -0.0749  0.0696 -0.0172
 5649W        W22496  18.690   0.045   4.395 -0.0692  0.1249  0.0123
 5650W        W22497   8.666   4.096   2.068 -0.0354 -0.1757 -0.0995
 5651W        W22498  11.657   1.845  14.046  0.1238 -0.1514  0.0659
 5652W        W22499  14.137   2.891   1.809  0.0679  0.0478  0.3560
 5653W        W22500  12.506  12.992   0.550 -0.0745  0.1438 -0.2158
 5654W        W22501   5.420   1.308  13.254  0.3441  0.0353  0.0578
 5655W        W22502  19.362  16.523   0.190  0.0054 -0.1358  0.1810
 5656W        W22503  16.161  13.203   1.332 -0.1231 -0.0630  0.2786
 5657W        W22504  10.072  17.578  11.511 -0.2076 -0.0738 -0.1472
 5658W        W22505  14.635  17.871  12.748 -0.0501  0.0386 -0.3034
 5659W        W22506  16.511  16.711   9.715  0.2398  0.0679 -0.0261
 5660W        W22507   4.374   9.405   4.479  0.1448 -0.3765  0.0636
 5661W        W22508   0.086  12.702  13.716 -0.0465  0.1476  0.1046
 5662W        W22509  18.463  10.315   4.503 -0.2382  0.2534 -0.1185
 5663W        W22510  13.712   2.967  11.613  0.0678  0.0716  0.0149
 5664W        W22511  15.706   1.056  10.542 -0.1763  0.2724  0.1848
 5665W        W22512   9.883  14.614   1.395 -0.0712  0.1436 -0.2196
 5666W        W22513   4.379   8.439   0.505  0.1384 -0.1434  0.3115
 5667W        W22514  10.704   2.189  10.449  0.1228 -0.0373 -0.2125
 5668W        W22515   1.570  18.811   2.308  0.2067 -0.1262 -0.1479
 5669W        W22516  17.484   1.278  11.543  0.3965 -0.0908 -0.1136
 5670W        W22517   6.961   7.973   2.156 -0.2326 -0.1748  0.0162
 5671W        W22518   3.740  12.837  13.582  0.0749 -0.1051  0.2693
 5672W        W22519   8.638   5.673  10.820 -0.0480 -0.0932 -0.1102
 5673W        W22520  15.378   9.481   3.591  0.2005  0.2550 -0.2885
 5674W        W22521   0.145  10.420  11.955  0.2907  0.1555 -0.0967
 5675W        W22522   0.323   0.557   2.811  0.0854 -0.2746 -0.3270
 5676W        W22523   1.453  19.395   0.489  0.0809  0.0760 -0.1122
 5677W        W22524   5.249  16.226   1.147 -0.2974 -0.1299 -0.1467
 5678W        W22525   3.921   5.898  11.466  0.1677 -0.2424 -0.4129
 5679W        W22526  13.189   2.534   3.123  0.0533  0.0035 -0.1919
 5680W        W22527   5.490  19.568   2.657  0.2658  0.3169  0.0657
 5681W        W22528   9.606  15.450   1.103  0.3850  0.0138  0.4098
 5682W        W22529  11.297   3.183   0.488  0.1975  0.0464 -0.1848
 5683W        W22530  12.262  17.127  10.413 -0.1092  0.1600 -0.1349
 5684W        W22531  15.779  11.601  11.665  0.3333  0.1051 -0.0811
 5685W        W22532  11.794  13.352   0.122 -0.1233  0.2108  0.0046
 5686W        W22533   4.441  14.135  11.888 -0.1660 -0.2587 -0.1300
 5687W        W22534   5.026   3.263   3.800  0.1503  0.2312  0.0777
 5688W        W22535  18.654   1.929  11.886 -0.0037  0.5156  0.1880
 5689W        W22536   9.885  12.312  13.975 -0.2044 -0.2343  0.4092
 5690W        W22537  11.890  19.771  13.785  0.2034 -0.0383 -0.2891
 5691W        W22538  12.586   5.141   4.487 -0.3502 -0.1465 -0.2411
 5692W        W22539  10.784   4.801   0.779  0.2516  0.1094  0.1050
 5693W        W22540  11.202  17.211   1.005  0.1298  0.0135 -0.0279
 5694W        W22541  14.749  12.109   0.254 -0.0491  0.1966 -0.1967
 5695W        W22542   6.649   3.055  11.377 -0.1161 -0.1633  0.2242
 5696W        W22543  10.728   6.954   9.509  0.0887  0.1189  0.1516
 5697W        W22544  17.449  14.821   3.688 -0.1203 -0.3804 -0.1490
 5698W        W22545   4.117  18.932   0.447  0.0027 -0.1313  0.2032
 5699W        W22546  11.021  10.986   9.840  0.1135  0.0784 -0.2221
 5700W        W22547  19.525   7.898   0.865  0.1825 -0.1099 -0.0706
 5701W        W22548  15.823   3.262   4.396 -0.0044  0.1772 -0.4245
 5702W        W22549   5.339   9.773  13.216  0.2391 -0.4019 -0.2073
 5703W        W22550  17.206   1.833  11.680  0.0238  0.0234  0.3956
 5704W        W22551  17.425  13.237  10.673  0.1064 -0.4088 -0.0055
 5705W        W22552  19.633   6.683  10.602 -0.2888 -0.3067  0.0538
 5706W        W22553  16.686  19.106   0.808  0.3191 -0.1095 -0.0518
 5707W        W22554  18.107   0.580  12.961  0.0758 -0.2722  0.0084
 5708W        W22555   0.620  14.738  12.578 -0.1983 -0.1614 -0.2347
 5709W        W22556   6.765   2.839   4.029 -0.5081 -0.0918 -0.1779
 5710W        W22557   8.801  14.943   1.804 -0.4091 -0.3038  0.2988
 5711W        W22558  18.290  13.947  11.653 -0.0298  0.1226 -0.4498
 5712W        W22559   3.780   2.369   2.975 -0.0385 -0.1188  0.0766
 5713W        W22560   9.800   0.787   4.231 -0.0203  0.2393  0.0961
 5714W        W22561  19.790  10.319   0.057  0.2060 -0.1815  0.2148
 5715W        W22562  15.121  16.970  11.800  0.1134  0.0417 -0.2474
 5716W        W22563  18.709  17.637   3.399  0.0606  0.0707 -0.1124
 5717W        W22564  18.169  11.156   3.687 -0.1833 -0.5106  0.2908
 5718W        W22565   7.998  12.490  10.567  0.3684  0.1320  0.1898
 5719W        W22566   2.374  12.671   2.580  0.2335  0.0342  0.1951
 5720W        W22567   0.598   8.172   2.574 -0.2431 -0.0287 -0.0691
 5721W        W22568  13.308   5.173   2.134  0.1304 -0.0959 -0.2326
 5722W        W22569   4.809   0.947   3.884 -0.0983  0.2555 -0.1199
 5723W        W22570  19.749   5.175  10.142 -0.1919  0.0375  0.0662
 5724W        W22571   2.510  19.880  12.751  0.0100  0.1613 -0.3795
 5725W        W22572   8.131   0.856   4.188  0.1123 -0.0995  0.1442
 5726W        W22573  15.502   2.962   1.354 -0.0214  0.2546  0.1761
 5727W        W22574   6.024  18.349   1.935 -0.0210  0.1498 -0.2706
 5728W        W22575   1.659  16.819   1.228  0.0360 -0.0151 -0.0411
 5729W        W22576   9.434   5.420  10.506  0.0466 -0.0630  0.1734
 5730W        W22577  15.591  18.253   2.529 -0.1157 -0.1911 -0.2624
 5731W        W22578  19.403   0.431  11.640 -0.0694 -0.2192 -0.0159
 5732W        W22579   1.046   0.927  14.032  0.3862  0.0070 -0.3636
 5733W        W22580   6.802  10.333   1.329  0.0549  0.1896  0.1899
 5734W        W22581  18.544   7.423   4.498 -0.1189 -0.0819 -0.1240
 5735W        W22582  17.551  11.846   3.375 -0.3745 -0.1112  0.0454
 5736W        W22583  19.544  17.253  10.518 -0.0871  0.2376 -0.3824
 5737W        W22584   4.936   5.417   2.714 -0.1289 -0.0095  0.1251
 5738W        W22585   3.104   2.185   1.412  0.1576 -0.1739 -0.2007
 5739W        W22586  13.836   5.894   4.348  0.2280 -0.0853  0.1533
 5740W        W22587   9.847   3.298   1.758  0.2899 -0.0381 -0.1141
 5741W        W22588  14.638   6.205   0.466  0.0316  0.0165  0.0189
 5742W        W22589  19.566   6.279  14.091 -0.2590  0.1121  0.1412
 5743W        W22590  11.363  15.599   9.056  0.2149 -0.0249  0.2639
 5744W        W22591  19.642   8.942  13.006 -0.0191 -0.3791  0.2039
 5745W        W22592   7.169  16.691  11.079  0.1632  0.2338  0.1931
 5746W        W22593   4.890  17.685  12.148  0.2119  0.1480  0.0201
 5747W        W22594  10.815   6.456   4.032  0.2782  0.1786 -0.1914
 5748W        W22595  18.290  14.386   0.338  0.0944  0.1171 -0.0081
 5749W        W22596  11.857  10.475  12.176  0.0409 -0.0607 -0.2641
 5750W        W22597  10.452   4.688  12.081 -0.2155  0.0965  0.0889
 5751W        W22598  16.862   6.090  13.168 -0.0463  0.2783 -0.1418
 5752W        W22599  16.339  15.304   2.993 -0.1791  0.0331  0.1863
 5753W        W22600  19.779   7.192   4.079 -0.4941 -0.1520 -0.2928
 5754W        W22601   6.886   3.111  12.747 -0.0846  0.2185  0.0405
 5755W        W22602   1.492  12.877  11.280  0.2499 -0.0922 -0.4036
 5756W        W22603   9.556   7.284   4.297 -0.0385  0.0462 -0.1099
 5757W        W22604  14.339  13.177   8.874  0.5389 -0.1200  0.0658
 5758W        W22605   3.337   3.158   3.854  0.3352  0.1502  0.0528
 5759W        W22606  14.108  14.700   1.969 -0.1476  0.0442 -0.0883
 5760W        W22607   7.657   2.083  13.013 -0.1718 -0.0924  0.0809
 5761W        W22608  10.959  13.709  10.954 -0.0586 -0.0289 -0.0985
 5762W        W22609  15.598   9.082  13.428  0.1680  0.0366  0.0124
 5763W        W22610  12.993   5.092   1.622  0.1621  0.3587 -0.0030
 5764W        W22611   1.216  19.558   2.773 -0.1258  0.2367  0.1505
 5765W        W22612   8.197  16.395  10.862 -0.0187 -0.1671  0.0178
 5766W        W22613   0.942  18.287   3.920 -0.4831  0.0516 -0.0182
 5767W        W22614   5.659   7.717  11.005 -0.2043 -0.0381 -0.2419
 5768W        W22615  13.373  19.624   1.549  0.0063 -0.0243 -0.1536
 5769W        W22616   2.180   0.622  10.848 -0.0393  0.2304 -0.0890
 5770W        W22617   8.603   9.195   4.371  0.2214 -0.1433 -0.0946
 5771W        W22618   0.081   4.895   3.858  0.2850  0.2333  0.1855
 5772W        W22619   1.167  12.586   3.058  0.1308  0.0298 -0.0161
 5773W        W22620   0.242   6.575   2.215 -0.0918  0.2595 -0.1180
 5774W        W22621   2.066  15.896  13.305  0.1608  0.1466  0.2240
 5775W        W22622  18.666  17.030  14.114 -0.0351 -0.2356  0.1480
 5776W        W22623  18.031   2.969   3.069  0.0299  0.3061 -0.0802
 5777W        W22624  19.467   7.254  13.266  0.1805 -0.4633  0.0520
 5778W        W22625  15.645   4.544  13.867 -0.1726 -0.0809 -0.1011
 5779W        W22626   9.753  11.297   9.533  0.1282  0.1227  0.1008
 5780W        W22627   5.928   2.147   4.234  0.2522 -0.2018 -0.1081
 5781W        W22628  17.636   0.749   9.699 -0.1183 -0.1174  0.2709
 5782W        W22629  10.408   5.571  11.520 -0.0484  0.0612 -0.1611
 5783W        W22630   6.413   7.021   3.205  0.2838  0.1037 -0.0981
 5784W        W22631  17.950  15.491  13.430  0.0424  0.0173  0.0539
 5785W        W22632   0.048  19.864  14.154  0.2574  0.1309  0.2789
 5786W        W22633  15.142  18.687  10.492  0.1091 -0.1472 -0.2356
 5787W        W22634  15.209  12.197  13.508  0.0475  0.0420 -0.0621
 5788W        W22635   6.571  12.632   4.251  0.0631 -0.0477 -0.1647
 5789W        W22636  12.012  10.943   9.933 -0.2282  0.4343  0.0754
 5790W        W22637  16.549   7.882   4.328 -0.0986 -0.1148  0.0666
 5791W        W22638  12.350   4.082  12.813 -0.0548 -0.0188  0.4125
 5792W        W22639  16.355  17.253   2.743 -0.1073 -0.0356  0.0509
 5793W        W22640   9.750  16.028   3.325  0.0183 -0.1976  0.0545
 5794W        W22641   3.803  13.507   3.184  0.0800  0.1466 -0.4020
 5795W        W22642  12.792   5.676  12.052 -0.0553 -0.0558  0.0780
 5796W        W22643  11.546   9.396   2.488 -0.0675 -0.1325  0.0338
 5797W        W22644  16.771  15.371  11.127 -0.1932  0.3778  0.1588
 5798W        W22645   9.683  18.156   4.778 -0.2188 -0.3313  0.1251
 5799W        W22646  16.238   2.216  13.706 -0.2521  0.0266 -0.1105
 5800W        W22647   9.362  16.386   2.725 -0.2709  0.3009 -0.1307
 5801W        W22648  13.889  12.715  13.476  0.2589 -0.3045 -0.2169
 5802W        W22649   7.320  17.396   2.392  0.1932 -0.1408  0.0569
 5803W        W22650   9.977  17.554   1.595  0.0515  0.0873 -0.3881
 5804W        W22651   1.964  12.072   0.272 -0.3753  0.2135  0.0121
 5805W        W22652  11.013   3.581  10.255  0.0131 -0.3700  0.0923
 5806W        W22653   0.858   0.461  12.863  0.0692  0.1551 -0.1856
 5807W        W22654  17.981   7.809   3.270 -0.3559 -0.0828 -0.0986
 5808W        W22655   5.939  11.407   3.459 -0.0871 -0.2350 -0.2269
 5809W        W22656   4.329   8.149   2.377  0.3047 -0.1960 -0.0683
 5810W        W22657   7.169   2.667   1.622 -0.2377  0.0160 -0.4419
 5811W        W22658   8.149  17.576   1.413 -0.3164  0.0179 -0.1946
 5812W        W22659  19.067   7.109  12.286  0.0244  0.0674  0.0000
 5813W        W22660   0.960  17.325   4.068 -0.1487  0.2379 -0.1794
 5814W        W22661   7.965  10.389   2.019 -0.1855  0.1141  0.1594
 5815W        W22662  14.068  14.842  10.530 -0.1671  0.0445  0.0580
 5816W        W22663   1.719  11.939   4.024  0.0034 -0.3032 -0.0514
 5817W        W22664   4.462   3.451   2.989  0.0076  0.3598 -0.1653
 5818W        W22665   9.425   2.041   1.318 -0.0265  0.0246  0.0359
 5819W        W22666  19.409   1.926   5.023  0.3860 -0.2941  0.0514
 5820W        W22667   0.860   0.711   2.640 -0.0437  0.0778  0.0572
 5821W        W22668  11.349   3.768   5.192 -0.0850 -0.1244 -0.1070
 5822W        W22669   5.632  10.155   4.765 -0.2303 -0.1785  0.0586
 5823W        W22670  17.122  12.453   2.995  0.0989 -0.3297  0.0607
 5824W        W22671   7.638   0.204   0.520 -0.1283  0.1950  0.0146
 5825W        W22672   8.361  17.471   2.331  0.0113 -0.2811 -0.0666
 5826W        W22673  18.534   6.475  12.943 -0.3254  0.0183  0.1392
 5827W        W22674   7.105   1.782   4.445  0.1592  0.2604  0.0893
 5828W        W22675   9.948  17.350  12.910 -0.1656  0.4684  0.2191
 5829W        W22676   7.595  13.543   3.934  0.0259 -0.1676  0.1848
 5830W        W22677   9.503   0.528   5.095  0.2885  0.3178  0.0885
 5831W        W22678   7.799   3.178  10.982 -0.0104  0.1341 -0.1605
 5832W        W22679   8.297  15.895   0.962 -0.1897  0.0747  0.2233
 5833W        W22680   3.248   2.104   2.081  0.1133  0.0468 -0.0191
 5834W        W22681   2.455   3.995  12.798 -0.1475  0.0781 -0.3471
 5835W        W22682   1.903   8.178  11.130 -0.1595 -0.0666 -0.1703
 5836W        W22683   1.118  14.834  10.827 -0.0393  0.1553 -0.1435
 5837W        W22684  14.693   4.613   0.705 -0.1470 -0.0721 -0.0462
 5838W        W22685  10.942   1.446  11.348  0.0757 -0.0502 -0.1057
 5839W        W22686   2.407  14.504  10.504  0.1574  0.0387  0.1631
 5840W        W22687  15.042  10.479   3.852 -0.1194 -0.2186 -0.2573
 5841W        W22688   2.858  13.698  13.000 -0.2114  0.2089  0.0243
 5842W        W22689  17.574  16.911  14.122  0.0415 -0.1350  0.0149
 5843W        W22690  17.946  10.084  12.948  0.2129  0.2910  0.0445
 5844W        W22691  10.890  17.722  12.967 -0.2580  0.1878  0.0953
 5845W        W22692   4.655   8.917   3.440  0.1287 -0.0585  0.2631
 5846W        W22693  16.906  18.906  11.943  0.1002  0.0146 -0.1114
 5847W        W22694  11.790  17.289  10.295 -0.1936  0.0286 -0.1702
 5848W        W22695  14.316  17.768   2.831 -0.2395 -0.2042  0.0146
 5849W        W22696   3.530   7.527   0.865  0.2202  0.0226  0.4679
 5850W        W22697   6.758  14.889   2.249 -0.1185  0.1569  0.0810
 5851W        W22698  10.897  10.161  10.768  0.1720 -0.1596 -0.1646
 5852W        W22699   8.278  10.043  13.340 -0.0180 -0.0267 -0.1072
 5853W        W22700   5.740  17.473   2.757  0.1089 -0.0415 -0.2700
 5854W        W22701   3.707  17.466   0.597 -0.1230  0.4063  0.0163
 5855W        W22702  11.682   8.481   2.722  0.2990 -0.1929  0.2134
 5856W        W22703   7.270  15.765   1.647 -0.1068  0.1000  0.4409
 5857W        W22704   8.669   3.565   2.883  0.0205  0.2085 -0.0102
 5858W        W22705  10.882   6.368  13.234  0.1105  0.0234 -0.2014
 5859W        W22706   6.638   6.275  13.206  0.0678  0.3015  0.3238
 5860W        W22707  13.357   7.179   1.798 -0.1508 -0.4761  0.0905
 5861W        W22708  12.245   4.493   4.249 -0.0272  0.0326  0.0552
 5862W        W22709  10.716   1.490  13.838 -0.1081  0.0073 -0.0610
 5863W        W22710   5.976   8.061  11.885 -0.0898 -0.1056  0.0059
 5864W        W22711  12.535  17.396   5.254  0.0419  0.0022 -0.3014
 5865W        W22712   5.607   6.699  13.850  0.1311  0.1405  0.0644
 5866W        W22713  18.570   4.137   1.313  0.0296  0.2808 -0.2074
 5867W        W22714   7.181   9.072   4.893  0.1316  0.1056  0.1073
 5868W        W22715  17.467  13.387  12.488 -0.0056  0.0064 -0.2439
 5869W        W22716   3.537   7.248   3.366 -0.2522 -0.0459  0.0683
 5870W        W22717  13.669  15.289   4.956  0.0789 -0.0038  0.0264
 5871W        W22718  18.906   2.067   2.277 -0.0728 -0.0789  0.2515
 5872W        W22719  14.686   2.289   0.059 -0.0823  0.3090  0.3204
 5873W        W22720  17.255  16.140  11.275  0.3613  0.0228 -0.0976
 5874W        W22721   0.957   6.311  13.996  0.2510  0.0660  0.3827
 5875W        W22722   8.479  12.032  12.812  0.1136 -0.2791  0.0182
 5876W        W22723   6.606  13.858  13.750 -0.4929  0.0197 -0.1030
 5877W        W22724   3.945   6.891  13.552  0.0992 -0.1858  0.1313
 5878W        W22725  12.686  13.645   1.732  0.1651 -0.0491  0.0791
 5879W        W22726  18.399   9.257  13.700  0.4599 -0.2789  0.3572
 5880W        W22727   5.430  15.478  14.010 -0.0226 -0.0363  0.0601
 5881W        W22728   6.385  19.520   0.526 -0.2139 -0.3467  0.4363
 5882W        W22729   8.501   3.415  13.495 -0.2343  0.1113  0.3363
 5883W        W22730  10.739  14.173   0.834 -0.0384  0.2381  0.0003
 5884W        W22731  18.350  17.134   5.128  0.0452 -0.1760  0.0939
 5885W        W22732  18.131   8.198  12.104 -0.0741 -0.0407  0.1310
 5886W        W22733  14.204  17.691  12.506  0.1987  0.2358 -0.1329
 5887W        W22734   9.020  14.091   0.930  0.1254 -0.1614 -0.3095
 5888W        W22735   1.560  16.638  13.957  0.0347  0.0235  0.2233
 5889W        W22736   6.588   1.487  12.758  0.1398  0.4023  0.1062
 5890W        W22737   8.189   1.595  10.660  0.2657  0.4010 -0.2081
 5891W        W22738   0.427  13.967  10.958 -0.1703  0.4857 -0.1972
 5892W        W22739  11.406  12.941   4.115  0.5576 -0.1918 -0.0318
 5893W        W22740   8.119  15.199   0.533 -0.0526 -0.0885  0.0111
 5894W        W22741  13.473   5.527   4.276  0.0382  0.3395  0.2822
 5895W        W22742   4.488   5.257  12.425  0.0483 -0.1306  0.0596
 5896W        W22743   1.051   7.848   2.611  0.0934  0.1224  0.0987
 5897W        W22744   1.982   3.851   0.916 -0.1585  0.0362  0.3308
 5898W        W22745   1.046   3.439   3.210 -0.0795  0.0175  0.0255
 5899W        W22746   8.207   6.514   1.323  0.0144  0.0100 -0.0840
 5900W        W22747   3.983   4.680   1.732 -0.1515 -0.0413 -0.0698
 5901W        W22748  19.080  17.315  10.266 -0.2386 -0.0396 -0.0881
 5902W        W22749  18.034  11.970  11.894  0.1001 -0.2986 -0.1889
 5903W        W22750  11.326  13.827  10.132  0.3189 -0.3069 -0.0330
 5904W        W22751  18.217   3.493  11.216 -0.0883 -0.1088  0.1335
 5905W        W22752   6.627   6.770  11.227 -0.0433  0.0287 -0.0341
 5906W        W22753  16.934  13.568  12.464 -0.2602 -0.1337 -0.0621
 5907W        W22754  16.597  17.785   0.758  0.0239  0.0614  0.2566
 5908W        W22755   2.323   1.013   1.713 -0.2068  0.1563  0.0254
 5909W        W22756  19.112   8.422   2.518  0.2039  0.0485 -0.2726
 5910W        W22757  11.870  13.477  10.611 -0.2484 -0.1816  0.1495
 5911W        W22758  19.319  12.520   0.967  0.2669  0.1137 -0.2287
 5912W        W22759  19.512   9.991  13.276  0.0732  0.0737 -0.0873
 5913W        W22760   3.772  14.098  14.049 -0.0959  0.0040 -0.1265
 5914W        W22761   4.367   9.136   0.487  0.0155  0.0093 -0.4048
 5915W        W22762   3.932  11.541   3.062  0.0047  0.4000  0.2305
 5916W        W22763   2.163  19.792  13.257 -0.2354  0.1242  0.3254
 5917W        W22764   8.521   7.595   9.891 -0.4350 -0.2793  0.0033
 5918W        W22765  11.515   1.594   3.684  0.2919  0.1449  0.2506
 5919W        W22766   0.526  15.501   2.550  0.0514  0.1044 -0.2801
 5920W        W22767  14.311  16.704   1.701 -0.2602 -0.0966 -0.1349
 5921W        W22768   5.984  10.418  10.729  0.3309 -0.2032  0.2293
 5922W        W22769  12.334   9.739  10.528 -0.0331  0.1317  0.1925
 5923W        W22770   8.474  17.451  10.700  0.0211 -0.0656  0.3031
 5924W        W22771   1.903   6.052   4.556 -0.1102 -0.3943 -0.3409
 5925W        W22772  15.732  17.350   0.053 -0.0826 -0.0997  0.2366
 5926W        W22773   5.154  14.952   2.646  0.4190 -0.1314  0.0705
 5927W        W22774   9.110  11.862   2.040  0.0547 -0.0287 -0.3428
 5928W        W22775  14.397   2.209  12.824  0.1931 -0.0442 -0.2457
 5929W        W22776  13.085   9.852  11.007 -0.0885  0.2473  0.0349
 5930W        W22777  13.457  15.886  13.777 -0.2627 -0.1139  0.2008
 5931W        W22778  16.674   1.129  13.686 -0.1031  0.3244  0.1573
 5932W        W22779  18.606   6.153   2.061 -0.0428 -0.0154  0.2747
 5933W        W22780   7.402  17.685  11.804 -0.0988 -0.0778 -0.0006
 5934W        W22781   5.548  18.030   2.277  0.0538 -0.1798 -0.1987
 5935W        W22782   5.829  15.229  14.260 -0.0891 -0.1682 -0.0053
 5936W        W22783   3.138   6.815  14.288  0.0563 -0.4458 -0.1179
 5937W        W22784   8.646  16.093   1.490 -0.1118  0.0549  0.0920
 5938W        W22785   0.415  16.705   4.990  0.1075 -0.0969 -0.1102
 5939W        W22786   4.174   7.551  12.542 -0.2053 -0.0429  0.0811
 5940W        W22787   8.997  19.172   0.650 -0.0348 -0.1170  0.0510
 5941W        W22788   9.469  15.502  13.811 -0.2705 -0.2798  0.1118
 5942W        W22789  10.055  15.630  12.741 -0.2642 -0.2011 -0.0763
 5943W        W22790  17.014  18.126   4.361  0.1335 -0.1406 -0.4331
 5944W        W22791   7.858   4.944   1.084 -0.2291 -0.0432  0.2074
 5945W        W22792   3.039  19.352  10.054  0.2383  0.4581  0.2420
 5946W        W22793   2.220   8.967   3.113 -0.2819  0.1638  0.2365
 5947W        W22794   0.240   5.916  10.810 -0.0986 -0.4529  0.3239
 5948W        W22795  13.280  15.258  11.191 -0.1729 -0.1725  0.1366
 5949W        W22796  14.641  17.972   3.731 -0.2250  0.0477  0.1174
 5950W        W22797   3.877   3.426   3.649  0.1401  0.3076  0.0413
 5951W        W22798   7.418  16.840  10.575  0.2676 -0.0793 -0.2983
 5952W        W22799   9.131   8.508  13.548 -0.2774 -0.1890 -0.0172
 5953W        W22800   8.434  10.799   2.038  0.3740  0.0900 -0.2364
 5954W        W22801  11.345  17.452   9.944 -0.1786  0.0348  0.0952
 5955W        W22802  11.045   1.790   1.958  0.1206  0.1748 -0.0080
 5956W        W22803   4.780   7.825   3.027 -0.2299  0.1016  0.2317
 5957W        W22804   5.534   8.467   2.648  0.0330  0.3175 -0.0339
 5958W        W22805   3.291  12.159   2.657 -0.0387  0.1063 -0.3150
 5959W        W22806   0.587   8.215  11.509 -0.0347  0.0412 -0.0415
 5960W        W22807  11.218  16.144   0.833 -0.0280  0.0409 -0.2223
 5961W        W22808   5.658  11.143   3.192  0.2477  0.2369  0.5183
 5962W        W22809   0.938   3.464   4.254 -0.2928 -0.2155  0.3345
 5963W        W22810   9.740  19.731  11.656  0.1312  0.5382  0.0046
 5964W        W22811   2.969   8.508   0.551  0.2051 -0.1973  0.2542
 5965W        W22812   2.763  12.715   0.267 -0.1933 -0.2027  0.0099
 5966W        W22813  18.586   0.235   2.162 -0.1144  0.2878 -0.0223
 5967W        W22814  12.216   6.722   5.466 -0.0105 -0.4055  0.1138
 5968W        W22815   6.382  15.075   3.159 -0.1440 -0.1323 -0.1698
 5969W        W22816   9.213   0.540  12.463 -0.4495 -0.0798 -0.2340
 5970W        W22817  10.109   7.278   4.620  0.2732  0.0783 -0.2030
 5971W        W22818  16.627   6.240   8.378  0.3246 -0.1113 -0.1697
 5972W        W22819   1.354  14.324   9.317  0.0768 -0.0525 -0.2511
 5973W        W22820   9.290  18.001  11.373  0.0276 -0.1855  0.0568
 5974W        W22821  13.469   7.119  10.439 -0.2061 -0.4272 -0.1461
 5975W        W22822  15.170   8.247   2.514 -0.0867 -0.0009  0.0248
 5976W        W22823   4.378   8.036  10.272 -0.3935 -0.1481  0.3915
 5977W        W22824   3.735  15.848   3.247  0.1223  0.1074 -0.2582
 5978W        W22825  11.358   9.768   1.997 -0.0424 -0.3173 -0.1244
 5979W        W22826  17.266  19.112  14.270  0.0211 -0.1331  0.1606
 5980W        W22827   8.368  12.980   1.722 -0.2097 -0.0672 -0.3940
 5981W        W22828   2.374  16.350  10.705  0.2061 -0.0134 -0.2203
 5982W        W22829  15.928  13.086  10.855 -0.3207  0.1646  0.3132
 5983W        W22830   0.447  16.191  11.760  0.3140  0.0579  0.0493
 5984W        W22831   3.987   1.421  11.972  0.0789 -0.1976 -0.2724
 5985W        W22832  10.974  16.900   0.126 -0.2165 -0.0892  0.2120
 5986W        W22833  14.888  11.806  14.245 -0.1827 -0.1537 -0.0981
 5987W        W22834  11.258  18.236  11.419 -0.1336 -0.0491 -0.0465
 5988W        W22835   9.667  19.790  12.304  0.1837  0.1315  0.0662
 5989W        W22836  17.061   7.243   2.165 -0.2554 -0.0248 -0.4048
 5990W        W22837   6.698  15.506  13.473  0.1637 -0.0204 -0.1952
 5991W        W22838   0.656   4.428   1.271  0.0644 -0.0344  0.0837
 5992W        W22839   4.411  17.715   3.580 -0.2933 -0.0852 -0.1427
 5993W        W22840  15.938   0.642  10.363 -0.3466  0.1855  0.2161
 5994W        W22841   4.738  13.758  10.544  0.0273 -0.0737 -0.1459
 5995W        W22842   5.592   2.235   2.980 -0.0093  0.0907 -0.0213
 5996W        W22843   4.565  13.179  14.333 -0.0417  0.2249  0.2241
 5997W        W22844  10.440  18.190  10.743 -0.0903  0.0739  0.0562
 5998W        W22845  16.450   6.238   8.866  0.2832 -0.1754 -0.3407
 5999W        W22846  17.004   5.107  10.908  0.2698 -0.0910  0.2640
 6000W        W22847   1.272  18.660   5.208 -0.1773  0.0209  0.0323
 6001W        W22848  19.633   4.706  13.880  0.2032 -0.1636  0.1958
 6002W        W22849  18.142  11.827  13.931 -0.2768 -0.0757 -0.2995
 6003W        W22850  19.371  15.738  10.538  0.4667 -0.1085  0.3596
 6004W        W22851   1.466  16.425   2.719 -0.1477  0.3141  0.5036
 6005W        W22852  12.880   9.324  12.947  0.1111  0.0176  0.1094
 6006W        W22853  12.863  17.792   3.954  0.0574  0.1771 -0.2687
 6007W        W22854  18.037   7.938  13.804 -0.3380  0.1445 -0.3189
 6008W        W22855  13.060  17.367   4.213  0.1488 -0.1966  0.1410
 6009W        W22856  11.197  19.448   9.253 -0.1774 -0.6709 -0.2472
 6010W        W22857  12.916  13.225   0.346  0.1802 -0.1564 -0.0489
 6011W        W22858   8.914   1.272   1.313 -0.1036 -0.1854 -0.2204
 6012W        W22859  13.260   0.375   2.887  0.1549  0.1299  0.5312
 6013W        W22860  14.193  15.542  12.021  0.1753 -0.1111  0.2577
 6014W        W22861  12.070   0.469   1.347  0.1808 -0.0975  0.2148
 6015W        W22862  13.426   9.625  14.083 -0.2646  0.2678 -0.2155
 6016W        W22863  18.131   6.010  13.006  0.0465  0.0084 -0.3725
 6017W        W22864  11.502   5.357  11.011  0.1941 -0.1695  0.0852
 6018W        W22865   3.511   9.432   0.299  0.2434 -0.0922  0.2395
 6019W        W22866  18.123   9.706  13.408 -0.2795  0.0481  0.0696
 6020W        W22867   9.861   1.153  11.047 -0.0522  0.3523 -0.0362
 6021W        W22868  17.839  17.753   4.247 -0.0977 -0.0345 -0.0180
 6022W        W22869   3.427   2.894   2.049  0.1593  0.5448  0.0593
 6023W        W22870  10.307   3.349   4.182 -0.2657 -0.0965 -0.0222
 6024W        W22871  17.481   5.023  11.819  0.0537  0.1825 -0.3166
 6025W        W22872   8.738   0.452  13.046 -0.0171 -0.2851  0.2627
 6026W        W22873   0.949   8.722   0.998 -0.1192  0.1408 -0.2833
 6027W        W22874   6.662  18.689  14.049  0.4433 -0.1328  0.5244
 6028W        W22875  13.737   9.504   2.579 -0.1741 -0.2359  0.0041
 6029W        W22876   8.045   8.919  12.875  0.1115  0.1250  0.1884
 6030W        W22877   7.528  18.592   2.982  0.0696 -0.5294  0.0669
 6031W        W22878  11.611  18.573   1.320  0.0424 -0.0359 -0.1535
 6032W        W22879   3.027  14.972   2.159 -0.1304 -0.1134 -0.0192
 6033W        W22880  14.287   5.199   3.662  0.1198 -0.2886 -0.1587
 6034W        W22881  14.022  15.924  10.798 -0.0577  0.1504 -0.5331
 6035W        W22882  17.694   1.060   5.143 -0.2855  0.0472 -0.3123
 6036W        W22883   2.359  19.446  12.482 -0.3136 -0.0013 -0.0905
 6037W        W22884   3.713  11.201  10.748 -0.0942  0.0015 -0.2038
 6038W        W22885  15.209   3.946  12.479  0.0212  0.0013  0.0692
 6039W        W22886  19.332   4.265   3.349 -0.0171 -0.0297  0.1537
 6040W        W22887   7.521   4.505   3.919 -0.0655  0.1662 -0.0901
 6041W        W22888  17.740  13.408   4.817  0.0416 -0.2652 -0.3566
 6042W        W22889  18.119   1.307  13.814 -0.1207 -0.4662  0.0934
 6043W        W22890  12.138  12.591   3.024  0.0699  0.0088  0.2100
 6044W        W22891  11.786   8.726   1.721  0.1680 -0.0018  0.0498
 6045W        W22892  14.243  17.897  11.929  0.2098  0.0452  0.4126
 6046W        W22893   7.752  18.189   2.684 -0.1743  0.2188 -0.0974
 6047W        W22894   0.246   4.307   2.039 -0.0651 -0.0404  0.2683
 6048W        W22895  16.432  15.050   4.878 -0.2317  0.0146 -0.0128
 6049W        W22896   0.932  10.551  12.616  0.1835 -0.0049 -0.2791
 6050W        W22897   4.303   1.368  11.058 -0.0150 -0.1157 -0.5160
 6051W        W22898   9.909  16.112   4.479  0.1526 -0.0854  0.1992
 6052W        W22899  15.738   7.821   5.027 -0.0417  0.0711 -0.1675
 6053W        W22900   7.217  17.251  13.402  0.0362  0.0105  0.0306
 6054W        W22901   9.275  18.847   1.023  0.1151 -0.0286 -0.2907
 6055W        W22902   9.028   5.218  11.454 -0.1046  0.2192 -0.1541
 6056W        W22903  16.341   0.692  13.056 -0.4498 -0.2811 -0.0973
 6057W        W22904  14.996   0.597  13.123 -0.2737 -0.1310 -0.0059
 6058W        W22905  19.625   9.615   2.233 -0.2013 -0.1353  0.2027
 6059W        W22906   2.437   3.787  13.323  0.4173  0.0396  0.1070
 6060W        W22907   3.084  19.473   3.227  0.0421  0.1830 -0.3761
 6061W        W22908  14.787   7.060  12.190 -0.0895 -0.1604 -0.0892
 6062W        W22909   3.212  19.273  13.792  0.2780  0.2727 -0.3257
 6063W        W22910   5.631  17.220  13.025 -0.0761  0.4522 -0.1641
 6064W        W22911   3.522  14.860   0.990  0.1160  0.2942 -0.2543
 6065W        W22912   7.787  10.722   1.324  0.1960 -0.1227 -0.0629
 6066W        W22913   0.901  15.609  12.391 -0.0704  0.2185 -0.0117
 6067W        W22914  19.682   0.325   0.768  0.0227  0.0443  0.2328
 6068W        W22915  10.715  15.788  13.709 -0.0504 -0.1221  0.3886
 6069W        W22916  10.904   2.642  13.652 -0.0109 -0.1787 -0.0010
 6070W        W22917   9.311   6.968   2.954 -0.0901  0.1666 -0.1986
 6071W        W22918  14.225   9.863   1.039 -0.0584  0.1919 -0.0611
 6072W        W22919   1.434   9.159  11.705  0.3589  0.2439  0.1251
 6073W        W22920  14.170  15.286   1.197 -0.0914 -0.1404  0.0564
 6074W        W22921  13.169  16.086  12.614 -0.1229  0.3473  0.1045
 6075W        W22922   3.901   6.550   5.402  0.1449 -0.0561 -0.0368
 6076W        W22923  13.282   2.211  10.347 -0.1527  0.0195 -0.0402
 6077W        W22924   0.971  11.839  11.840 -0.1850  0.2739  0.1138
 6078W        W22925  15.360   8.520  13.607  0.1613 -0.1874  0.1574
 6079W        W22926   0.970   6.896  11.521 -0.2296 -0.0378  0.0827
 6080W        W22927   8.789  15.006   4.553 -0.1881  0.0570 -0.0194
 6081W        W22928   9.727  16.720   2.931  0.2988 -0.0298 -0.2710
 6082W        W22929  11.656   4.092  11.863  0.1597  0.0622  0.0083
 6083W        W22930   7.344   3.327  12.967  0.0604 -0.2775  0.0763
 6084W        W22931   5.932  12.377   0.513  0.0515  0.1339 -0.0076
 6085W        W22932   6.460   9.870   0.443 -0.3240  0.0810 -0.0055
 6086W        W22933  13.129   8.546   3.374  0.4400 -0.0817  0.0743
 6087W        W22934   4.389   9.373  11.329  0.1540 -0.1098 -0.1404
 6088W        W22935   8.488   0.193  10.337 -0.0854 -0.0730  0.0136
 6089W        W22936  11.563   7.107  13.282  0.0044 -0.0056  0.0143
 6090W        W22937   6.682  19.130   3.495  0.3590 -0.0548 -0.1749
 6091W        W22938   4.128   8.442   0.961 -0.3043  0.1303  0.1237
 6092W        W22939   4.801  13.240  12.192  0.2195  0.0136  0.2661
 6093W        W22940   1.531  11.853  11.729  0.2740 -0.0483 -0.2889
 6094W        W22941  15.359  14.501   2.226  0.0479  0.3515 -0.1924
 6095W        W22942  15.936  16.130  10.421  0.2622  0.0444  0.0808
 6096W        W22943   5.940   0.136   3.832 -0.1063  0.3151  0.5372
 6097W        W22944   7.379   7.941  12.630  0.1541  0.0238 -0.3768
 6098W        W22945  10.139   1.491   3.639 -0.0383  0.2580  0.1324
 6099W        W22946  15.608  18.110  12.952  0.1926 -0.0017 -0.2100
 6100W        W22947  17.931   5.071  11.596  0.1183  0.1899 -0.1975
 6101W        W22948  12.902   8.900  12.163 -0.1036 -0.2266 -0.0500
 6102W        W22949  12.487   9.761  11.218 -0.3705 -0.3342 -0.3496
 6103W        W22950   0.548  12.221  10.576  0.0434  0.1143 -0.3755
 6104W        W22951   1.446   2.732   1.682 -0.6335 -0.3723 -0.0908
 6105W        W22952  19.572   2.481  10.537  0.1846 -0.0656 -0.1684
 6106W        W22953  14.826  17.334   1.980  0.1730  0.3594 -0.1396
 6107W        W22954   2.694   6.663   4.404  0.3337  0.3551 -0.1270
 6108W        W22955   6.663  18.081  13.995 -0.1722  0.1447 -0.1396
 6109W        W22956   5.901   1.239   1.931 -0.2110  0.0300 -0.0542
 6110W        W22957  18.374   3.831   2.746  0.1605 -0.0428 -0.1345
 6111W        W22958   8.009  11.378  12.347 -0.1335  0.1016 -0.2266
 6112W        W22959   3.868   0.612  12.173  0.0968 -0.0639  0.3884
 6113W        W22960   5.592   0.943  10.013  0.0948 -0.0166  0.3231
 6114W        W22961   7.305   0.107   3.320 -0.1448 -0.1939 -0.0558
 6115W        W22962   7.464  11.995  12.264 -0.1310 -0.2563  0.1731
 6116W        W22963   5.359   2.832  12.515 -0.1693 -0.1413  0.0945
 6117W        W22964   0.432   1.727   1.656  0.2635 -0.0060  0.1505
 6118W        W22965   3.678  19.832   2.595  0.0526  0.1253 -0.2146
 6119W        W22966   4.493   9.627  10.818  0.0283 -0.1365 -0.0109
 6120W        W22967  19.584   5.446   0.489 -0.1721 -0.2723 -0.0327
 6121W        W22968   5.419   3.606   0.736  0.1489 -0.1093 -0.2772
 6122W        W22969  17.291   4.122   0.590 -0.3985  0.0235  0.2055
 6123W        W22970   4.493  19.242   0.551 -0.2042  0.0105 -0.5501
 6124W        W22971  13.685  16.051   1.678  0.0877 -0.3745 -0.1284
 6125W        W22972  17.049  15.894  11.985 -0.1947  0.1302 -0.0494
 6126W        W22973  16.687  10.032   4.062  0.1436 -0.3246  0.1118
 6127W        W22974  17.309   3.814  13.724  0.2434  0.1876 -0.1471
 6128W        W22975   1.207   1.246   3.802  0.2673  0.3933 -0.2230
 6129W        W22976   6.451   8.897   3.359  0.0188 -0.1388  0.1653
 6130W        W22977   4.714  13.456  13.474 -0.0653 -0.3760  0.2766
 6131W        W22978  17.817   6.152   1.443  0.1894  0.2054 -0.0131
 6132W        W22979  16.333  14.004  10.725  0.1196 -0.2634 -0.0391
 6133W        W22980  12.351   9.532   0.880  0.2674 -0.1048  0.1146
 6134W        W22981  14.328  10.434   0.958  0.1554 -0.1020  0.1129
 6135W        W22982   7.914  15.508   5.323 -0.0268 -0.2656  0.1244
 6136W        W22983   1.745   1.172  12.062 -0.1731  0.1130  0.1972
 6137W        W22984  13.277   8.818   0.074 -0.2079 -0.1336 -0.2015
 6138W        W22985  12.855  10.143  11.372 -0.3281  0.0150  0.0126
 6139W        W22986   4.472   0.866  11.759 -0.2523  0.3607 -0.0171
 6140W        W22987  10.310  12.778   5.145 -0.1688  0.2135  0.2415
 6141W        W22988   7.563   7.965  13.994  0.2455  0.2214  0.0886
 6142W        W22989   3.787  11.064   4.773 -0.4230 -0.2081 -0.0713
 6143W        W22990   4.281  17.401  13.708 -0.1958  0.1832 -0.2868
 6144W        W22991   9.613   2.223  12.058  0.0777  0.1327 -0.1106
 6145W        W22992  19.888   3.683  12.695 -0.4911 -0.0470  0.1365
 6146W        W22993  12.859   1.737   3.515 -0.3083  0.1411  0.1424
 6147W        W22994  17.813  14.316   1.576  0.3241 -0.1182  0.1488
 6148W        W22995  11.820  15.437   2.258  0.1207 -0.0771 -0.2162
 6149W        W22996   1.577  18.032   9.978  0.0389 -0.0304 -0.0025
 6150W        W22997  19.348  12.603   9.294  0.1228  0.1419  0.1426
 6151W        W22998   8.510  15.213  10.348 -0.0876  0.1948 -0.0043
 6152W        W22999   5.472  19.060   0.102 -0.1044 -0.0937 -0.3470
 6153W        W23000   9.715  17.325   2.095 -0.1994 -0.1160 -0.2490
 6154W        W23001   8.649  10.054   3.128 -0.0372 -0.0720 -0.1127
 6155W        W23002  11.188  14.559   1.441  0.2143  0.2139 -0.0499
 6156W        W23003  15.987  10.217  12.540  0.3532 -0.0688 -0.0926
 6157W        W23004   4.979   2.245   3.665  0.2613  0.3437 -0.0827
 6158W        W23005   8.011   3.518   3.433 -0.2385 -0.0076  0.1099
 6159W        W23006   5.501  18.794  13.988  0.0696  0.4740  0.0814
 6160W        W23007   0.731   1.121  13.625  0.2300  0.0505 -0.0408
 6161W        W23008   7.333   0.970   1.350 -0.0462  0.0364  0.0102
 6162W        W23009  14.360  12.917   4.052 -0.1370  0.3378  0.0650
 6163W        W23010  12.069   0.924   1.528  0.0168  0.0460  0.0032
 6164W        W23011   7.266   1.566   3.179  0.1543  0.2895 -0.0284
 6165W        W23012   7.634  10.498  13.911 -0.1524  0.1693  0.0165
 6166W        W23013  11.378  12.390   2.197 -0.0360 -0.1052  0.1854
 6167W        W23014   9.818   4.697   4.709  0.0563 -0.2930  0.3425
 6168W        W23015   2.219   9.282  10.617  0.2648 -0.0669  0.0282
 6169W        W23016   3.010   9.406   3.190 -0.1649 -0.2721 -0.1559
 6170W        W23017  15.927  12.432  12.944 -0.2334  0.0885  0.2469
 6171W        W23018  12.535  16.234   9.810  0.1041 -0.0566 -0.2270
 6172W        W23019  17.562  18.231   3.025 -0.1960  0.1843  0.0155
 6173W        W23020  18.851   4.361   0.350  0.0410  0.1430 -0.0407
 6174W        W23021   3.795  14.797   3.282  0.0218 -0.1671  0.1538
 6175W        W23022  12.890   1.255   0.983  0.2290 -0.0942  0.4232
 6176W        W23023   9.024  11.780  14.258 -0.0964 -0.0348  0.0441
 6177W        W23024  14.333   1.873   2.001  0.1960 -0.6175 -0.0354
 6178W        W23025  12.338  10.561   3.257  0.0082 -0.2866  0.0075
 6179W        W23026  15.270   2.134   4.150 -0.1410 -0.1093  0.0390
 6180W        W23027  17.133  10.104   9.922 -0.1218 -0.1774 -0.0429
 6181W        W23028  16.911  16.563   2.728 -0.0761 -0.2886  0.0124
 6182W        W23029   8.404   3.542   2.438 -0.2177 -0.0616 -0.1748
 6183W        W23030  13.244   4.863  13.635 -0.3505 -0.2147 -0.3935
 6184W        W23031  16.924   0.637  13.813  0.0902 -0.1046 -0.1067
 6185W        W23032   7.690   9.127   4.750  0.0862 -0.1357 -0.0089
 6186W        W23033   9.567   6.582   1.742 -0.0760 -0.1853  0.1023
 6187W        W23034  15.409  16.517   0.805 -0.1594 -0.2784 -0.2742
 6188W        W23035   3.321   3.010  11.245 -0.0250 -0.0349  0.1690
 6189W        W23036   6.587  15.741   5.310 -0.2035  0.2515 -0.0714
 6190W        W23037   9.133  13.511  13.184 -0.0810  0.1357  0.0257
 6191W        W23038   4.939  19.793  14.089 -0.0152  0.1436 -0.1274
 6192W        W23039  17.867  19.260  13.637  0.0870 -0.1905 -0.3637
 6193W        W23040   2.333  10.428   1.819 -0.4291 -0.0576 -0.0003
 6194W        W23041  10.815  13.201   3.115  0.1921 -0.2822 -0.1159
 6195W        W23042   7.017  12.243   4.298 -0.2274 -0.1567 -0.1165
 6196W        W23043   4.242  19.295  10.815  0.0185 -0.2112 -0.0302
 6197W        W23044  12.967   0.774  13.250 -0.3083 -0.1552 -0.0806
 6198W        W23045  10.229   1.345   1.644 -0.2195 -0.0013 -0.2305
 6199W        W23046   8.783  10.480   5.109  0.2236 -0.0173  0.1232
 6200W        W23047   3.616  19.564  10.069  0.5399 -0.3466 -0.1724
 6201W        W23048   4.652  11.401   4.792 -0.1722  0.0040 -0.4315
 6202W        W23049  14.927   1.810  14.112  0.5539  0.0931 -0.1355
 6203W        W23050   0.415  19.347   3.695  0.0168  0.1726  0.3297
 6204W        W23051  18.693   7.014  11.965 -0.5712  0.0801  0.0247
 6205W        W23052  11.974  14.501  12.667  0.1522 -0.1862  0.1640
 6206W        W23053   5.640  18.019  12.935 -0.3566 -0.0929  0.3453
 6207W        W23054  15.677  12.542  12.551  0.2145 -0.3442  0.0241
 6208W        W23055  13.277  11.482   3.610 -0.1854  0.2270 -0.3119
 6209W        W23056   7.059  13.132   0.404 -0.0376  0.2258  0.3432
 6210W        W23057  19.882   2.831   3.874 -0.1515 -0.3045  0.0298
 6211W        W23058   0.008   0.987   4.554  0.2672 -0.4400 -0.0974
 6212W        W23059   6.197   5.581  12.942  0.1111 -0.6664 -0.0605
 6213W        W23060   8.333   3.464  13.004  0.2152 -0.1451 -0.2816
 6214W        W23061   9.693   0.842   9.109  0.1173  0.0939 -0.3682
 6215W        W23062   0.145   1.633  12.490  0.4509 -0.0130  0.0102
 6216W        W23063   2.170  11.936   9.922  0.0140 -0.0901 -0.1959
 6217W        W23064  11.482   1.896   2.810  0.2747  0.2388 -0.0497
 6218W        W23065   6.059  14.444   0.947  0.0533 -0.1842 -0.0940
 6219W        W23066   2.868  17.783  10.705  0.1385 -0.1362 -0.3880
 6220W        W23067   6.697  14.829   3.798 -0.0531 -0.2334  0.1951
 6221W        W23068   1.922   4.103   4.010 -0.2587 -0.1112 -0.1444
 6222W        W23069   7.531  14.684   9.781  0.0631 -0.0510 -0.3866
 6223W        W23070   6.574   0.148  11.192 -0.0362  0.0423  0.0677
 6224W        W23071  11.786  18.844   4.346  0.0028  0.2908 -0.1591
 6225W        W23072   5.306   0.931   9.294 -0.3454  0.2739 -0.1917
 6226W        W23073  13.108  10.439  12.786  0.1792 -0.0852  0.0149
 6227W        W23074  11.375  18.323  12.736 -0.2716 -0.2053 -0.2809
 6228W        W23075  18.189  16.452   2.067  0.2534 -0.0218 -0.0915
 6229W        W23076   1.504   2.328  10.084  0.0623 -0.0990 -0.1044
 6230W        W23077   3.979   8.063  10.528  0.2178  0.0876 -0.3281
 6231W        W23078   5.240   8.821   4.164  0.0334 -0.3217 -0.2764
 6232W        W23079  17.989  11.415   4.416 -0.2085 -0.2097 -0.0270
 6233W        W23080   5.904  18.619   3.967 -0.2505  0.1322  0.3129
 6234W        W23081   5.908   0.179   1.885  0.2073  0.1677  0.1724
 6235W        W23082  15.635  16.503   1.826 -0.0997 -0.0245  0.0481
 6236W        W23083  14.180  18.993  14.261  0.1416  0.0268  0.1183
 6237W        W23084  15.296  16.104  10.925 -0.0553 -0.2483 -0.3575
 6238W        W23085   2.974  12.006   1.588  0.1758 -0.1722 -0.1207
 6239W        W23086   2.167  16.131  12.375 -0.1056 -0.0344  0.1921
 6240W        W23087   8.519  16.563  11.170 -0.0110 -0.0593  0.0089
 6241W        W23088  14.078   4.370  13.619 -0.1011 -0.1045 -0.1267
 6242W        W23089  18.999  11.980   5.348  0.1407  0.1561  0.0609
 6243W        W23090  12.127   5.556  10.014  0.2913 -0.2426  0.2783
 6244W        W23091   9.287   5.658   3.001 -0.4751 -0.1148 -0.1998
 6245W        W23092  10.114  13.009   0.060  0.0210  0.0521  0.0770
 6246W        W23093  13.224  19.715  13.983 -0.1536  0.0622 -0.1605
 6247W        W23094  16.898  14.131  10.872  0.2975  0.0061  0.0477
 6248W        W23095   2.658  15.022  10.794 -0.0918  0.3246  0.3504
 6249W        W23096  11.398   9.514  11.230 -0.1212  0.3244  0.1605
 6250W        W23097  15.987  13.323   3.801 -0.1096 -0.0769  0.0829
 6251W        W23098  17.949   4.180  12.640  0.1414 -0.2902  0.0457
 6252W        W23099  17.171   8.480   0.045 -0.3204 -0.0541 -0.2094
 6253W        W23100  17.566  13.938   0.551 -0.3764 -0.2599 -0.0684
 6254W        W23101  11.748   0.859  14.283  0.3852  0.0582 -0.0910
 6255W        W23102   8.938   9.416  10.637  0.2950 -0.0092 -0.3482
 6256W        W23103  15.106  17.239  10.431 -0.1638 -0.0994  0.2641
 6257W        W23104  17.909  15.100   2.267  0.2213 -0.3474  0.2555
 6258W        W23105  16.610   2.273   4.061  0.0909 -0.0639  0.1127
 6259W        W23106  12.883  17.892   2.525  0.0240 -0.0188  0.0627
 6260W        W23107   4.419   8.903   4.268 -0.0897  0.3836  0.2170
 6261W        W23108   8.027   4.714   1.469 -0.2617  0.0467 -0.0771
 6262W        W23109   1.053  10.612   3.909 -0.0994 -0.2054  0.2710
 6263W        W23110  11.375  13.282  14.214  0.0285 -0.0119 -0.2369
 6264W        W23111   4.134   1.610   2.329  0.0629  0.2560  0.1165
 6265W        W23112  15.512  15.320   5.252 -0.2603  0.4052 -0.1294
 6266W        W23113   0.391  17.340  12.593  0.0405 -0.1537  0.1825
 6267W        W23114  16.127   9.364  10.843 -0.2893 -0.2870  0.3043
 6268W        W23115  12.022   5.361   3.686 -0.0632  0.1732 -0.1498
 6269W        W23116  18.891  10.400   1.352  0.1973 -0.2681  0.0315
 6270W        W23117  17.248  12.364  10.575  0.1438  0.1534 -0.3294
 6271W        W23118  16.499  10.697  10.062  0.1995  0.0225  0.0291
 6272W        W23119   8.460  14.284  11.503 -0.0185  0.3110 -0.2491
 6273W        W23120   0.590   0.707   0.660 -0.1656  0.2531 -0.3420
 6274W        W23121  10.088   5.193  11.974  0.0043 -0.0269 -0.0342
 6275W        W23122   1.887   0.189  12.244  0.0342 -0.0460 -0.0272
 6276W        W23123   5.669  11.890   1.730  0.1224  0.3946  0.3092
 6277W        W23124  12.682   2.811  10.207 -0.5177  0.0368 -0.2139
 6278W        W23125  12.311   8.598  12.453 -0.1044  0.1685 -0.3848
 6279W        W23126   9.393  18.445   1.428 -0.0637  0.0763  0.1187
 6280W        W23127  13.108  19.749   3.951  0.2538 -0.1198 -0.3706
 6281W        W23128  12.375   7.131  10.342  0.0796  0.2754 -0.0628
 6282W        W23129  11.786   5.802   4.136 -0.0294 -0.0661  0.0702
 6283W        W23130   0.099  10.186   3.933 -0.0081 -0.0876  0.0985
 6284W        W23131   1.229   3.898   1.897  0.0891 -0.3229  0.1898
 6285W        W23132   8.061  17.880   9.976 -0.2080  0.3157  0.1479
 6286W        W23133   7.660  13.180  11.612 -0.1149 -0.3221 -0.2550
 6287W        W23134  16.661   7.774  10.751  0.1383 -0.0360  0.0184
 6288W        W23135   5.214   6.124  11.607  0.0148 -0.0347 -0.1319
 6289W        W23136  18.827  17.300   3.743  0.0626  0.2424  0.0749
 6290W        W23137   8.307  10.163   4.147 -0.2659 -0.1855  0.1812
 6291W        W23138   7.137   1.878  11.826 -0.0763 -0.0979 -0.2041
 6292W        W23139   3.712  10.133  10.902 -0.0884 -0.0122 -0.2732
 6293W        W23140   0.647   3.790  11.060 -0.0596 -0.1674 -0.2081
 6294W        W23141   7.818   8.722  10.320 -0.1452 -0.0160  0.3776
 6295W        W23142  15.591   5.783   3.506  0.1287 -0.4676 -0.0139
 6296W        W23143   1.785   5.684  12.427 -0.1447 -0.4494  0.0963
 6297W        W23144  16.126  19.459   1.064 -0.3512 -0.0851 -0.0339
 6298W        W23145   0.493   0.809   0.127 -0.1367 -0.0359 -0.0525
 6299W        W23146  11.232   5.112   3.393 -0.4008  0.2674  0.0900
 6300W        W23147   4.721  14.537  13.514  0.0485 -0.0589 -0.0264
 6301W        W23148  15.235   7.451   0.960 -0.1179  0.1058 -0.1980
 6302W        W23149   2.794   0.789  12.048  0.2809 -0.3824  0.0808
 6303W        W23150   4.716  11.476   1.525  0.1539  0.3498 -0.0567
 6304W        W23151   5.620   3.974  10.661 -0.4638 -0.1078  0.0161
 6305W        W23152  10.066   5.955  13.474 -0.1344  0.4324 -0.1045
 6306W        W23153  17.054   0.492   3.658  0.1443  0.2243 -0.1502
 6307W        W23154  16.133   5.565  14.190  0.0659 -0.2919 -0.2786
 6308W        W23155  19.334   9.186  11.345 -0.1292  0.1024 -0.4583
 6309W        W23156   0.906  10.590   0.331  0.1267 -0.4002  0.3049
 6310W        W23157  12.969   9.816  10.423 -0.2687  0.2389  0.4687
 6311W        W23158  19.435  19.309  12.147 -0.2418  0.0822 -0.2154
 6312W        W23159  11.162  11.999  13.684 -0.0113 -0.0440  0.1116
 6313W        W23160  14.317   7.598   9.969  0.0521  0.0545 -0.2509
 6314W        W23161  10.117   9.452   1.377  0.0706 -0.1117 -0.0392
 6315W        W23162   2.464  14.974   4.209  0.1415 -0.0899  0.0217
 6316W        W23163  18.805   6.675   1.618 -0.1449 -0.1363 -0.1775
 6317W        W23164   8.748  14.744   3.174 -0.2370 -0.1299  0.0550
 6318W        W23165   4.955   6.324   0.732  0.2362  0.3602 -0.1753
 6319W        W23166  14.897  10.310   4.598  0.2182  0.0317  0.1947
 6320W        W23167  13.098   9.722  12.127 -0.2960  0.3466  0.2263
 6321W        W23168   3.428   9.413   1.494  0.0115 -0.0148 -0.0544
 6322W        W23169  17.990   5.211  12.220  0.1952 -0.1822 -0.1719
 6323W        W23170   5.073   0.148  11.067 -0.0692 -0.1327 -0.3605
 6324W        W23171   2.270   2.883   0.833  0.0813  0.0836  0.5305
 6325W        W23172  11.076   5.821   0.952 -0.2771 -0.1433  0.0814
 6326W        W23173  18.677   4.732   1.848  0.1832  0.1103  0.1170
 6327W        W23174   2.543  10.509  11.544  0.1487 -0.3652  0.1104
 6328W        W23175   4.740  19.519  13.366  0.1763  0.2754 -0.2008
 6329W        W23176   4.046   5.146  10.915 -0.0460  0.1060  0.3149
 6330W        W23177   7.058   8.322   4.369 -0.0654  0.2113  0.1239
 6331W        W23178   0.370   5.269  10.296  0.0257  0.2485 -0.1658
 6332W        W23179   2.282   8.554   3.625  0.1453  0.0563  0.4384
 6333W        W23180  13.186  15.594  14.246 -0.0125  0.0207  0.0667
 6334W        W23181   0.228   6.644  13.721  0.3514 -0.0084 -0.0733
 6335W        W23182  18.453   9.165   9.742  0.1793  0.0044 -0.1841
 6336W        W23183  17.305  14.128   1.604  0.0292 -0.3883  0.2235
 6337W        W23184  12.832   2.268   0.436 -0.0029 -0.0149 -0.3346
 6338W        W23185   7.270   2.109   3.131  0.3177  0.1473  0.2044
 6339W        W23186   7.751  11.743  12.616  0.2105  0.2770 -0.0088
 6340W        W23187  19.274   0.037  14.230  0.0270 -0.0964  0.0287
 6341W        W23188  17.011   4.349  13.670  0.3306 -0.1025 -0.1573
 6342W        W23189  15.515  15.896   5.900 -0.2072  0.0381 -0.0429
 6343W        W23190  16.390  16.206  12.394  0.3933  0.1795  0.1811
 6344W        W23191   2.379  19.358   3.229  0.0211 -0.2214 -0.1219
 6345W        W23192   1.833  17.924   4.014  0.0723 -0.0826  0.2971
 6346W        W23193  17.496   7.044   1.699  0.4829  0.1997 -0.2351
 6347W        W23194   9.556  11.266   1.001  0.1471 -0.2100  0.1279
 6348W        W23195   2.451   7.902   3.331 -0.0512  0.0450 -0.2823
 6349W        W23196   1.219   3.495  10.973  0.2470  0.1719  0.0946
 6350W        W23197  11.990   8.554  12.016 -0.1014  0.2618 -0.0237
 6351W        W23198   5.008   6.546   1.180  0.1444  0.2291 -0.0724
 6352W        W23199  12.950  13.540  11.712 -0.3316  0.3425  0.3488
 6353W        W23200   5.777   6.604   0.036  0.0702  0.1484  0.1036
 6354W        W23201  11.895  14.066   3.733  0.2929  0.4628 -0.2084
 6355W        W23202   5.038   2.775  13.996  0.2172  0.1279  0.0550
 6356W        W23203  14.331   7.431  12.290  0.0232  0.2989  0.3007
 6357W        W23204   5.351   9.147   3.757  0.1578  0.0592  0.2131
 6358W        W23205  19.375   3.996  13.648 -0.0634  0.1392  0.1597
 6359W        W23206   6.532   6.342  11.589  0.1780  0.1437  0.1450
 6360W        W23207  18.682  12.506   5.060 -0.2126 -0.1062 -0.2150
 6361W        W23208   3.375   7.046  12.810  0.0972  0.0799 -0.0097
 6362W        W23209  12.725  13.441  14.135 -0.6161  0.0383  0.2303
 6363W        W23210   5.878  15.699  11.772 -0.0891 -0.3307 -0.1448
 6364W        W23211   3.267   7.561   3.018  0.0199  0.1796 -0.1029
 6365W        W23212  15.250  11.592   2.065 -0.1255  0.3023 -0.3089
 6366W        W23213  16.613  15.770  12.397  0.0917 -0.0723  0.0030
 6367W        W23214  12.646   4.748   1.856 -0.1731 -0.2589 -0.0638
 6368W        W23215   6.749   0.750   0.744  0.1114  0.1113  0.2973
 6369W        W23216  13.507   3.566  13.663 -0.0127  0.1344  0.1249
 6370W        W23217   3.398   9.187  13.595 -0.1458 -0.0205 -0.0502
 6371W        W23218   3.253  14.905   1.456  0.1625  0.0417 -0.1674
 6372W        W23219   2.282   4.326  13.207 -0.1569 -0.0083  0.0233
 6373W        W23220  15.194   5.143  12.563  0.3392  0.3633 -0.2583
 6374W        W23221  17.315   4.273  14.076  0.6352  0.0977  0.0125
 6375W        W23222   7.056  16.922   3.984  0.1849  0.2129  0.2499
 6376W        W23223   9.624   4.108  14.083 -0.2572  0.2652  0.1512
 6377W        W23224  14.201   4.736   1.089  0.0222 -0.0525 -0.1001
 6378W        W23225  13.671  10.583  14.174  0.1748 -0.1881 -0.0990
 6379W        W23226   6.757   3.522  11.628  0.0938  0.0460 -0.0822
 6380W        W23227  16.327  13.823   2.136 -0.1053  0.2570 -0.1339
 6381W        W23228  11.145   0.955  13.685 -0.0560 -0.3072 -0.1773
 6382W        W23229  10.697   1.257  11.716  0.1852  0.2183 -0.1337
 6383W        W23230   1.567  12.737  11.812  0.2062  0.4156 -0.0192
 6384W        W23231  18.193   7.629  13.312 -0.1210 -0.1034 -0.2312
 6385W        W23232  17.575   4.326  13.675 -0.1261 -0.0479 -0.1277
 6386W        W23233  17.717  14.482   0.996  0.1273  0.0394  0.0456
 6387W        W23234  15.949  16.825   0.055 -0.1464 -0.0955  0.1996
 6388W        W23235   5.507   7.031  14.218  0.0906 -0.1084 -0.1423
 6389W        W23236   9.669  18.893  11.773  0.0582 -0.2283  0.0561
 6390W        W23237  16.399  12.307   3.846  0.1541  0.1881  0.0776
 6391W        W23238  10.192  13.498   4.602  0.1128  0.0429 -0.4336
 6392W        W23239   9.336   9.541  10.959 -0.1807  0.1622 -0.2884
 6393W        W23240  16.037  15.620   0.685  0.1418  0.1208 -0.1030
 6394W        W23241   5.830  10.907   0.908 -0.2464 -0.4789 -0.4059
 6395W        W23242   2.837  10.923   4.894 -0.6815 -0.1544 -0.0723
 6396W        W23243   9.582  15.043   0.827  0.6516 -0.3115 -0.2499
 6397W        W23244  13.373   5.738   3.455 -0.0086 -0.0226  0.1893
 6398W        W23245   6.187   0.545  13.449  0.0525  0.3012  0.2840
 6399W        W23246  12.559   3.907   1.644  0.3040  0.0425  0.2004
 6400W        W23247   4.931  15.237  14.066  0.0753 -0.1423  0.0642
 6401W        W23248  10.461   4.453  10.712  0.1325 -0.0780  0.2837
 6402W        W23249   7.797   2.507   5.237 -0.3527  0.2023  0.1571
 6403W        W23250  18.683  10.775   3.292 -0.0867 -0.1156 -0.0285
 6404W        W23251  13.903  19.430   2.859  0.1895  0.3509  0.1742
 6405W        W23252  10.721  16.439   0.867  0.2531 -0.1736  0.0425
 6406W        W23253   5.940  14.328   0.186  0.0963 -0.0746 -0.0448
 6407W        W23254  15.892  13.960  11.354 -0.0232  0.1837 -0.0838
 6408W        W23255   1.171  15.208  10.482 -0.0658  0.2144  0.2443
 6409W        W23256  16.555   8.299  12.955 -0.0200  0.1279  0.1471
 6410W        W23257   9.901   0.205  10.652  0.0907 -0.0327 -0.2982
 6411W        W23258  18.814  18.799   3.353  0.0757  0.0388 -0.2170
 6412W        W23259  11.235   4.963   2.389  0.0150  0.0274  0.0244
 6413W        W23260  16.500   5.725  12.327  0.0377 -0.1079 -0.0533
 6414W        W23261   9.277   6.547   1.339  0.2439 -0.0844  0.0365
 6415W        W23262  15.235  19.715   2.588  0.0148  0.1295 -0.0840
 6416W        W23263  11.223  16.393  10.623 -0.0493  0.2694 -0.4695
 6417W        W23264   9.783  13.832  13.898  0.1931 -0.0204  0.2544
 6418W        W23265   4.010   7.178   1.622 -0.0984 -0.0814  0.0366
 6419W        W23266  19.469  12.228   3.142 -0.1438 -0.0043 -0.3557
 6420W        W23267  18.882  16.379   2.142 -0.3672  0.1155  0.3500
 6421W        W23268   6.954   8.128   5.281 -0.1996  0.1041 -0.1882
 6422W        W23269   4.737  18.012   0.128  0.1170  0.1010  0.0082
 6423W        W23270  16.016   5.903   4.796  0.0880  0.1418 -0.4095
 6424W        W23271   0.497  13.238   3.189  0.2890  0.0632 -0.3736
 6425W        W23272   9.124  17.979  11.883  0.1201 -0.1294 -0.1163
 6426W        W23273  12.889   9.022  13.477 -0.3441  0.1636  0.1024
 6427W        W23274  15.606   6.873   0.940 -0.2091  0.2092  0.1623
 6428W        W23275   9.739   6.371   0.434  0.0863  0.0647  0.2353
 6429W        W23276   6.274  18.737  11.562 -0.3466 -0.1597  0.4541
 6430W        W23277   7.823   1.882   2.047  0.0236 -0.0724 -0.1987
 6431W        W23278  16.835  15.371   4.094 -0.0518 -0.1282 -0.2962
 6432W        W23279   7.119   2.091   1.804  0.0667  0.3233 -0.1227
 6433W        W23280   2.218  18.494   1.808 -0.0345 -0.3080  0.0768
 6434W        W23281   0.873   3.694   1.655  0.0946  0.2590 -0.2201
 6435W        W23282   7.635  13.665   0.565  0.1073 -0.0361 -0.1339
 6436W        W23283   6.124  18.505  12.018 -0.0013 -0.2568  0.1840
 6437W        W23284  14.857  17.188   4.149  0.1625  0.1508  0.1269
 6438W        W23285   8.391   4.774   1.096 -0.2826  0.2004  0.1348
 6439W        W23286   8.711   5.622   0.875  0.0228  0.0430  0.1868
 6440W        W23287  10.338   7.066   0.781  0.3767  0.0702  0.2865
 6441W        W23288   6.600  15.069  11.333 -0.2371 -0.2857  0.2867
 6442W        W23289   5.567  14.026   4.507 -0.0830 -0.1737 -0.1099
 6443W        W23290  17.656   9.798   3.454 -0.1211 -0.2463  0.0349
 6444W        W23291   8.978  18.848  10.410 -0.1060 -0.0734  0.0759
 6445W        W23292   3.839  13.661  13.011  0.1180 -0.2126 -0.3040
 6446W        W23293  16.490   9.327   0.689  0.1960  0.4252  0.2508
 6447W        W23294   4.415   2.764   4.925  0.3458 -0.0172  0.0425
 6448W        W23295   2.110   0.210   3.683 -0.1171  0.4810 -0.0637
 6449W        W23296  17.381   5.065   3.995  0.1386  0.0705 -0.2620
 6450W        W23297   1.090  16.413  10.282  0.3397  0.2382  0.1687
 6451W        W23298  14.123   3.698  10.434  0.0090  0.0021  0.3304
 6452W        W23299  19.777   8.611   1.733  0.2863 -0.2694  0.0450
 6453W        W23300   1.838   4.526   0.185  0.2006  0.0266  0.6107
 6454W        W23301   3.703  10.717   2.990 -0.3063 -0.0035 -0.1667
 6455W        W23302   7.317  11.648   1.360 -0.3840  0.2857  0.1262
 6456W        W23303   8.575  15.442  14.007 -0.1811 -0.3565  0.1591
 6457W        W23304  17.183  13.414   4.395 -0.1325  0.0941  0.0147
 6458W        W23305  10.400   0.310   2.382 -0.0805  0.0536  0.0312
 6459W        W23306  11.703  18.886   1.893 -0.1053  0.3051 -0.0867
 6460W        W23307   7.639  11.901   0.530 -0.3551 -0.3307 -0.0113
 6461W        W23308  18.243  10.515   2.922  0.1357  0.0040 -0.2753
 6462W        W23309  15.343  10.723   4.188  0.2229 -0.1629 -0.1022
 6463W        W23310  15.712   7.595  12.083 -0.3894 -0.2408  0.1109
 6464W        W23311  15.422  12.904   0.305 -0.1569  0.0290 -0.0261
 6465W        W23312  14.838   3.759   3.298 -0.1499 -0.2591 -0.1121
 6466W        W23313  12.835   9.070   9.815 -0.3534  0.3741 -0.1185
 6467W        W23314   2.253  10.729  10.475  0.2582 -0.0043  0.2302
 6468W        W23315   6.234  11.106   3.817 -0.0327  0.0570 -0.3746
 6469W        W23316  11.947  16.723  12.012 -0.0766 -0.0959  0.2309
 6470W        W23317   4.516  18.822  13.956 -0.0160  0.1357  0.0129
 6471W        W23318   9.337   5.050  14.330 -0.0144  0.2142 -0.0295
 6472W        W23319  16.200  17.197  11.209 -0.1096 -0.2283 -0.1336
 6473W        W23320   5.398   6.469   0.811 -0.2133 -0.1705  0.2815
 6474W        W23321   1.888  11.888   1.076  0.3467 -0.2854 -0.0776
 6475W        W23322   6.380   6.983   1.630  0.0165 -0.0446 -0.1258
 6476W        W23323   1.620  17.037  10.728  0.2523 -0.0097  0.2003
 6477W        W23324   3.580   2.190   1.281 -0.0966  0.0411  0.2299
 6478W        W23325  11.161  13.488  12.782 -0.2831  0.0392 -0.0507
 6479W        W23326   3.406   9.844   2.400 -0.2065 -0.0023 -0.0852
 6480W        W23327   1.532  18.607   4.372  0.0053 -0.2179  0.1647
 6481W        W23328  10.878   0.926  10.051 -0.0734  0.0171 -0.0315
 6482W        W23329  11.484   5.670   0.134  0.0084  0.2665  0.0673
 6483W        W23330   1.944   9.347   1.533 -0.1110 -0.0344  0.0401
 6484W        W23331  12.745   4.615   0.325 -0.0920 -0.1735  0.4113
 6485W        W23332  19.599   2.997   1.326  0.1762  0.1705 -0.2266
 6486W        W23333  11.439  10.516   2.693 -0.4005 -0.1088 -0.1656
 6487W        W23334   5.119   7.881   4.710 -0.0325 -0.1948 -0.2076
 6488W        W23335   4.653  13.352   3.401 -0.0289  0.1439  0.4464
 6489W        W23336   9.469  12.625  11.288 -0.0508 -0.0004 -0.0884
 6490W        W23337  10.709   6.058   4.394  0.0585 -0.1956  0.1515
 6491W        W23338   2.024  17.829   9.915  0.2338 -0.1091  0.0352
 6492W        W23339   3.597  15.225   0.610  0.3967 -0.3271  0.0778
 6493W        W23340  19.610  14.415   0.999  0.0058  0.0135 -0.0925
 6494W        W23341  14.279   8.871  10.197  0.0049 -0.0549 -0.0457
 6495W        W23342   7.044  10.416   2.593 -0.2045  0.1092 -0.0645
 6496W        W23343  15.678   9.359  10.981 -0.0823 -0.0148 -0.0956
 6497W        W23344   3.480  16.748   1.434 -0.2495 -0.2853  0.0692
 6498W        W23345  13.254  11.808   1.307  0.1409 -0.3735  0.1009
 6499W        W23346   7.703   9.052   4.251  0.0313  0.1569  0.3423
 6500W        W23347   0.455  16.459   0.266  0.1690  0.1781 -0.3838
 6501W        W23348   1.992  19.479   0.004  0.0460  0.0239  0.0160
 6502W        W23349  18.595  10.184   2.011 -0.0454 -0.0982  0.1014
 6503W        W23350  11.781   2.085   2.079 -0.7272  0.1700  0.3294
 6504W        W23351  14.371   2.971   3.578 -0.2988 -0.0562  0.2158
 6505W        W23352  11.947  10.622   4.302  0.0978 -0.4092 -0.1410
 6506W        W23353  18.698  12.241  13.643 -0.1169  0.0626  0.0053
 6507W        W23354   3.244  19.673  10.966 -0.1225 -0.1150 -0.1231
 6508W        W23355   4.632  15.723  10.948 -0.2915  0.1228 -0.2956
 6509W        W23356   6.425   3.000   2.681 -0.1982  0.2415  0.2975
 6510W        W23357   8.419  10.930   1.364  0.0131  0.1951  0.1902
 6511W        W23358   2.486   6.134  11.085  0.2434  0.3067 -0.0208
 6512W        W23359   0.336   3.051   4.753  0.2219  0.3680 -0.1138
 6513W        W23360  14.200  15.035  10.038 -0.3671 -0.1674 -0.1041
 6514W        W23361   9.502   1.867   2.989  0.0839  0.3260  0.0699
 6515W        W23362   5.328   3.498   4.284  0.0208 -0.1854 -0.2623
 6516W        W23363  16.582   5.255  10.055  0.3452 -0.3172 -0.1724
 6517W        W23364  10.327  12.389   0.880 -0.1961 -0.0705 -0.2010
 6518W        W23365   9.377  18.337   0.922  0.1986 -0.1087  0.0300
 6519W        W23366   0.726   9.489   1.730  0.4326 -0.1342 -0.2859
 6520W        W23367   4.317   3.371   1.882 -0.2541 -0.1494  0.1206
 6521W        W23368  14.426  13.455  11.554  0.4608  0.5528  0.1673
 6522W        W23369   9.981  14.304   0.387  0.1743 -0.0552 -0.2884
 6523W        W23370   0.644  14.983  13.024  0.3566  0.0663 -0.1214
 6524W        W23371  19.666   9.407   1.793  0.0460  0.1326 -0.0310
 6525W        W23372   9.070  17.929  10.438 -0.2516  0.0320  0.1106
 6526W        W23373  15.727  13.102   4.198  0.2123 -0.2751  0.3336
 6527W        W23374   6.126   5.542  11.026 -0.0648 -0.3357  0.4106
 6528W        W23375   4.605  11.687   2.549  0.0647  0.0951  0.1158
 6529W        W23376  15.594  17.951   3.356 -0.0394  0.0293 -0.2661
 6530W        W23377   8.864   9.815   2.739 -0.0202 -0.1071 -0.0481
 6531W        W23378   9.098  12.128  10.729  0.0528  0.0974  0.0590
 6532W        W23379  18.362   9.268   1.104  0.1301  0.0549 -0.0093
 6533W        W23380  14.560  17.248  13.897  0.2655 -0.2231  0.1760
 6534W        W23381  16.180   2.667   2.584  0.0750  0.2067  0.0143
 6535W        W23382  15.048   8.925   0.218  0.0939 -0.2852 -0.1368
 6536W        W23383  17.717  16.336   0.625  0.2442  0.0492 -0.1569
 6537W        W23384  12.790   3.150   9.399 -0.0980 -0.2018  0.1064
 6538W        W23385   9.039   3.327   0.567  0.0297 -0.0494  0.1120
 6539W        W23386  11.068  18.713   1.348  0.2117 -0.0323 -0.3775
 6540W        W23387   1.653   4.130  13.415 -0.0105 -0.1416 -0.1129
 6541W        W23388   4.796  15.379   0.148 -0.0568 -0.0401 -0.2767
 6542W        W23389  17.436  16.924   3.552  0.0325 -0.3900  0.3855
 6543W        W23390  13.669   4.663   2.260 -0.1431  0.1283  0.1122
 6544W        W23391   7.187   2.613   3.059  0.0084  0.1409 -0.2689
 6545W        W23392   5.084  14.821  10.456  0.0235  0.2485  0.2061
 6546W        W23393   6.815  18.555  13.530 -0.3228 -0.2708  0.2234
 6547W        W23394   5.925   3.514  11.360 -0.2911 -0.0763  0.0082
 6548W        W23395   3.489  18.688   4.324 -0.2088  0.2110  0.1318
 6549W        W23396   4.652  16.503   1.742  0.1564  0.1811  0.3405
 6550W        W23397   2.520  10.571  12.737  0.1027  0.0248 -0.0456
 6551W        W23398  18.770   5.176   0.878 -0.5771 -0.1278  0.2929
 6552W        W23399  14.640  14.850  14.071 -0.0635  0.2077 -0.0563
 6553W        W23400   8.920   0.101  13.900 -0.2930  0.1392  0.2803
 6554W        W23401  14.780  14.244   1.487 -0.3254 -0.0408 -0.0244
 6555W        W23402  11.809  11.331  12.072  0.0986  0.0899  0.1975
 6556W        W23403  16.439  12.547  12.937  0.0385  0.0450 -0.0626
 6557W        W23404  12.806  12.715  11.223  0.0415 -0.3044 -0.0307
 6558W        W23405  12.041   3.696   0.752  0.0081 -0.0517 -0.1919
 6559W        W23406  13.034  17.419   4.689  0.1453 -0.2317  0.4166
 6560W        W23407   3.274  18.901   9.329 -0.0146  0.3230  0.2634
 6561W        W23408  15.463  10.477   0.045 -0.0799  0.1817  0.3583
 6562W        W23409   5.943  12.437  14.097  0.3026  0.0815 -0.0323
 6563W        W23410   6.870  11.398  12.607 -0.3089 -0.0482 -0.1699
 6564W        W23411   7.505  15.526   9.705 -0.2401  0.3167 -0.0340
 6565W        W23412  18.012   0.512  10.375 -0.0134  0.2118 -0.0275
 6566W        W23413  17.248  10.452  13.898 -0.1765 -0.1628  0.3949
 6567W        W23414  10.110   4.656   1.499  0.1884  0.2490 -0.0691
 6568W        W23415  17.070   6.722   9.731  0.3402  0.0633 -0.0703
 6569W        W23416  19.634  16.030  11.330  0.0889  0.0293 -0.0603
 6570W        W23417  11.816  16.664   0.675 -0.2451 -0.0993 -0.0614
 6571W        W23418   1.650   7.213  13.799 -0.0372 -0.0845  0.2821
 6572W        W23419   3.083  18.003  13.529  0.4098  0.2663 -0.0792
 6573W        W23420   0.750   8.337  10.624  0.0846  0.2050  0.1055
 6574W        W23421   3.900  17.446  13.134 -0.2281  0.0500  0.1701
 6575W        W23422   7.928   7.922  11.742 -0.0384  0.1054  0.1229
 6576W        W23423   5.981  15.081  10.450 -0.2027  0.1267 -0.1618
 6577W        W23424   2.854   0.122   2.643  0.0378 -0.1591 -0.0546
 6578W        W23425   0.183  16.238  14.263 -0.1125 -0.1672 -0.1145
 6579W        W23426   5.854  16.496   9.457  0.0158  0.2169 -0.1470
 6580W        W23427   4.010  11.047   3.711 -0.4708  0.2252  0.3369
 6581W        W23428  16.337  11.545   9.693 -0.1326 -0.0297 -0.1635
 6582W        W23429  19.796   6.621  12.382 -0.0612  0.1731 -0.1741
 6583W        W23430  15.219  19.132   2.707 -0.2955 -0.0307  0.0351
 6584W        W23431   5.096  13.353   2.813 -0.1516 -0.1456  0.2779
 6585W        W23432  14.300  10.894  12.041  0.2539 -0.3019  0.0373
 6586W        W23433   6.746  15.837  13.049 -0.0424 -0.2908  0.1115
 6587W        W23434  11.705  16.729   2.576  0.5955 -0.0532 -0.1345
 6588W        W23435   5.973  14.965   4.112 -0.1213  0.0516  0.0083
 6589W        W23436   0.114   0.020   0.358  0.2869 -0.1056 -0.2183
 6590W        W23437   7.968   1.362   1.881 -0.2327  0.0761  0.1720
 6591W        W23438  12.659   0.954   9.075  0.5114 -0.0985  0.0753
 6592W        W23439   0.269  15.393  13.997 -0.2428 -0.2015  0.0588
 6593W        W23440   1.634   4.164   3.128 -0.2553  0.2215 -0.2101
 6594W        W23441   3.861  18.467   0.233  0.1171  0.3743  0.1247
 6595W        W23442  13.053  17.883  10.674 -0.2336  0.0390 -0.1135
 6596W        W23443  15.777   3.736   3.131  0.0398  0.3417 -0.2155
 6597W        W23444   0.876  14.946   4.697 -0.1154 -0.0906 -0.1049
 6598W        W23445   4.465  18.063  12.958  0.4455 -0.0102 -0.0538
 6599W        W23446  12.761  10.393   2.971  0.1380 -0.2332 -0.2095
 6600W        W23447  11.946   4.161   0.664  0.1355 -0.1445  0.0934
 6601W        W23448  16.949   2.195   2.691  0.1537 -0.1175 -0.1145
 6602W        W23449  17.373   6.714  11.266 -0.1290 -0.2209  0.1811
 6603W        W23450   4.671   1.080  10.858 -0.0698 -0.0843 -0.0388
 6604W        W23451   2.636  16.079  12.569 -0.2254 -0.0807  0.0638
 6605W        W23452   4.994  13.992  11.774 -0.2700 -0.1900 -0.1059
 6606W        W23453  11.662   7.111   4.958  0.1261  0.0173 -0.2073
 6607W        W23454  10.167   4.093   4.459 -0.2868 -0.3547  0.2928
 6608W        W23455   7.049  17.575   2.054  0.1175 -0.2446  0.2860
 6609W        W23456   3.397  12.081   9.632 -0.2904 -0.1657 -0.0840
 6610W        W23457  17.148  17.736   2.817 -0.0596 -0.0419 -0.0169
 6611W        W23458   2.139   6.721   9.979 -0.0323  0.0432 -0.3451
 6612W        W23459  12.343  12.919   1.816 -0.3172  0.0433 -0.2116
 6613W        W23460   0.861   0.117   0.839 -0.0010  0.0894 -0.1889
 6614W        W23461  10.054   2.216   3.080  0.2034  0.1809  0.1978
 6615W        W23462   8.294  13.539  12.776 -0.1798  0.0158 -0.5113
 6616W        W23463  15.010  14.913   4.647  0.0221  0.1458  0.1789
 6617W        W23464  13.926   7.464   1.385 -0.0737  0.0267  0.0648
 6618W        W23465   4.296  14.590  12.132  0.4070  0.3155  0.3042
 6619W        W23466  14.522  19.089   0.719 -0.0379  0.0817 -0.0507
 6620W        W23467  12.168   5.443   0.667 -0.2292  0.0215 -0.1037
 6621W        W23468  14.768   6.553   3.830 -0.2336  0.0784 -0.1680
 6622W        W23469  10.686   1.425  13.313  0.1847 -0.0228 -0.0956
 6623W        W23470  13.313   8.042   1.607 -0.5415  0.0317 -0.3291
 6624W        W23471   2.898   3.743  12.523  0.0149  0.1714 -0.3867
 6625W        W23472   9.675  15.839   4.125 -0.1408 -0.1820  0.0230
 6626W        W23473   6.912  11.850   2.473 -0.0873 -0.2401 -0.0632
 6627W        W23474  12.718  14.186  10.388  0.3222 -0.0008 -0.0647
 6628W        W23475   8.843   2.680   5.314 -0.0803  0.1995  0.0307
 6629W        W23476   3.910  11.258   2.112  0.0594  0.1576  0.0971
 6630W        W23477   5.051   2.372  11.197  0.2977  0.0315  0.0809
 6631W        W23478  19.335  12.274  12.199 -0.0347 -0.0390 -0.3774
 6632W        W23479   1.526  18.246   1.199 -0.1280 -0.0603 -0.0229
 6633W        W23480   7.649  14.263   8.764 -0.0870 -0.0827  0.1520
 6634W        W23481   7.827  10.415  11.744  0.4210  0.0399 -0.3552
 6635W        W23482  18.837   1.762  12.897  0.2490 -0.0245 -0.1823
 6636W        W23483   4.178   5.095   2.770 -0.1902 -0.2814 -0.1231
 6637W        W23484   1.330  12.694  12.759  0.1105 -0.2260  0.0344
 6638W        W23485  13.777  12.806  10.820 -0.1072 -0.1763  0.2237
 6639W        W23486  10.592   6.316   5.234 -0.3880  0.0488 -0.0104
 6640W        W23487   8.613   8.984   2.963 -0.1841 -0.2071  0.0142
 6641W        W23488   6.137  19.714   2.796 -0.0107 -0.0204  0.1131
 6642W        W23489   5.970  19.083  12.738 -0.1885 -0.0694  0.1064
 6643W        W23490   9.301  10.751   2.410  0.3905 -0.0102  0.3435
 6644W        W23491  10.997  19.116  12.261 -0.2964  0.0128  0.2468
 6645W        W23492   8.068  11.047   4.663  0.2593  0.0173 -0.2297
 6646W        W23493   4.313   0.551  14.020 -0.1999  0.2287 -0.1319
 6647W        W23494   6.795  14.080  14.200  0.1121 -0.3602  0.1420
 6648W        W23495   9.226  18.903   1.822  0.3335  0.2947 -0.2406
 6649W        W23496   3.087   6.450  12.376  0.2414 -0.2398  0.0412
 6650W        W23497  15.857  12.435  11.292  0.1301 -0.1433  0.1648
 6651W        W23498   4.452   4.297   0.493 -0.2721  0.0183 -0.0938
 6652W        W23499   2.327  14.356   2.807  0.0783 -0.3457  0.1079
 6653W        W23500  13.526   5.055  12.147 -0.1040 -0.0462  0.0187
 6654W        W23501   1.774   3.312  12.477  0.1217 -0.1557 -0.0551
 6655W        W23502   7.527  14.193   0.590  0.2148 -0.0397  0.2545
 6656W        W23503   6.544  18.198  13.251 -0.0594 -0.1421  0.2490
 6657W        W23504   8.819  12.757   3.245  0.1282 -0.0279  0.1093
 6658W        W23505  12.891  17.876  11.767 -0.1493 -0.0055  0.2412
 6659W        W23506   5.827  16.050   1.178  0.3970 -0.1263  0.0315
 6660W        W23507   5.256   3.377  11.711 -0.2251 -0.0287  0.0630
 6661W        W23508   6.508  12.875   1.090 -0.4169 -0.2068  0.1343
 6662W        W23509  11.546  12.829  14.124 -0.0678 -0.1128  0.4072
 6663W        W23510  19.144   1.436  12.040 -0.2262 -0.1118  0.2694
 6664W        W23511  15.344   9.448  11.452  0.0008  0.1543 -0.1664
 6665W        W23512  15.680   2.034   1.093 -0.0960  0.0925 -0.2645
 6666W        W23513   9.624  10.685   1.942  0.3391 -0.1088  0.0360
 6667W        W23514   2.714   3.166  12.315  0.0863  0.0198 -0.2074
 6668W        W23515  12.622  19.234   2.153 -0.0379 -0.2404  0.0213
 6669W        W23516  10.952   0.978   3.570  0.1526  0.0813 -0.0380
 6670W        W23517  19.854  14.887  14.156  0.1462 -0.0024  0.3777
 6671W        W23518   3.021  16.526  14.044 -0.1658 -0.0654 -0.0382
 6672W        W23519  16.133   3.225   4.913  0.0586  0.0179 -0.1499
 6673W        W23520   2.414  19.818   2.681  0.0448 -0.0929 -0.1075
 6674W        W23521   0.497   6.711  11.259 -0.1608 -0.1288 -0.2249
 6675W        W23522  13.781   4.480   0.185  0.1288  0.2740 -0.0448
 6676W        W23523   5.902   8.882   0.448  0.2209 -0.1277  0.0318
 6677W        W23524   5.910   6.606   1.021  0.1159 -0.0477 -0.1982
 6678W        W23525  18.474  10.598   0.298 -0.0847 -0.1574  0.0658
 6679W        W23526   3.519   5.950   0.867 -0.1279 -0.1606 -0.2471
 6680W        W23527   7.526  13.586  13.654 -0.0400  0.1966 -0.0129
 6681W        W23528  18.479  13.155  10.057  0.0793  0.1470 -0.1495
 6682W        W23529   9.226  10.446  10.735  0.0117 -0.2602  0.1415
 6683W        W23530   5.706   2.619   4.114 -0.0680 -0.4208  0.1021
 6684W        W23531   3.846   3.388  12.135  0.0699 -0.0311 -0.0666
 6685W        W23532   8.936  10.445   3.767  0.1795  0.0905 -0.2545
 6686W        W23533   0.909   2.240   2.371  0.2788 -0.2423  0.2050
 6687W        W23534  11.601  17.436   9.464  0.1603  0.0891 -0.1517
 6688W        W23535   5.911   5.406  10.176 -0.0411  0.1265 -0.0234
 6689W        W23536   6.091   4.599   1.617  0.3851 -0.3370 -0.0873
 6690W        W23537   5.570  18.563   3.463 -0.1013  0.1779  0.1134
 6691W        W23538  18.171   3.649   9.962  0.0555  0.4169 -0.2982
 6692W        W23539   1.023   5.611  11.737  0.1006  0.2569 -0.1749
 6693W        W23540  18.446  12.110  12.152 -0.2647 -0.2378 -0.0048
 6694W        W23541   9.962  17.189   3.830 -0.3612  0.1833  0.0557
 6695W        W23542  13.678  15.531  11.453  0.3691  0.2494  0.1811
 6696W        W23543   3.757   6.987   0.669 -0.0157  0.1428  0.1796
 6697W        W23544  12.197   0.183   3.356  0.1705 -0.5746  0.0763
 6698W        W23545  10.606  17.403  11.302 -0.1474 -0.2839  0.2078
 6699W        W23546  18.232   5.236   1.541  0.0713 -0.0866  0.2219
 6700W        W23547   7.188   9.250   0.371  0.3710  0.0069 -0.3182
 6701W        W23548   4.924   2.004   1.469 -0.0391 -0.0943 -0.1937
 6702W        W23549  16.633   3.770   4.628  0.0278 -0.4907  0.0023
 6703W        W23550  17.501  11.768   2.705  0.1018 -0.1257  0.0975
 6704W        W23551  10.780   5.190   2.192  0.2370  0.1172  0.2024
 6705W        W23552  13.383   3.462  11.574 -0.2243  0.1455 -0.1439
 6706W        W23553  16.291  10.931   0.537  0.2456  0.1064 -0.0890
 6707W        W23554   0.125   3.830   4.795  0.1411  0.2762 -0.2728
 6708W        W23555  19.867  19.116  10.048 -0.1772 -0.0088  0.2411
 6709W        W23556  19.433   6.127  12.636  0.2312  0.1682 -0.0031
 6710W        W23557   3.518  17.740   2.566  0.0686 -0.1932 -0.0430
 6711W        W23558   2.619  11.301   5.474  0.2493  0.0754 -0.4962
 6712W        W23559   2.313   4.400   3.893  0.0662 -0.0400  0.0892
 6713W        W23560   0.181   5.936   3.365 -0.2258  0.4414 -0.1157
 6714W        W23561   4.220  13.941   0.111  0.1910  0.2211 -0.1105
 6715W        W23562  10.334  11.979   4.791 -0.0800 -0.1556  0.2588
 6716W        W23563  10.556  11.817  11.476  0.1643 -0.5366  0.1254
 6717W        W23564   4.634   6.209   1.098 -0.3519 -0.2260 -0.0826
 6718W        W23565   5.432   4.845   4.671 -0.0745 -0.1919  0.1850
 6719W        W23566  18.231   4.592  10.813  0.0408 -0.4571  0.1125
 6720W        W23567  14.121   0.693  11.207 -0.1918  0.0826  0.0040
 6721W        W23568  11.005   7.276  13.834 -0.2598 -0.3432 -0.0484
 6722W        W23569   6.409   6.231  12.098 -0.2756 -0.2043 -0.1617
 6723W        W23570  19.174  14.908  13.156 -0.2114  0.0454 -0.0332
 6724W        W23571  14.635  14.232  10.490 -0.2236  0.0930 -0.3221
 6725W        W23572   4.842   6.401   4.171  0.1918 -0.2283  0.0475
 6726W        W23573   2.622   9.592  11.110  0.3108  0.4120  0.1777
 6727W        W23574   2.666   6.006  11.565  0.0288 -0.1706  0.0693
 6728W        W23575   3.954   2.944  12.049  0.0266  0.2708  0.2234
 6729W        W23576  18.487  16.942   9.953 -0.3805 -0.1431  0.0590
 6730W        W23577   1.571  16.441   1.628 -0.1756  0.2396  0.2973
 6731W        W23578  10.302  15.920   3.229 -0.0673 -0.1405  0.1547
 6732W        W23579  17.162  13.738  10.728 -0.1340 -0.0759  0.2164
 6733W        W23580   6.538  12.541  12.311  0.3891  0.0138 -0.0521
 6734W        W23581  14.519   8.024  13.939 -0.0873  0.2202 -0.2615
 6735W        W23582  15.522   5.998   1.501  0.0038  0.0850  0.1619
 6736W        W23583  15.151   0.236  11.484  0.2099 -0.0271 -0.3143
 6737W        W23584   4.868  18.128  10.708 -0.1854  0.1587 -0.1909
 6738W        W23585   9.754   8.238  11.068  0.1497  0.1535  0.0125
 6739W        W23586  11.744   3.922  14.014 -0.0039 -0.1161  0.1730
 6740W        W23587   8.457   8.381  11.933 -0.0659  0.2067  0.0146
 6741W        W23588   0.553  16.622   4.385 -0.0636  0.0029 -0.4131
 6742W        W23589   0.721   9.064   5.039 -0.0228  0.1414  0.0313
 6743W        W23590   7.944  14.816  13.990  0.3034  0.1356 -0.0966
 6744W        W23591   8.759  12.371  13.066 -0.1772  0.0508 -0.1303
 6745W        W23592   0.249   3.581   2.872  0.1876  0.2693  0.1205
 6746W        W23593  19.296   1.313   1.903 -0.1282 -0.0864 -0.0007
 6747W        W23594  19.858   9.405  14.311  0.1686  0.0909  0.0867
 6748W        W23595   9.310   6.252   0.862 -0.0303 -0.1305 -0.1670
 6749W        W23596   7.225  11.996   1.055  0.0876 -0.4312 -0.0003
 6750W        W23597   9.138   2.770   4.393 -0.0052  0.0159 -0.1082
 6751W        W23598   7.923  14.405   2.121  0.0512  0.1950  0.0975
 6752W        W23599  12.228   3.509  12.100  0.1710 -0.2004  0.0041
 6753W        W23600  16.726   6.455   2.351  0.3328  0.0068 -0.0167
 6754W        W23601  18.557  16.101   0.014 -0.1570 -0.0592 -0.2411
 6755W        W23602  16.587  15.732  11.906  0.0484  0.0373  0.0262
 6756W        W23603   8.024   8.947  14.143 -0.1896  0.2513 -0.0288
 6757W        W23604   4.473  12.323   4.687 -0.1105 -0.0450  0.0390
 6758W        W23605   8.213   3.661   1.495 -0.2693 -0.4103 -0.1638
 6759W        W23606   9.834   1.044  13.274  0.0890  0.1006  0.1777
 6760W        W23607  11.405   1.381  11.726  0.1729  0.0933 -0.0709
 6761W        W23608   3.983  13.236   4.736  0.0374  0.1949  0.2377
 6762W        W23609   0.006  14.325  10.394  0.4109 -0.1722  0.0436
 6763W        W23610   6.291  18.390  11.194 -0.2517 -0.2240 -0.2172
 6764W        W23611   1.099   3.002  11.298  0.2279  0.4677  0.1577
 6765W        W23612  12.963   5.512   4.415 -0.0650 -0.1650 -0.3178
 6766W        W23613   5.652  17.279  13.615 -0.0632 -0.0997  0.4952
 6767W        W23614  15.807   8.649  13.138  0.0305 -0.0285 -0.1691
 6768W        W23615  18.306  10.699   2.077  0.1071 -0.1302 -0.1468
 6769W        W23616  16.857  18.436   4.705  0.1811 -0.0331  0.1640
 6770W        W23617  14.463   7.296   3.269 -0.0174 -0.2084 -0.1908
 6771W        W23618   8.823  16.790  14.203  0.1349  0.0896 -0.1320
 6772W        W23619  16.667   8.234   9.818  0.3693  0.1754  0.1193
 6773W        W23620  12.507   1.418   3.701  0.1105 -0.1997  0.0406
 6774W        W23621  11.342  13.405  12.080 -0.0006  0.0733  0.0672
 6775W        W23622  13.982   3.281   3.477  0.1085  0.0443 -0.3248
 6776W        W23623   8.642   3.454  10.057  0.2113  0.1651  0.2186
 6777W        W23624  19.833  10.365  12.548 -0.3126  0.0724  0.0076
 6778W        W23625   6.149   0.474  13.902  0.1637  0.0077  0.0340
 6779W        W23626  14.469   4.327  10.327  0.0758  0.3114 -0.0106
 6780W        W23627  14.564  10.808  10.124 -0.0150  0.2110  0.1499
 6781W        W23628  16.874  17.293   0.959  0.2093 -0.2255 -0.1731
 6782W        W23629  17.068  19.053  11.474 -0.0731  0.1577 -0.4689
 6783W        W23630   1.568   0.892  13.926  0.7195 -0.1449  0.3395
 6784W        W23631  11.215   4.865  10.737 -0.0676 -0.0911  0.2493
 6785W        W23632  10.987   1.648   1.016  0.3649 -0.0652 -0.1556
 6786W        W23633  11.174   3.903  13.495 -0.0261  0.0855 -0.4559
 6787W        W23634   0.381  13.541  11.952  0.2226  0.1369 -0.2697
 6788W        W23635  14.437   5.155  11.734  0.1068  0.2187  0.3470
 6789W        W23636   3.744  13.022   2.463  0.1344  0.1848 -0.1846
 6790W        W23637  14.976   3.308  10.993 -0.1192 -0.2663  0.1398
 6791W        W23638   7.813  10.744   3.695 -0.0784 -0.0767 -0.2750
 6792W        W23639  13.870  12.396  11.841  0.0124 -0.3886  0.0414
 6793W        W23640   7.364  10.204   1.301 -0.2885  0.0200 -0.1536
 6794W        W23641   0.438  14.787   0.691 -0.1312 -0.0886  0.1238
 6795W        W23642  16.654   1.812   0.989  0.2521  0.1225 -0.1153
 6796W        W23643   2.779  11.523  12.346  0.2383 -0.3326 -0.1105
 6797W        W23644  19.219  18.004   0.647  0.0795  0.1550  0.0372
 6798W        W23645   7.887  12.129  13.660 -0.0391 -0.1322 -0.0306
 6799W        W23646  19.193  17.835   1.087  0.2389  0.0969  0.0107
 6800W        W23647  16.071  14.877   1.741  0.0518  0.3271 -0.0267
 6801W        W23648  13.557  17.608   5.854  0.0354  0.0090 -0.4492
 6802W        W23649   8.010  10.899   1.767  0.1019 -0.0304  0.1768
 6803W        W23650   6.049   6.263   4.709  0.2531 -0.1959 -0.0017
 6804W        W23651   5.324  18.062  10.248  0.1785 -0.0072 -0.2420
 6805W        W23652   8.310   2.658   5.209  0.0527 -0.2691  0.2666
 6806W        W23653  12.157  11.193  11.736 -0.0543  0.1547  0.2411
 6807W        W23654  15.063  17.329  11.313 -0.0175  0.2487 -0.0046
 6808W        W23655   4.419   3.856   1.905  0.1640  0.1912  0.2693
 6809W        W23656  18.795   7.205  10.998  0.0690  0.5559 -0.1136
 6810W        W23657   8.755   7.785   4.213 -0.2799  0.0175  0.1517
 6811W        W23658   1.929  17.167   2.603 -0.1197 -0.2874 -0.1541
 6812W        W23659   6.327   4.391   4.595 -0.0923  0.3344  0.0653
 6813W        W23660  19.339  17.497   2.995  0.3375 -0.0267  0.1356
 6814W        W23661  19.667  12.475  12.531  0.1163  0.1952 -0.5210
 6815W        W23662  18.417  16.688   0.159  0.0624 -0.3537 -0.0237
 6816W        W23663  17.725  17.634   9.817 -0.0027  0.0753  0.0759
 6817W        W23664   0.804  15.713   4.020  0.2327  0.1415  0.0610
 6818W        W23665  15.501   2.853  12.866  0.0237 -0.2896 -0.3313
 6819W        W23666   3.784   6.905   3.084 -0.0805  0.1986 -0.1653
 6820W        W23667  12.661  19.477  13.447  0.0795  0.0729  0.5911
 6821W        W23668   1.642  19.643  12.392  0.0027  0.2136 -0.1807
 6822W        W23669   8.544   2.491  10.059  0.1869  0.1368  0.0962
 6823W        W23670  18.441  18.258   0.135 -0.0475  0.2706  0.0892
 6824W        W23671   1.441   3.240   3.006 -0.0345  0.1365 -0.4465
 6825W        W23672  18.083   5.673   3.214  0.1246  0.0529 -0.0719
 6826W        W23673  13.858  16.847  13.337  0.2911 -0.0504  0.2965
 6827W        W23674  14.864   8.066   4.562 -0.1638 -0.2178  0.1706
 6828W        W23675  16.613   3.434  12.098 -0.6561  0.1506 -0.2151
 6829W        W23676   3.908  10.783   1.816 -0.1547 -0.3076  0.2549
 6830W        W23677   6.670   2.023  11.546 -0.2371  0.1827 -0.2991
 6831W        W23678  10.668   1.497  12.403  0.0657  0.1514  0.5508
 6832W        W23679   5.734  17.740   5.443  0.0189 -0.2410 -0.1993
 6833W        W23680   1.356  13.784  10.363 -0.1507 -0.0696 -0.0479
 6834W        W23681   7.800  17.738   2.458  0.1008  0.0563 -0.1065
 6835W        W23682  12.635   1.309   0.343  0.1838 -0.0267  0.1309
 6836W        W23683   3.070  17.907   1.826 -0.0265 -0.4276  0.1884
 6837W        W23684   8.750   9.004  10.227 -0.0620  0.2140 -0.2426
 6838W        W23685  13.103  13.715  12.200  0.3690 -0.0491 -0.0540
 6839W        W23686   9.670   3.741  12.826 -0.4437 -0.2157  0.0554
 6840W        W23687  19.792   8.800   4.374  0.0830  0.0162 -0.0365
 6841W        W23688   4.446  10.822   4.503  0.1996 -0.0019  0.0411
 6842W        W23689  18.698   0.787  12.258  0.0590 -0.2897 -0.0146
 6843W        W23690  14.676   7.727  10.757 -0.0183  0.0828 -0.0875
 6844W        W23691  14.859   8.992  11.449 -0.0421 -0.2698 -0.0756
 6845W        W23692  14.343  15.820  10.306  0.2791  0.0991  0.1533
 6846W        W23693   7.084  12.337  13.075 -0.0701  0.0001 -0.0957
 6847W        W23694  18.783   3.348  11.882  0.2261 -0.2929  0.3916
 6848W        W23695   6.753  18.736   0.386  0.0935 -0.1446  0.0672
 6849W        W23696  17.053   7.204  13.468 -0.4551  0.1392  0.2169
 6850W        W23697   4.886   7.178  11.781 -0.1602 -0.2386  0.1177
 6851W        W23698   6.139   8.897   4.178 -0.0202 -0.3589  0.2347
 6852W        W23699  15.060   9.374  12.888 -0.1799  0.1349  0.1231
 6853W        W23700   6.698  19.708  12.304  0.0072  0.1381 -0.1514
 6854W        W23701  14.588   8.078   2.852  0.0320  0.3281 -0.1247
 6855W        W23702  14.800   9.915  14.057  0.0097  0.0180  0.0723
 6856W        W23703  15.814   1.617  12.196  0.0330  0.0641  0.0197
 6857W        W23704  12.434  15.073  14.164 -0.1203  0.1939  0.1492
 6858W        W23705   5.952   8.158   2.803 -0.0662 -0.0904 -0.0431
 6859W        W23706   1.848   7.423  12.200 -0.0694 -0.1267  0.0545
 6860W        W23707  16.217  12.633  12.067 -0.0935  0.1890 -0.0914
 6861W        W23708   9.689  14.429   3.845  0.1154  0.1596  0.4325
 6862W        W23709  10.851  11.683  10.481 -0.2202  0.0827  0.2701
 6863W        W23710   9.403   3.033   0.922  0.1294  0.1749  0.2621
 6864W        W23711   7.605  13.039   3.998  0.0106 -0.0651  0.3716
 6865W        W23712   8.710  18.550  13.981  0.3044 -0.4909  0.0374
 6866W        W23713   2.246   5.936  12.676 -0.1049  0.0045  0.2859
 6867W        W23714  12.138  10.575  12.559 -0.1068 -0.0337  0.0037
 6868W        W23715  14.668   6.155  10.871 -0.3142  0.3411  0.0178
 6869W        W23716   5.609  11.975  10.247  0.0830 -0.4747  0.0482
 6870W        W23717  12.762  16.131   3.181  0.0607  0.0760  0.5096
 6871W        W23718  18.735  13.563   2.140 -0.1573  0.1981  0.0512
 6872W        W23719   8.771  18.501   1.837 -0.2757 -0.0804  0.0951
 6873W        W23720  12.519  10.767   1.772  0.1866  0.3672  0.0002
 6874W        W23721   6.340  12.398   0.214  0.1461 -0.0181 -0.0656
 6875W        W23722  10.735   9.349  12.853 -0.1040  0.1509  0.1700
 6876W        W23723   8.242   2.335   4.713 -0.2172  0.2915 -0.2141
 6877W        W23724   0.737   2.732   4.817 -0.0419  0.0728 -0.2535
 6878W        W23725   4.098   1.922  10.520  0.2347 -0.1982  0.1450
 6879W        W23726   4.089  13.509  10.586 -0.1801 -0.1349 -0.1730
 6880W        W23727   3.126   9.539  14.062 -0.1262  0.0890 -0.2275
 6881W        W23728   7.539   5.078   2.040 -0.0453  0.3199 -0.2704
 6882W        W23729  14.191  13.843  13.697 -0.0399  0.1915  0.1853
 6883W        W23730  11.919  17.530   1.798 -0.1866  0.0933 -0.4724
 6884W        W23731  14.518  18.268  11.018 -0.3988 -0.3012  0.0359
 6885W        W23732   0.533   7.091  10.670 -0.0071  0.1807 -0.0948
 6886W        W23733  13.186   1.913  12.455  0.0094  0.0829  0.0037
 6887W        W23734   1.652   4.022  11.270  0.0548  0.1614  0.0729
 6888W        W23735  16.590  17.665  11.198  0.2743  0.1674 -0.1470
 6889W        W23736  12.563  12.601   9.737 -0.0457  0.2141  0.1225
 6890W        W23737  12.208   1.537   2.883 -0.0869  0.0919 -0.1322
 6891W        W23738  17.638   8.277   0.788  0.1810 -0.1054  0.1501
 6892W        W23739   9.526   8.159   9.965  0.1244 -0.2938 -0.1611
 6893W        W23740  16.221   8.794  12.867  0.1325  0.0695 -0.3698
 6894W        W23741   6.629   5.404   3.554 -0.3711 -0.0012  0.1736
 6895W        W23742   8.481  15.115   1.441 -0.3364 -0.2394  0.2761
 6896W        W23743   1.900  16.649   2.627  0.2995  0.0839  0.0301
 6897W        W23744  12.640  19.743   4.047  0.1220  0.1653  0.0525
 6898W        W23745  14.484  18.095   0.827 -0.0916  0.2182  0.0244
 6899W        W23746  10.082  13.136   2.301  0.0311  0.0629  0.0642
 6900W        W23747   8.149   8.873  10.709  0.0256  0.3306  0.2129
 6901W        W23748   7.630  16.461  10.975  0.0267 -0.0208  0.1771
 6902W        W23749  13.027   6.357   1.311 -0.2027 -0.0062 -0.1148
 6903W        W23750  16.370   7.958  12.617  0.0406  0.0996 -0.2615
 6904W        W23751   6.674  16.316  10.615 -0.3843 -0.2038 -0.1453
 6905W        W23752  13.729  10.220  11.620  0.2321  0.2048 -0.1521
 6906W        W23753   1.198  18.604  14.244 -0.0142 -0.2301  0.0946
 6907W        W23754   3.931   7.295  14.337 -0.0534  0.0847  0.3528
 6908W        W23755   3.051   5.375   0.094 -0.1914 -0.1769 -0.4997
 6909W        W23756   2.500   6.704   1.596  0.0370  0.2262  0.2388
 6910W        W23757  10.078  13.490   1.861  0.1089 -0.1700 -0.4606
 6911W        W23758  16.241  19.339   0.556  0.1702  0.4200  0.2896
 6912W        W23759   9.152  17.114   3.820  0.2306  0.2993  0.0685
 6913W        W23760  15.040   5.509  10.505 -0.0898  0.1711 -0.1530
 6914W        W23761  16.923  13.514  11.720  0.3911  0.0630  0.0889
 6915W        W23762   4.542  13.540   2.559 -0.1877  0.0962 -0.0663
 6916W        W23763  14.757  18.037  11.599 -0.3540 -0.0776  0.0546
 6917W        W23764  10.744   7.070   1.133 -0.4254  0.0155 -0.5055
 6918W        W23765   8.244   7.592  13.483 -0.0357  0.0422 -0.1348
 6919W        W23766  10.722  19.737   1.586 -0.1740  0.3032  0.1302
 6920W        W23767  15.358  11.985  14.341  0.0551  0.1685 -0.0475
 6921W        W23768  15.046  15.277   4.978 -0.0528 -0.1446  0.2118
 6922W        W23769  10.076  17.581   2.386 -0.2465  0.1495 -0.1467
 6923W        W23770   0.215   6.415   3.985 -0.1828 -0.0028 -0.2207
 6924W        W23771   0.310  12.385   0.488 -0.2447  0.0316 -0.1778
 6925W        W23772   7.267   0.799   3.633 -0.1106 -0.3477  0.3091
 6926W        W23773   1.849   0.065   2.201 -0.0018 -0.0966 -0.1832
 6927W        W23774  17.663  11.841  12.689 -0.2099  0.0200  0.4934
 6928W        W23775  12.673  12.808   2.895 -0.0438 -0.0014 -0.1598
 6929W        W23776   7.067  18.429  12.198 -0.0057  0.4207  0.1025
 6930W        W23777  13.214   7.065   0.579 -0.1072  0.0958  0.2162
 6931W        W23778   7.120   6.711   2.643  0.2653 -0.1511  0.0652
 6932W        W23779   3.993  12.554  13.938  0.1270 -0.0077  0.5350
 6933W        W23780  16.749   9.620   0.355 -0.1501  0.0592  0.0662
 6934W        W23781   9.156  12.252  13.350 -0.0766 -0.2539 -0.0703
 6935W        W23782   7.871  16.551   1.523 -0.2402  0.0615 -0.0337
 6936W        W23783  13.649   2.804  11.072 -0.2931 -0.0221 -0.0907
 6937W        W23784  10.853  15.654   1.629  0.1668  0.3546  0.0368
 6938W        W23785  12.637  19.387   0.754  0.0762 -0.0667  0.1286
 6939W        W23786  16.716  13.265  13.102 -0.2422  0.0070 -0.1958
 6940W        W23787   7.448  10.578   2.827  0.1118  0.0196 -0.0892
 6941W        W23788  10.802   7.607  13.317 -0.0344 -0.1589 -0.4540
 6942W        W23789   7.503  15.744   9.275 -0.2904 -0.0163  0.1382
 6943W        W23790   1.036  10.228  14.341 -0.0817 -0.0967  0.0663
 6944W        W23791   7.016   5.294   3.116 -0.1398 -0.4072  0.0396
 6945W        W23792  16.195  15.420  13.029 -0.1130 -0.3400 -0.1536
 6946W        W23793   7.477  15.892   0.160 -0.3109 -0.1730  0.1016
 6947W        W23794  10.616  15.907  13.150 -0.1197  0.4180 -0.0427
 6948W        W23795   0.934  19.668   3.137 -0.0811  0.0402  0.0664
 6949W        W23796   3.007   1.251  13.210  0.2929  0.0863  0.1256
 6950W        W23797   9.831   4.064   1.982 -0.4312 -0.0013  0.1337
 6951W        W23798   4.169   0.162   9.592  0.0918 -0.4288 -0.3995
 6952W        W23799   5.224   0.128   2.833 -0.0841  0.0047  0.0036
 6953W        W23800   9.834  15.617   4.615 -0.1282  0.2163 -0.0699
 6954W        W23801   4.458  18.625   1.817 -0.1424 -0.2871  0.0249
 6955W        W23802   0.852   5.376   3.810 -0.0473 -0.2327  0.0986
 6956W        W23803   3.981  14.241   0.583 -0.0564  0.2448  0.1417
 6957W        W23804   0.646   2.952  10.604 -0.1616 -0.0365  0.0213
 6958W        W23805   4.550   5.915   8.781 -0.1371  0.0280 -0.1303
 6959W        W23806   8.780   2.613  13.382 -0.1233 -0.0034 -0.2678
 6960W        W23807  18.613   7.456  10.227 -0.2137  0.2506 -0.2256
 6961W        W23808  15.786  10.264  10.737  0.0424 -0.1606 -0.2699
 6962W        W23809  17.267  15.568   4.371 -0.0273 -0.2430 -0.3268
 6963W        W23810   1.902   4.129  12.939 -0.1358  0.0520 -0.2047
 6964W        W23811   7.030  16.175   1.507  0.0729  0.0822 -0.0341
 6965W        W23812  16.073   3.861  11.281  0.1182  0.0698  0.0454
 6966W        W23813   8.281  18.361  12.947 -0.1790 -0.1512 -0.1062
 6967W        W23814   3.893  15.234   0.978 -0.2275 -0.1105  0.3785
 6968W        W23815  12.611   9.057  10.680 -0.0282  0.1720 -0.1509
 6969W        W23816   2.872   4.748  12.468  0.0724 -0.3290 -0.4466
 6970W        W23817  17.622  12.951  13.469  0.0829 -0.0725 -0.1363
 6971W        W23818   8.034  15.116  10.195  0.0215  0.2372 -0.1016
 6972W        W23819   7.132  12.015  10.908  0.1648  0.1570 -0.0611
 6973W        W23820   6.998  10.958   1.856  0.2389 -0.1083 -0.0698
 6974W        W23821  11.371  12.365   1.557  0.4222  0.0164 -0.0655
 6975W        W23822   4.749  15.308  13.197 -0.0832  0.1177  0.1375
 6976W        W23823  10.106  13.493  11.837  0.0527 -0.0598  0.1359
 6977W        W23824  13.116  11.383   0.416  0.5016  0.3249 -0.0105
 6978W        W23825   6.704  15.219  14.309  0.0887 -0.0699  0.0952
 6979W        W23826   8.441  16.187  14.182 -0.0287  0.1310  0.2305
 6980W        W23827  14.692  19.412  11.755  0.4085 -0.0116  0.0194
 6981W        W23828   4.027   8.604   4.593 -0.1802 -0.2335 -0.2218
 6982W        W23829  11.119  17.281  10.893 -0.4521  0.0725  0.1498
 6983W        W23830  17.760  10.946   0.013  0.0993 -0.1024 -0.2286
 6984W        W23831   5.848  11.349  11.811 -0.3541  0.0209 -0.4576
 6985W        W23832   9.763  11.322   3.463 -0.0781 -0.2929  0.0165
 6986W        W23833   4.515  16.311   1.326 -0.0864  0.0267  0.0742
 6987W        W23834  18.679   5.910  10.899 -0.2375 -0.0503  0.1227
 6988W        W23835  19.363  16.163   2.104 -0.1244  0.0535  0.0682
 6989W        W23836  12.541   9.080   0.915  0.0254 -0.4560 -0.1511
 6990W        W23837  19.379   1.339   0.994 -0.2514  0.0401 -0.0421
 6991W        W23838   6.224   6.840   0.720  0.4285  0.0244 -0.3375
 6992W        W23839   4.974  18.773   5.280  0.1695  0.4148 -0.3770
 6993W        W23840  19.299   5.517   1.868  0.1834 -0.2234  0.0368
 6994W        W23841   8.727  19.001   2.488 -0.2834  0.1307  0.2663
 6995W        W23842   9.554   4.712   4.114 -0.2916  0.0154  0.4996
 6996W        W23843   9.875  19.304  11.954 -0.1151  0.1509 -0.0334
 6997W        W23844  15.310  12.030   1.293 -0.2599  0.2427  0.0736
 6998W        W23845  11.963   3.500  13.098 -0.0442  0.4022  0.2038
 6999W        W23846   8.654  14.868   0.557  0.1536 -0.0380  0.1451
 7000W        W23847   2.492  10.873  11.178  0.2801  0.0294 -0.2977
 7001W        W23848  11.857  19.596   1.788  0.0713 -0.1956  0.2532
 7002W        W23849   9.355   7.530   2.005  0.3687 -0.1249 -0.0801
 7003W        W23850   6.280   3.064  11.786  0.0596  0.2728 -0.2253
 7004W        W23851  10.926   7.657   2.290  0.0280  0.1810  0.0987
 7005W        W23852   5.137  15.430   3.769 -0.0490  0.4532  0.0233
 7006W        W23853  19.384   5.012  11.241 -0.0440  0.3430  0.1118
 7007W        W23854   7.788  13.544  13.193  0.3017  0.0038 -0.2822
 7008W        W23855  13.038   4.663   1.354  0.0352 -0.0739 -0.0942
 7009W        W23856   0.200  12.507   9.786  0.1094 -0.1132 -0.1483
 7010W        W23857  11.432  16.435  11.811 -0.2766 -0.0009 -0.1955
 7011W        W23858  11.237   6.324   1.601  0.1843 -0.0486  0.1980
 7012W        W23859  18.486  15.476   2.992 -0.2399  0.0394 -0.0767
 7013W        W23860   0.483  11.650   0.021  0.1026  0.0303  0.1302
 7014W        W23861   7.935  11.489   0.658 -0.1124 -0.0439  0.0696
 7015W        W23862   9.250  10.660  11.490  0.2351  0.0037  0.0280
 7016W        W23863  11.893   8.356   0.893 -0.1459  0.0666  0.0408
 7017W        W23864   9.870   2.983  13.516  0.1226 -0.3180  0.1628
 7018W        W23865   0.393   7.039   0.474  0.2091 -0.3600 -0.1764
 7019W        W23866   7.814   8.532  13.281  0.0598 -0.2527 -0.2184
 7020W        W23867   5.544  19.357  13.033  0.2441  0.2349 -0.2078
 7021W        W23868   6.960   7.592  11.477  0.0461  0.0893 -0.2368
 7022W        W23869  12.859   7.769   0.802 -0.1442  0.0573  0.2280
 7023W        W23870   4.486  19.406  11.982  0.4899 -0.4323 -0.0978
 7024W        W23871  13.954   5.688   0.762 -0.2054 -0.1061  0.0085
 7025W        W23872  12.407  10.670   5.069  0.0315  0.1701 -0.0836
 7026W        W23873   7.673   5.450   2.434  0.2428 -0.1371  0.0987
 7027W        W23874   5.928   7.522   4.022 -0.0966  0.1659 -0.3698
 7028W        W23875   0.746  14.359   1.247 -0.1996  0.2784  0.0603
 7029W        W23876  11.605   8.030  11.082  0.1732  0.3898  0.2143
 7030W        W23877   9.536  15.320  10.862  0.2296 -0.2762 -0.1016
 7031W        W23878   0.120  12.249   3.203  0.0914  0.1249 -0.1229
 7032W        W23879   5.034  18.903  14.230 -0.2652  0.2395 -0.1749
 7033W        W23880   4.497   9.429   2.161  0.4451 -0.0571 -0.1993
 7034W        W23881  14.876  13.628   9.727  0.1118  0.1108 -0.0880
 7035W        W23882  11.766   9.465   3.681  0.0322 -0.1608  0.0660
 7036W        W23883  15.188  14.540  12.769 -0.1415 -0.0169 -0.0593
 7037W        W23884  11.063  19.565   1.926  0.2136 -0.0320 -0.2028
 7038W        W23885  14.222  10.076   0.105 -0.3185  0.2432  0.2090
 7039W        W23886   4.466  15.811   4.293  0.2012  0.1725 -0.1351
 7040W        W23887   5.789   6.117   4.260  0.1839 -0.1002  0.1353
 7041W        W23888  19.677   2.258   2.110 -0.2254 -0.0296  0.0312
 7042W        W23889  13.143  12.712   1.313  0.2093 -0.0123 -0.0442
 7043W        W23890   5.706  13.319  10.575  0.2229 -0.0241 -0.1618
 7044W        W23891   5.387  19.653  11.733 -0.0466 -0.0957 -0.0603
 7045W        W23892  16.987   9.399   2.362 -0.1577  0.1270 -0.1978
 7046W        W23893  11.389  11.692  14.213 -0.2036 -0.0400  0.0264
 7047W        W23894   8.102   0.029   1.318 -0.1270  0.1756  0.3106
 7048W        W23895   3.254   2.028   3.679  0.0770  0.2614  0.4463
 7049W        W23896  17.309   9.878   1.721 -0.1549 -0.1383 -0.0638
 7050W        W23897  10.823   5.831   3.057  0.1633  0.1596 -0.1305
 7051W        W23898   3.853   9.297   5.342 -0.2516  0.3322 -0.2013
 7052W        W23899   4.250   2.447   0.156 -0.2504  0.2169 -0.2603
 7053W        W23900   3.850   1.826   2.946 -0.0788  0.0089  0.2362
 7054W        W23901   8.941  10.054   8.954  0.0171 -0.2618 -0.0531
 7055W        W23902  10.340   1.890  10.081  0.0652  0.0719  0.2538
 7056W        W23903   6.448  11.548   3.205 -0.2225  0.1826 -0.1228
 7057W        W23904   9.337  17.565  10.291 -0.0199 -0.1307 -0.1643
 7058W        W23905  19.131  14.772   3.701  0.1335  0.1407 -0.1711
 7059W        W23906   1.318   6.654   1.426  0.1589 -0.2856 -0.1425
 7060W        W23907   9.612  13.301   4.017  0.0739 -0.3322 -0.2097
 7061W        W23908   5.830  16.091   0.222 -0.0723 -0.1796 -0.2633
 7062W        W23909   8.617  17.957   3.315 -0.0925 -0.3249  0.1407
 7063W        W23910  15.059  15.344   0.713  0.4137 -0.0218 -0.2198
 7064W        W23911   1.077  16.966   3.583  0.2592  0.1998  0.3683
 7065W        W23912  18.943  12.163   4.151  0.0853 -0.2426  0.1287
 7066W        W23913   1.882   8.488   2.767 -0.1550 -0.1615 -0.0501
 7067W        W23914  13.719   3.780  12.517 -0.2504  0.0096  0.0836
 7068W        W23915   6.247   8.908  12.536  0.2796 -0.1410  0.0740
 7069W        W23916  15.365  10.341  11.082  0.3013  0.1891 -0.1343
 7070W        W23917  11.127  12.905  10.473  0.0029  0.1593  0.2720
 7071W        W23918   0.297   2.178   0.816  0.2650  0.3286 -0.2563
 7072W        W23919   4.909  17.678   5.339  0.1574  0.0029 -0.0482
 7073W        W23920   9.608   9.244   1.917 -0.0288 -0.0636  0.1193
 7074W        W23921   7.571  16.005  13.591  0.2290 -0.3213 -0.0145
 7075W        W23922  19.101  11.944  13.668 -0.0241 -0.2123 -0.2707
 7076W        W23923  16.334   3.099  12.478 -0.0244  0.0107 -0.1171
 7077W        W23924  19.849   3.493  10.848 -0.0549  0.2105 -0.0591
 7078W        W23925   1.565  18.566   0.250 -0.0018 -0.1691  0.0501
 7079W        W23926  11.652  12.577   4.847 -0.1611 -0.1197 -0.2311
 7080W        W23927   3.934   7.344  12.173  0.0874 -0.1992  0.1469
 7081W        W23928  15.876  12.664   0.512  0.1011  0.2043  0.3273
 7082W        W23929   6.125  14.725   4.569  0.2193  0.0589  0.1530
 7083W        W23930  14.624   3.830  10.353 -0.1165  0.0855  0.0661
 7084W        W23931  16.253   3.060  11.867  0.1282  0.0557  0.1789
 7085W        W23932   8.046   9.030   9.246  0.1887  0.3068  0.1008
 7086W        W23933  11.604  13.922  13.293 -0.0405 -0.0476 -0.1718
 7087W        W23934   8.107   2.857  13.117  0.0167  0.2141  0.1703
 7088W        W23935  11.007   7.895  13.674  0.1761 -0.1325 -0.0948
 7089W        W23936   1.005  13.073   2.728  0.0698 -0.2063  0.1224
 7090W        W23937  13.016  15.221   3.116 -0.3231  0.0174 -0.0841
 7091W        W23938   5.908  19.737  10.654  0.0550 -0.0208 -0.0994
 7092W        W23939   1.087  12.221  11.288  0.2576 -0.2248 -0.0322
 7093W        W23940   4.789   0.481   4.372 -0.1493 -0.0849 -0.0923
 7094W        W23941  13.851   7.354  10.161  0.0117 -0.0366 -0.0267
 7095W        W23942  14.113  13.950   4.282  0.5298  0.0045  0.0362
 7096W        W23943  17.480   0.100   2.162  0.1919 -0.2292 -0.0060
 7097W        W23944  16.975  12.293   1.368 -0.0686 -0.0061  0.1796
 7098W        W23945  11.470  14.817   0.107  0.6058 -0.1816 -0.0181
 7099W        W23946  17.875  13.767   9.988  0.1306 -0.1617 -0.0785
 7100W        W23947  14.320   5.879   4.215  0.0198  0.0461 -0.0521
 7101W        W23948   4.224  15.050   4.353 -0.1079 -0.1536  0.0068
 7102W        W23949   4.198   2.025   5.639 -0.2151  0.2762 -0.1229
 7103W        W23950   9.682   4.551  10.453  0.0475  0.0194 -0.0155
 7104W        W23951   8.090   4.438  12.905  0.4306 -0.2368 -0.1865
 7105W        W23952  14.430  10.146  10.782 -0.0178 -0.0599  0.0756
 7106W        W23953  11.088   9.291   1.087  0.0853  0.3091  0.2373
 7107W        W23954  18.623  16.312   4.478  0.0797 -0.2602  0.1132
 7108W        W23955   0.951  13.154  11.462  0.2066 -0.0761 -0.2702
 7109W        W23956   5.811  17.354   4.446 -0.0136  0.0335  0.1158
 7110W        W23957   3.840   1.005   9.394 -0.3742  0.4879  0.0499
 7111W        W23958   8.273   0.217   2.506  0.0831  0.0518 -0.4486
 7112W        W23959   7.785  11.715  11.609  0.0698  0.2908 -0.2760
 7113W        W23960  12.096   4.457   0.257 -0.2385  0.3544 -0.0544
 7114W        W23961   8.086   3.203   0.363 -0.3235 -0.2508  0.0620
 7115W        W23962  12.797   8.165   1.081  0.3889  0.0468  0.3807
 7116W        W23963   5.123  14.536  13.120  0.2496 -0.2105  0.1580
 7117W        W23964  12.929  18.965   1.865  0.4163  0.0775  0.0486
 7118W        W23965  12.236  14.983  12.373 -0.1108 -0.2143  0.1120
 7119W        W23966  15.108  14.072   2.519 -0.0833  0.2284  0.0081
 7120W        W23967   1.990  13.148  10.484  0.2553 -0.0118 -0.4762
 7121W        W23968   2.291   1.584   4.962  0.2533 -0.4730 -0.1952
 7122W        W23969   0.449   4.099   3.646 -0.0709  0.3705 -0.0156
 7123W        W23970  10.608  14.192  11.357  0.0915 -0.3072 -0.2422
 7124W        W23971   6.263  11.342   4.798 -0.2154  0.0188 -0.0072
 7125W        W23972   2.298  17.225   3.318  0.1835  0.2250 -0.1974
 7126W        W23973  18.208  11.407  12.028 -0.3830 -0.2244 -0.0184
 7127W        W23974   3.375   7.479   1.516 -0.1131  0.1947 -0.1875
 7128W        W23975   8.565   1.745  13.636 -0.3058  0.1522 -0.1778
 7129W        W23976  10.576   7.773   2.793 -0.1309  0.1806 -0.1136
 7130W        W23977  13.405   7.477  11.794  0.2896  0.0531 -0.1541
 7131W        W23978   9.449   5.557   0.165 -0.1071 -0.2369 -0.1326
 7132W        W23979  11.142  16.913   1.381 -0.1524  0.1120 -0.5765
 7133W        W23980   9.628   1.578   0.106 -0.0327 -0.1499  0.1280
 7134W        W23981  19.191  11.189   5.601  0.0347 -0.1250 -0.1304
 7135W        W23982   5.839  12.194   1.297  0.2329 -0.1826 -0.0170
 7136W        W23983   8.224   4.002  11.136  0.0492 -0.1670  0.0257
 7137W        W23984  15.329   5.153  13.055 -0.0641 -0.1746 -0.0369
 7138W        W23985   7.889  16.353   2.644  0.1839 -0.2206  0.0061
 7139W        W23986  10.649  14.004   2.600 -0.0272 -0.0963  0.1993
 7140W        W23987  19.410  19.060  11.506 -0.2592 -0.0361 -0.2982
 7141W        W23988   6.592  10.334   2.342  0.0551  0.0272  0.1770
 7142W        W23989   7.125   4.280  13.154 -0.3503 -0.1457  0.0267
 7143W        W23990   1.388   1.048  11.051 -0.3040  0.0640 -0.2921
 7144W        W23991  16.139   5.087   4.542  0.1215  0.0508 -0.0176
 7145W        W23992   3.702   2.190   0.733 -0.2187 -0.4016 -0.1871
 7146W        W23993   4.922  16.110   1.503 -0.2579 -0.1559 -0.0743
 7147W        W23994  17.873   6.898  11.237  0.1841 -0.1100 -0.2436
 7148W        W23995  12.216   8.425   2.683 -0.0649  0.1868  0.2036
 7149W        W23996  15.044   4.779   4.966  0.0345 -0.0711 -0.1354
 7150W        W23997  14.514   4.961  10.099  0.0257 -0.0801  0.2274
 7151W        W23998  13.644  11.115  10.922  0.3118  0.1974 -0.0021
 7152W        W23999   1.977  18.848   4.343 -0.3061 -0.0421 -0.1604
 7153W        W24000  16.631   4.496   0.725 -0.1526  0.3211  0.1806
 7154W        W24001   2.496  11.922  12.942 -0.1020 -0.2293 -0.0526
 7155W        W24002   0.622  14.407  11.980 -0.0300  0.2184 -0.3938
 7156W        W24003   5.801   6.245   3.000  0.3093  0.1389  0.0114
 7157W        W24004   7.601   2.631  12.136  0.0935  0.3694 -0.1554
 7158W        W24005   2.358  12.066  10.823  0.0749  0.4358  0.1220
 7159W        W24006  14.643  10.282   2.356  0.1455  0.2977  0.0753
 7160W        W24007   8.567   5.667   3.004  0.1734 -0.2162 -0.0098
 7161W        W24008   0.449  16.172   1.721  0.0686 -0.0577  0.1011
 7162W        W24009  18.146   0.923  14.298 -0.0179  0.0692  0.1320
 7163W        W24010  10.909  18.304   4.493 -0.0029 -0.1726 -0.1633
 7164W        W24011  14.859  10.799  10.983  0.4318 -0.0495  0.1053
 7165W        W24012   9.058  15.337  11.946 -0.0278 -0.0322  0.0908
 7166W        W24013  13.365   6.933  14.162  0.0622 -0.3044 -0.0834
 7167W        W24014   6.889  15.241   1.821 -0.4393  0.1043  0.0605
 7168W        W24015  17.121  18.844   0.776 -0.2400  0.1391  0.0715
 7169W        W24016  13.691   8.099   1.928  0.1729 -0.0613 -0.0643
 7170W        W24017   4.119   4.249   1.432 -0.0743  0.0228 -0.2981
 7171W        W24018  18.713  18.081   4.020  0.2083 -0.1337  0.1909
 7172W        W24019   1.771   7.825   3.951 -0.1214 -0.1237  0.0654
 7173W        W24020   5.449   1.887  10.618  0.0662  0.2763  0.2301
 7174W        W24021   8.098   2.162  10.794  0.0358 -0.1103  0.1087
 7175W        W24022  18.405  18.259   1.280 -0.1911  0.2471  0.1451
 7176W        W24023  11.701  12.583   2.543  0.4202  0.0940 -0.3388
 7177W        W24024  17.526  11.218   4.465 -0.2718 -0.0867 -0.1987
 7178W        W24025  13.189  17.824   0.582  0.1328  0.1615  0.0851
 7179W        W24026  17.463  10.763  13.322  0.1078  0.4184 -0.3258
 7180W        W24027  13.823  13.196   0.972 -0.0240 -0.2996 -0.0915
 7181W        W24028  16.817   2.028   4.848  0.0839  0.0800 -0.0284
 7182W        W24029  19.545  17.660   1.341 -0.3482  0.2628 -0.2138
 7183W        W24030  14.244   8.803  10.704  0.2983 -0.2892 -0.2903
 7184W        W24031  17.643  16.320  11.977  0.1941 -0.1333  0.0768
 7185W        W24032   2.274  16.177   0.741  0.0797  0.0974 -0.1288
 7186W        W24033   9.797   7.864   2.983  0.0278 -0.1170 -0.1554
 7187W        W24034  17.524  13.152   4.097 -0.1540 -0.2817  0.0680
 7188W        W24035  18.945   6.230  11.169  0.2255 -0.1052  0.0592
 7189W        W24036  15.531  14.444   3.798  0.1898 -0.0624  0.2135
 7190W        W24037   4.756   2.208   4.305  0.3406  0.1211 -0.1800
 7191W        W24038   3.814  15.153  13.661  0.1175 -0.0455 -0.0858
 7192W        W24039  13.764   9.200  12.113 -0.1523 -0.3136 -0.0684
 7193W        W24040  19.361   9.306  12.671 -0.1582 -0.0096 -0.0227
 7194W        W24041  17.475   5.805  12.984 -0.2140 -0.0776 -0.2859
 7195W        W24042   4.261   8.428   5.108  0.0422  0.1181 -0.1681
 7196W        W24043   4.091  14.002  12.273  0.2141  0.0432  0.1552
 7197W        W24044  14.776  16.712   4.068  0.0016  0.0621  0.1651
 7198W        W24045   7.674  11.443   4.459  0.1801  0.3379 -0.5449
 7199W        W24046  19.284   8.500  12.046  0.2583  0.2216 -0.1160
 7200W        W24047  19.341   4.996   4.028  0.1996 -0.0699  0.3949
 7201W        W24048  10.957   0.387  12.857  0.0907  0.0227  0.1678
 7202W        W24049   7.060   1.612  10.679 -0.5461 -0.0337  0.1009
 7203W        W24050  16.640   7.411  13.222 -0.2805  0.0469  0.3275
 7204W        W24051  16.945  13.194  12.165 -0.2105  0.2994  0.2754
 7205W        W24052  14.063  10.028   0.582 -0.1796  0.0080  0.1211
 7206W        W24053  19.782   3.640   0.915 -0.1261 -0.1550  0.0667
 7207W        W24054   2.011  10.360  11.439  0.3070  0.1466  0.1457
 7208W        W24055  12.340  16.875  10.840 -0.4506  0.0325  0.2604
 7209W        W24056   0.847  19.276   3.429  0.1409  0.0451 -0.4805
 7210W        W24057  18.753  18.830  12.686  0.1409  0.1530  0.1177
 7211W        W24058   2.124   9.951   3.644 -0.0796 -0.3067  0.1313
 7212W        W24059  15.973  12.403   9.899  0.2747  0.2010 -0.0256
 7213W        W24060  11.545  15.675  12.798 -0.0230 -0.0712 -0.2077
 7214W        W24061  13.024   0.885   4.057 -0.0069  0.0105 -0.1209
 7215W        W24062   6.092  13.388  13.874 -0.0429  0.0247  0.0790
 7216W        W24063   0.699   2.594   0.539 -0.0699 -0.0954 -0.0118
 7217W        W24064   6.802  16.042   2.527  0.1435  0.0219 -0.1140
 7218W        W24065  13.862   8.057   4.601  0.0418 -0.2030  0.0208
 7219W        W24066  13.332   5.962   1.112  0.0252  0.0996 -0.0309
 7220W        W24067  10.080  19.556  12.506 -0.1234  0.0788 -0.0249
 7221W        W24068  13.992   0.964   4.359 -0.0429 -0.3085  0.3163
 7222W        W24069   2.160   5.755  11.702  0.0488  0.4197 -0.2727
 7223W        W24070   9.240   7.163  12.912  0.1588 -0.0633  0.2204
 7224W        W24071  12.052   2.735   0.984 -0.1386 -0.0116  0.0804
 7225W        W24072   7.910   3.637  14.282  0.3457 -0.3633  0.0146
 7226W        W24073  16.713  13.661  10.449  0.1732  0.1045  0.1525
 7227W        W24074   3.909   3.689   2.209 -0.0974  0.2488  0.1198
 7228W        W24075  19.497   5.642  12.979  0.5406  0.1943  0.0800
 7229W        W24076   3.282   0.908   1.492 -0.1358 -0.5054 -0.1271
 7230W        W24077   4.264  19.107   4.852  0.1127  0.0737  0.2721
 7231W        W24078  16.711   8.153   3.943  0.1494  0.0153 -0.0753
 7232W        W24079   1.158   7.706  11.185 -0.1032 -0.3412  0.1207
 7233W        W24080   0.532  11.625  13.213 -0.0897 -0.2886  0.2503
 7234W        W24081   9.680   5.599  12.732  0.0228  0.0605 -0.0658
 7235W        W24082  19.801  10.790  14.011 -0.0431  0.0168 -0.1129
 7236W        W24083   9.597   8.156   0.284  0.1196  0.2557 -0.2935
 7237W        W24084   5.229   7.291  10.241  0.0480  0.0984 -0.1096
 7238W        W24085  10.417  16.857  12.279 -0.1724 -0.5321 -0.2585
 7239W        W24086   6.276   4.248   9.074 -0.0484 -0.3448 -0.1410
 7240W        W24087   4.960  15.824   1.003  0.1912 -0.0716  0.0206
 7241W        W24088   9.312   3.605   0.899  0.1189 -0.4817 -0.0320
 7242W        W24089   6.774   1.681   0.311  0.0248 -0.1536  0.0709
 7243W        W24090  18.902   1.354   4.314 -0.1461 -0.1052 -0.1554
 7244W        W24091  10.988  13.217  10.901  0.0666  0.5820  0.0066
 7245W        W24092   1.960   6.686   0.829  0.3196  0.2210 -0.3180
 7246W        W24093   6.020  14.623  10.885 -0.0054  0.0414 -0.1289
 7247W        W24094   7.695  19.632   1.359  0.1664  0.1121  0.3166
 7248W        W24095   9.023   3.074   3.220  0.1705 -0.3477  0.1190
 7249W        W24096  10.514  17.621   2.894  0.0894 -0.1456  0.1190
 7250W        W24097  12.743  12.101   1.786 -0.3137  0.2066  0.1238
 7251W        W24098   7.496  18.841  12.704  0.0255  0.0014 -0.1762
 7252W        W24099  19.018   1.326   5.665 -0.0274 -0.0099 -0.0978
 7253W        W24100  13.566  15.340   4.492 -0.1193 -0.2698 -0.1436
 7254W        W24101   6.168   8.050   1.837  0.1477 -0.0861 -0.0773
 7255W        W24102  18.028  16.354  13.870 -0.1557  0.1126  0.3078
 7256W        W24103   1.803   6.358  12.779  0.0111  0.0380  0.0502
 7257W        W24104  12.508   8.208   1.957 -0.3937 -0.0160 -0.1566
 7258W        W24105   5.768  19.080   3.700 -0.1861 -0.0095 -0.3460
 7259W        W24106   4.875   0.761   0.859 -0.0359 -0.1913  0.2208
 7260W        W24107  12.918  12.501  13.995 -0.0256  0.2240 -0.2962
 7261W        W24108  19.356   7.463   4.423 -0.0126  0.2774  0.1075
 7262W        W24109  15.962   8.994   0.650 -0.0566  0.1479  0.1681
 7263W        W24110   8.009   4.061  12.395 -0.1481 -0.2376  0.0687
 7264W        W24111   1.615   5.746  11.370  0.0733 -0.1257  0.1637
 7265W        W24112  17.730   1.875   3.828  0.1269  0.1616 -0.0149
 7266W        W24113   7.893   8.067   2.684  0.1772  0.0543 -0.0160
 7267W        W24114  16.945   0.262  10.796 -0.1528  0.1407  0.2589
 7268W        W24115   6.923   2.340   5.267  0.0890 -0.0407  0.1082
 7269W        W24116   6.186   7.114  13.392 -0.0918 -0.0716 -0.0490
 7270W        W24117  11.778   8.724   4.533 -0.0755  0.0730 -0.2427
 7271W        W24118  13.000   3.132   3.001 -0.0430 -0.1861  0.2188
 7272W        W24119  18.091  12.278   0.307 -0.1425 -0.3766  0.2136
 7273W        W24120   7.155  17.849  10.375 -0.1217  0.3252  0.0466
 7274W        W24121   3.176   6.129  12.779  0.2210 -0.1552 -0.2088
 7275W        W24122   2.596  11.838   2.018 -0.0876 -0.1502 -0.0047
 7276W        W24123  12.026  13.085  10.965 -0.1124 -0.3318 -0.1462
 7277W        W24124  16.222   8.097  10.775  0.3632  0.2371  0.3015
 7278W        W24125  17.792  15.735   1.409  0.1108 -0.0363  0.0022
 7279W        W24126  18.445  16.148  10.396 -0.1425  0.0082  0.1153
 7280W        W24127   4.258  19.471  11.260  0.1157  0.2965 -0.2772
 7281W        W24128   4.752  14.223  12.262  0.1740  0.1237 -0.0207
 7282W        W24129   1.371  14.876  14.019  0.1584 -0.1666  0.0954
 7283W        W24130   0.649   9.040   2.723  0.2277  0.2083  0.0110
 7284W        W24131  12.785   4.735   4.273 -0.1936 -0.1554  0.1469
 7285W        W24132   9.312  14.047  11.599 -0.0625 -0.2047 -0.0611
 7286W        W24133   4.804  11.170  10.165 -0.1156  0.2054 -0.0643
 7287W        W24134  12.612  12.590   1.476 -0.2252 -0.0575 -0.1264
 7288W        W24135  19.048   7.864   4.348  0.2176 -0.0383  0.1647
 7289W        W24136   3.856   1.974   4.413 -0.0773 -0.0540 -0.1369
 7290W        W24137   6.807  13.553  11.757  0.0319 -0.0129  0.0671
 7291W        W24138  12.927  14.456   1.069 -0.1548  0.3510  0.1891
 7292W        W24139  18.546  16.435   1.078 -0.0295 -0.0250  0.0951
 7293W        W24140   6.948   1.233   4.273  0.1644  0.1764 -0.0103
 7294W        W24141  10.232   4.162  12.156 -0.1745 -0.0705 -0.2197
 7295W        W24142  10.649  15.548  10.379 -0.0330  0.2126  0.0334
 7296W        W24143   8.797  14.890  12.809 -0.1908  0.2349 -0.3151
 7297W        W24144  10.427   8.846   2.701  0.0170  0.0012  0.0788
 7298W        W24145   8.745   7.300  10.683 -0.0875  0.3051 -0.3769
 7299W        W24146   5.405   6.272   2.678  0.0881 -0.3169  0.4923
 7300W        W24147   4.315  16.442  10.188 -0.1649 -0.2135 -0.1117
 7301W        W24148  16.903   8.577   3.813  0.1965 -0.1729 -0.0917
 7302W        W24149   2.478   0.644   1.967  0.1328  0.1562  0.2141
 7303W        W24150   5.400   2.176   3.422 -0.0259  0.0557 -0.0735
 7304W        W24151  15.919  18.942  10.557  0.1511 -0.0552 -0.0580
 7305W        W24152  18.702   6.003  13.098  0.0923 -0.1206  0.3061
 7306W        W24153   3.980   6.398   4.788 -0.0195  0.3181  0.3975
 7307W        W24154   9.422  15.082   2.219  0.0837 -0.3389 -0.0272
 7308W        W24155   6.782   8.801   2.514 -0.0040 -0.2961 -0.0501
 7309W        W24156   4.274  10.740  12.389  0.4283  0.0497  0.2328
 7310W        W24157   8.033  13.949   2.557  0.1973 -0.1352 -0.1895
 7311W        W24158  10.430  16.581  11.268 -0.1468 -0.0715  0.0263
 7312W        W24159  16.085   5.109  12.625  0.1753  0.3036  0.0827
 7313W        W24160   3.485  16.447   2.311  0.2245 -0.0845  0.0375
 7314W        W24161   3.001  12.272   2.105 -0.0261  0.2175  0.1405
 7315W        W24162  16.376   8.152  13.958 -0.3216  0.3523  0.0335
 7316W        W24163  10.359  11.171   0.371  0.2237  0.0909 -0.0723
 7317W        W24164  14.542  19.380   3.440  0.0621 -0.1110 -0.1843
 7318W        W24165  10.410   6.378  14.142  0.0196  0.1408  0.1829
 7319W        W24166  17.998   5.273   3.562 -0.0009  0.0695  0.4614
 7320W        W24167   2.567  10.267   4.690 -0.0144 -0.3402  0.4583
 7321W        W24168   6.712  18.658   3.592 -0.5231 -0.0059  0.0911
 7322W        W24169  19.006   2.727   3.461  0.0059 -0.0581 -0.4286
 7323W        W24170   4.982  15.009  13.595 -0.0987 -0.0496 -0.1998
 7324W        W24171   9.821  16.214   0.115  0.2538 -0.0546  0.1114
 7325W        W24172  12.333  12.149   2.012  0.0869 -0.2451 -0.0521
 7326W        W24173  11.397   7.780   3.838 -0.0129  0.0916  0.0775
 7327W        W24174  14.648  15.744   4.922 -0.0690  0.0572 -0.4897
 7328W        W24175  12.547  16.142  11.734 -0.3055  0.2140 -0.2002
 7329W        W24176   6.309   0.709   0.441 -0.3196 -0.1823  0.0764
 7330W        W24177   4.017   5.681  13.000 -0.0153  0.0616 -0.5049
 7331W        W24178  16.988  17.089   3.363 -0.0049 -0.0498  0.0300
 7332W        W24179   8.659  13.982  13.859 -0.2175  0.0736 -0.3671
 7333W        W24180  10.346  18.941   5.120  0.0540 -0.0153 -0.0797
 7334W        W24181  17.406   2.022  12.112  0.3376 -0.2565  0.2920
 7335W        W24182  17.082  19.562  11.609 -0.2873  0.1100 -0.1174
 7336W        W24183  19.560   4.904   2.625 -0.2878  0.1228 -0.0862
 7337W        W24184   2.999  11.216  10.651  0.2097  0.2024  0.0739
 7338W        W24185   2.712  10.012   0.413  0.0685  0.0712 -0.0794
 7339W        W24186   0.920  13.482   3.047 -0.2914 -0.5153  0.3248
 7340W        W24187   4.728  17.021   5.718  0.0083 -0.3383  0.0165
 7341W        W24188   2.188   7.691   3.729  0.3025 -0.2003  0.2252
 7342W        W24189   0.388   5.269   3.903  0.1448  0.0290 -0.2305
 7343W        W24190  11.203   6.911   1.373 -0.3447 -0.2031 -0.0849
 7344W        W24191   2.123  12.874  13.096 -0.0859 -0.0286  0.3557
 7345W        W24192  19.841  11.700  11.885 -0.0073 -0.0910  0.2207
 7346W        W24193  18.236   8.294   9.561 -0.0089  0.0102 -0.2119
 7347W        W24194  11.024   8.081  13.202 -0.1672 -0.1705 -0.2417
 7348W        W24195  16.258   7.546  14.053  0.0778 -0.1416  0.3653
 7349W        W24196   7.145  16.777   2.562 -0.0109 -0.1105 -0.2339
 7350W        W24197   0.467  11.200  13.454  0.0033 -0.1218 -0.1188
 7351W        W24198  13.709   4.545   0.691 -0.0749 -0.1383  0.2713
 7352W        W24199  11.987  17.485  11.191 -0.2120  0.2103 -0.2467
 7353W        W24200  13.980  10.613   4.604 -0.1548 -0.2632  0.2429
 7354W        W24201   1.977  10.251   4.465 -0.1030  0.0311  0.0178
 7355W        W24202   4.752   6.987   3.362 -0.3511 -0.0797 -0.0643
 7356W        W24203   8.703   9.666   3.610 -0.1492 -0.1669  0.2681
 7357W        W24204   7.919  13.627   4.667  0.1530  0.2389  0.0522
 7358W        W24205  15.279   3.757   2.971  0.1321 -0.1715  0.0548
 7359W        W24206  11.235   9.481  12.746 -0.1705 -0.0295  0.1865
 7360W        W24207  16.446   5.914   0.327 -0.1529  0.1799 -0.1403
 7361W        W24208   7.814   1.941  10.507 -0.0527 -0.1569  0.0569
 7362W        W24209   5.306   7.853   0.697  0.2240  0.2084  0.2901
 7363W        W24210   3.623   3.662  12.548  0.5074  0.0974  0.2266
 7364W        W24211  16.070  11.452   4.111 -0.1423  0.0937 -0.0469
 7365W        W24212  14.438  13.365   9.791 -0.0981 -0.3577 -0.1143
 7366W        W24213   9.703   8.284  10.464  0.2965 -0.0646 -0.0480
 7367W        W24214  17.684   0.746  13.391  0.1845 -0.1202  0.2210
 7368W        W24215   1.782   9.003  14.215 -0.3112  0.1109 -0.0965
 7369W        W24216  17.817  12.696  14.293  0.6506 -0.1562  0.1487
 7370W        W24217   8.868   8.585  12.411  0.1037 -0.1058 -0.2281
 7371W        W24218  12.518  13.091   2.513 -0.1105 -0.1065  0.0703
 7372W        W24219   5.997  13.474  12.365  0.2251 -0.2828 -0.1330
 7373W        W24220   4.792   5.157   3.731  0.0240 -0.1666 -0.0788
 7374W        W24221   1.078   7.960   3.678  0.1149  0.2038  0.0019
 7375W        W24222   6.825   5.354  13.917 -0.2364 -0.3200 -0.0462
 7376W        W24223   2.007   7.740  11.377  0.3875  0.2035  0.1197
 7377W        W24224   0.376  16.171   9.551  0.0494 -0.1042 -0.1576
 7378W        W24225  18.893   3.083  14.005  0.2943 -0.1511  0.0684
 7379W        W24226  17.839   3.172   3.886 -0.1495 -0.0250  0.0378
 7380W        W24227  17.882  17.306  14.232  0.1860  0.2594  0.0288
 7381W        W24228   7.614   1.892   4.582 -0.0959 -0.0891  0.0399
 7382W        W24229  11.844  11.289  12.652  0.0759 -0.1128  0.1110
 7383W        W24230   7.273   6.890   3.938  0.1400 -0.2453 -0.0558
 7384W        W24231   4.197   2.549  14.062 -0.3285 -0.0930  0.1902
 7385W        W24232   7.916   7.316   4.500 -0.0904 -0.1095  0.1136
 7386W        W24233  12.285  12.077  12.144  0.1164 -0.1007 -0.0553
 7387W        W24234   8.536  18.792  11.538  0.1081  0.0311  0.1804
 7388W        W24235  18.191  11.176   2.257 -0.5565  0.0714  0.0185
 7389W        W24236   1.716   0.062   1.672 -0.0214  0.0445  0.1900
 7390W        W24237  10.837   2.185   1.044  0.0303 -0.0589 -0.2568
 7391W        W24238  17.749  19.375   1.405 -0.0110  0.2206 -0.1610
 7392W        W24239   4.794  15.825  13.161 -0.1104 -0.1616 -0.2083
 7393W        W24240  19.041   5.536  13.792 -0.0605  0.0821 -0.0817
 7394W        W24241  14.260  15.061  13.834  0.1028  0.2269  0.1250
 7395W        W24242   8.074  10.641   0.455 -0.1749 -0.0075  0.0612
 7396W        W24243   5.737  14.805   1.981  0.1417 -0.0554  0.0510
 7397W        W24244   0.106   0.270  12.578 -0.2243 -0.1789 -0.1794
 7398W        W24245   4.462   5.983   1.516  0.2194 -0.1946 -0.0367
 7399W        W24246   9.911  16.580   9.104  0.2490  0.1049 -0.0295
 7400W        W24247   0.765  12.299   0.792 -0.0449  0.1370  0.0177
 7401W        W24248   7.914  17.362   0.105  0.0606  0.3750  0.1301
 7402W        W24249   4.580   3.666  11.850 -0.0844 -0.0030  0.1655
 7403W        W24250   0.376  11.625  12.295  0.0676 -0.1492 -0.2355
 7404W        W24251   8.523  18.368   1.447  0.1068  0.2797  0.0143
 7405W        W24252  18.636  18.043   2.652 -0.2219 -0.0461 -0.0996
 7406W        W24253   3.117  12.065  10.337  0.2151  0.0806  0.1017
 7407W        W24254  11.767  17.274   0.976  0.0911  0.1514 -0.1448
 7408W        W24255   2.688  15.533   5.049 -0.0136  0.0826 -0.0938
 7409W        W24256  16.391  19.037   1.993 -0.1284  0.0420 -0.1460
 7410W        W24257  13.322  18.314   2.339  0.0701 -0.2880 -0.2031
 7411W        W24258   8.104  11.327  14.356 -0.3106 -0.3143 -0.0323
 7412W        W24259  10.403  14.988  13.168 -0.3985 -0.0104  0.2373
 7413W        W24260   6.740   9.487   2.627 -0.2272  0.3025 -0.1407
 7414W        W24261  14.438  14.453  13.087 -0.0445 -0.1751  0.2766
 7415W        W24262  18.051   8.763  10.565 -0.1614  0.0170  0.0163
 7416W        W24263  16.972  11.196  12.245  0.2283 -0.0088  0.2527
 7417W        W24264   5.782   2.659  10.609 -0.1130  0.0342  0.1512
 7418W        W24265  10.991   4.033  12.969  0.0655 -0.1937 -0.2063
 7419W        W24266  16.510  12.059   1.533 -0.2276 -0.0114  0.1059
 7420W        W24267  13.071  10.277  10.076  0.2322 -0.0671  0.0242
 7421W        W24268  12.072   1.640   0.671 -0.2467 -0.2171  0.1530
 7422W        W24269   6.248   0.215  10.795  0.0886  0.1261 -0.0408
 7423W        W24270  12.016   6.996   0.718 -0.0141  0.0236 -0.2569
 7424W        W24271  13.286  19.787   9.315  0.1896 -0.3294  0.1299
 7425W        W24272  19.274   0.544  13.138 -0.2256 -0.0713  0.0369
 7426W        W24273  17.649   9.752   0.033  0.2062  0.2742  0.0634
 7427W        W24274  19.695   9.718   2.730  0.0613  0.1981 -0.0765
 7428W        W24275   5.578   0.091  13.322 -0.2260  0.1076  0.0910
 7429W        W24276   4.994   3.077  12.885  0.0523 -0.1043  0.0868
 7430W        W24277   8.306  12.309  13.279  0.0023 -0.2533 -0.0238
 7431W        W24278   2.993   9.782  10.582 -0.0371 -0.3430 -0.0182
 7432W        W24279   8.121  10.357  13.733 -0.4593  0.0896  0.1297
 7433W        W24280   8.429   7.543  11.198 -0.2917 -0.1653 -0.4441
 7434W        W24281  14.148  16.240   1.841 -0.0054  0.1940  0.0227
 7435W        W24282   8.456  17.601   4.718 -0.0313  0.1166 -0.2239
 7436W        W24283  12.563  19.788   4.534 -0.0040  0.1574  0.0719
 7437W        W24284   9.926   8.820   1.956  0.2750  0.0896  0.1906
 7438W        W24285   2.267  10.132  11.819  0.0825  0.1361  0.0836
 7439W        W24286  10.536  15.016   3.248  0.0972  0.0749  0.2250
 7440W        W24287   2.222   4.554   4.438  0.3667  0.2116 -0.0305
 7441W        W24288   7.015  19.312  10.421  0.1203  0.0229 -0.0733
 7442W        W24289   7.716   9.601   4.359 -0.1822 -0.0713 -0.3840
 7443W        W24290  13.686  14.026   1.337 -0.1367  0.0232  0.0242
 7444W        W24291   2.791  18.734  10.763 -0.1095  0.0081 -0.0026
 7445W        W24292  11.212  15.593   4.344 -0.0027 -0.2592  0.0607
 7446W        W24293  13.350   5.143  13.041  0.3957 -0.1182 -0.2149
 7447W        W24294  12.303   0.162   5.202 -0.3375 -0.4034  0.0993
 7448W        W24295  19.785   1.513   1.363 -0.2128  0.3793 -0.1946
 7449W        W24296  14.795  13.742   2.328 -0.1983 -0.0377  0.2359
 7450W        W24297  18.496   0.108  11.918  0.0363  0.0416 -0.1046
 7451W        W24298   5.377  19.042   5.385  0.2809  0.0264 -0.0394
 7452W        W24299   6.523   6.119   0.039 -0.2305 -0.1190  0.0784
 7453W        W24300  13.020  17.909  12.686 -0.2949  0.0553 -0.4922
 7454W        W24301   1.411  14.187   1.304 -0.2660 -0.0681 -0.0787
 7455W        W24302  19.819   4.103   3.213 -0.1549  0.1341 -0.0928
 7456W        W24303   3.330   4.834   2.931  0.1801 -0.1649  0.2446
 7457W        W24304  11.154   5.969  13.168 -0.1619  0.1687 -0.3473
 7458W        W24305   9.101   2.365   3.012 -0.0177 -0.1358  0.2767
 7459W        W24306  14.218  18.527   4.926 -0.0426 -0.1363  0.0311
 7460W        W24307   4.522   7.892   3.832  0.1528 -0.1555 -0.1766
 7461W        W24308   7.364  16.471   1.268 -0.0296 -0.0336  0.0214
 7462W        W24309  10.217  14.504  11.433 -0.1333 -0.1158 -0.2159
 7463W        W24310  11.160   5.203  13.917 -0.0313 -0.3129 -0.0362
 7464W        W24311  17.704  18.424  10.328 -0.0868  0.1740  0.2811
 7465W        W24312  19.423  12.843   0.547 -0.0247  0.1980 -0.0040
 7466W        W24313  19.413   0.254  12.517 -0.2878 -0.5223  0.0129
 7467W        W24314  16.269  15.468  10.833  0.1569  0.0841 -0.0236
 7468W        W24315  15.590   9.774  10.119  0.1644 -0.1223  0.5275
 7469W        W24316  17.617  10.215  12.589 -0.0880  0.2884  0.2504
 7470W        W24317   8.946  14.085  10.965  0.2083  0.1190  0.0609
 7471W        W24318   1.383   0.296   1.992  0.0374  0.2201  0.0143
 7472W        W24319  15.975   6.249  12.990  0.0160 -0.0083 -0.1516
 7473W        W24320   3.697   2.255   4.859 -0.0275 -0.1447  0.1652
 7474W        W24321   6.041  15.155  13.108  0.2238  0.1581  0.1292
 7475W        W24322   3.915   5.975   1.221  0.0080 -0.0020  0.0492
 7476W        W24323  15.331  11.052   2.330  0.0069  0.1067 -0.1561
 7477W        W24324   9.163   2.520   1.934 -0.0808  0.1486  0.2448
 7478W        W24325  15.679  18.930   3.148  0.5168  0.0509 -0.0825
 7479W        W24326  11.339  13.218   1.950  0.1726  0.0362 -0.3192
 7480W        W24327  15.761  12.735  13.328 -0.0555  0.1630 -0.0393
 7481W        W24328   6.494  15.192  12.412  0.1250 -0.1610 -0.3164
 7482W        W24329  15.250  11.164   1.807  0.2195 -0.2559  0.1107
 7483W        W24330  17.459  12.893   4.987  0.1207  0.2117  0.2404
 7484W        W24331   1.464  10.629  13.917  0.0217  0.0232  0.0807
 7485W        W24332  18.034   9.641  10.959 -0.0207 -0.0423 -0.0528
 7486W        W24333   4.023  13.687  11.822 -0.0058 -0.0130  0.1098
 7487W        W24334   9.869  12.746   2.638 -0.4038 -0.3894 -0.0086
 7488W        W24335   9.818   9.699  13.696  0.1243  0.0212 -0.0318
 7489W        W24336   6.261   0.576  11.684  0.2987  0.0120 -0.2363
 7490W        W24337   0.060  15.489  12.041  0.2608  0.0799 -0.3191
 7491W        W24338   8.088  14.184   5.341 -0.3129  0.1801 -0.0355
 7492W        W24339  12.218   8.333   5.075 -0.1454 -0.0900 -0.4134
 7493W        W24340   5.688  13.754   2.358 -0.0607  0.0350  0.2300
 7494W        W24341  12.996  13.780   2.753 -0.2018  0.0506 -0.0320
 7495W        W24342  18.179   6.178  13.823  0.1918  0.3442  0.0759
 7496W        W24343  10.232  15.821  14.329 -0.1348 -0.0118  0.3933
 7497W        W24344  13.078   5.251   0.543  0.3131 -0.1642  0.0844
 7498W        W24345  18.204  14.410   1.884 -0.1118 -0.0256 -0.0969
 7499W        W24346  13.323   0.084  11.572 -0.0450  0.2785 -0.0171
 7500W        W24347   7.333  11.591   2.861  0.0279  0.1255 -0.0285
 7501W        W24348  16.260  11.492  10.200  0.0619 -0.3317 -0.2381
 7502W        W24349   0.422  14.357  12.865 -0.2125  0.1354  0.2492
 7503W        W24350  10.234   1.794   1.638  0.0347 -0.1971 -0.1177
 7504W        W24351  16.097  10.858   2.925  0.0588 -0.0099 -0.0410
 7505W        W24352   7.896  17.592   0.549  0.1639 -0.0368 -0.1543
 7506W        W24353   9.253  15.637   0.535 -0.0930  0.1048 -0.0828
 7507W        W24354  19.511   3.140   4.126  0.2584 -0.4945  0.0792
 7508W        W24355   3.840   5.658  10.783 -0.2042 -0.1077  0.2138
 7509W        W24356  13.664   2.746   2.403 -0.1302  0.0256 -0.0784
 7510W        W24357   4.948  14.516  11.893  0.0173 -0.0324  0.2076
 7511W        W24358   6.900   3.386   2.793  0.0321 -0.2752 -0.2761
 7512W        W24359  15.176   2.231  11.749  0.2979 -0.1053 -0.2842
 7513W        W24360   9.968  10.855  10.986  0.1350  0.1190 -0.2817
 7514W        W24361   2.361   7.656   1.457  0.2365  0.0676 -0.1616
 7515W        W24362  17.001  10.412  11.615  0.0863 -0.1050 -0.2408
 7516W        W24363  17.612   2.432   3.932 -0.1048 -0.0989 -0.2444
 7517W        W24364  15.367  16.646  13.260 -0.0157  0.0929 -0.3194
 7518W        W24365   1.545   5.371   0.841  0.0717  0.0561 -0.4907
 7519W        W24366   8.244  18.422   1.909  0.4604  0.1811 -0.2319
 7520W        W24367  15.464  10.028   0.192 -0.0418 -0.1885 -0.3406
 7521W        W24368  18.996  15.271   4.413 -0.1311 -0.1231 -0.2668
 7522W        W24369  11.805  12.636  10.981 -0.0500  0.0953  0.0826
 7523W        W24370  11.856   3.617  13.543 -0.2627 -0.1512 -0.0101
 7524W        W24371  14.755   9.733  10.088 -0.0644 -0.2327 -0.1986
 7525W        W24372  19.738   4.285   2.290 -0.2047 -0.2575 -0.1011
 7526W        W24373  12.720   7.365  11.029  0.5221  0.0739 -0.0501
 7527W        W24374   5.728   3.371   2.320  0.0201  0.2527  0.0159
 7528W        W24375   7.910  16.554   3.723 -0.2822 -0.0852 -0.0564
 7529W        W24376   9.430  14.280   0.591 -0.0704  0.3286 -0.0303
 7530W        W24377  11.135   9.733  10.445 -0.3115  0.1411  0.2922
 7531W        W24378   9.317  13.494  12.265  0.0265  0.1306  0.1055
 7532W        W24379   6.775   1.776  11.027 -0.1749  0.4884 -0.1563
 7533W        W24380  18.473   9.296  11.025 -0.1368  0.2712 -0.1016
 7534W        W24381   4.722  18.169   4.811  0.2829  0.0597  0.0379
 7535W        W24382   9.690  19.320  13.645  0.1679 -0.0570  0.4108
 7536W        W24383  13.742  17.795   3.387 -0.2466  0.1743 -0.1240
 7537W        W24384  10.672  18.194  13.717  0.1475  0.1374  0.0684
 7538W        W24385  12.808   9.995   0.200  0.0334 -0.2842 -0.1750
 7539W        W24386   2.784  10.239   3.741  0.3610 -0.2240 -0.3877
 7540W        W24387   6.430   6.203   2.417 -0.0180  0.1116  0.1245
 7541W        W24388   8.028  17.105   3.583  0.2139  0.0467  0.0366
 7542W        W24389  19.374   4.982   1.696 -0.1445 -0.0710 -0.1445
 7543W        W24390   9.790   7.454   2.275 -0.1227  0.0057  0.0211
 7544W        W24391  14.895  15.613   3.604 -0.1600 -0.1397  0.1781
 7545W        W24392  14.268  18.439  13.099  0.0583 -0.3043 -0.1439
 7546W        W24393  17.002   4.068  12.843 -0.2431 -0.1353  0.0932
 7547W        W24394  10.391   0.657  13.084 -0.0462 -0.0722 -0.0152
 7548W        W24395  17.762  17.698  10.873  0.0229 -0.0028  0.1103
 7549W        W24396   1.245  16.001   0.715  0.0753 -0.2618 -0.0916
 7550W        W24397   8.953  18.320  12.221 -0.0942 -0.1958  0.2533
 7551W        W24398  18.071  17.430   1.887  0.0278 -0.1559  0.0749
 7552W        W24399  12.160   1.337   5.065  0.1413  0.0758 -0.0632
 7553W        W24400  16.018   3.468   9.534 -0.2483  0.1104  0.0335
 7554W        W24401   1.728   5.617   2.484  0.0837  0.4197 -0.0514
 7555W        W24402  11.047  18.710  11.326 -0.1913  0.0329 -0.2639
 7556W        W24403  16.018   5.044   1.385  0.2402  0.3029 -0.1458
 7557W        W24404  15.009  16.156   1.414  0.1098 -0.0446 -0.0225
 7558W        W24405  13.132   2.337   1.166  0.0154  0.0155 -0.1936
 7559W        W24406  15.064   3.344   2.862 -0.1344  0.4960  0.3275
 7560W        W24407   8.440   8.533   4.486 -0.1392 -0.3528 -0.0609
 7561W        W24408   4.389  17.071   5.318  0.1913  0.3592  0.1868
 7562W        W24409  15.430  19.013  10.690 -0.0617 -0.0717  0.1827
 7563W        W24410  14.945  18.415   3.159  0.1525 -0.2014 -0.4284
 7564W        W24411   9.954   8.202   3.523 -0.0044  0.0254 -0.0055
 7565W        W24412   0.368  15.792  12.583  0.3236 -0.2539 -0.1937
 7566W        W24413   8.919  18.385  11.699  0.0683 -0.4277 -0.3092
 7567W        W24414   5.019  12.438  11.347  0.0271  0.0087 -0.1614
 7568W        W24415  16.056   4.266   2.920 -0.2202 -0.6061 -0.0654
 7569W        W24416   1.337  17.817  13.566  0.0785  0.1796 -0.2188
 7570W        W24417  15.179  18.322  12.649  0.1117  0.1078  0.1436
 7571W        W24418   3.579  19.371   1.062  0.1903  0.0843 -0.1283
 7572W        W24419   0.572   8.353  13.722  0.1133 -0.0204  0.2851
 7573W        W24420   8.468   5.323  10.510 -0.0051  0.0400 -0.2276
 7574W        W24421   1.711  11.475   2.325  0.3819  0.1931 -0.0304
 7575W        W24422   0.311  12.312   3.951 -0.2466  0.2038 -0.0628
 7576W        W24423  14.981  17.602   5.119  0.0948 -0.0133  0.2393
 7577W        W24424  18.752   4.317   3.874  0.0675  0.3635  0.1184
 7578W        W24425   7.081  14.426   1.026  0.0094 -0.0578 -0.4410
 7579W        W24426   8.952   6.712  10.243 -0.0421 -0.2066  0.0375
 7580W        W24427   6.489   4.634  13.467 -0.0179  0.2242 -0.0224
 7581W        W24428  18.348   6.633   1.333 -0.2259  0.1846  0.1073
 7582W        W24429  11.810   6.689   4.673  0.0294 -0.2233 -0.3399
 7583W        W24430  15.893   8.818   9.796 -0.0901  0.3596  0.2195
 7584W        W24431  18.532  15.922   0.828  0.0024 -0.0127 -0.1960
 7585W        W24432   9.072   9.831  12.934  0.2960  0.0184  0.0796
 7586W        W24433   9.255  18.382   1.910  0.2953  0.1753  0.1519
 7587W        W24434  12.323  15.927   4.083  0.0132 -0.3223 -0.0389
 7588W        W24435   1.692   4.175   2.174  0.0069 -0.4686 -0.0522
 7589W        W24436  11.629  18.038   0.880 -0.2914  0.1873  0.1653
 7590W        W24437  12.552   9.352  14.328 -0.0210  0.1301 -0.0135
 7591W        W24438  14.433   1.066  11.135 -0.0120 -0.1058 -0.0612
 7592W        W24439  10.858  12.423   0.023  0.1509 -0.2091 -0.0306
 7593W        W24440   4.732   2.017   3.196  0.1606  0.2219  0.0496
 7594W        W24441  18.558   1.108   2.161  0.2371 -0.1142 -0.1855
 7595W        W24442   1.154   2.549   2.686  0.2546  0.2540 -0.2708
 7596W        W24443   2.119  10.380  12.592  0.1254 -0.1343  0.0399
 7597W        W24444  19.886  15.165   2.465 -0.2960 -0.2031  0.2725
 7598W        W24445  17.727  12.420  10.265 -0.0546 -0.1350  0.1440
 7599W        W24446   2.494  11.218   4.663 -0.0983 -0.1404  0.0155
 7600W        W24447   1.759  10.878  10.540  0.1254  0.0239 -0.0977
 7601W        W24448  13.211  14.818  11.430 -0.1134  0.2950 -0.0671
 7602W        W24449   0.981  12.424   0.359  0.0829  0.0299 -0.2695
 7603W        W24450  18.302   6.424  14.248 -0.2210 -0.0023  0.2069
 7604W        W24451  11.640  14.705   4.294  0.2447 -0.0395 -0.2954
 7605W        W24452   2.567  18.726  11.901  0.1519  0.0455 -0.0531
 7606W        W24453   4.390  19.583   4.738 -0.0684 -0.2014 -0.0691
 7607W        W24454   8.583  19.327   1.468 -0.2176  0.1747 -0.0848
 7608W        W24455   4.495   0.818  11.238 -0.2241 -0.2661  0.2765
 7609W        W24456  13.637  15.441  13.151  0.0605 -0.1508  0.0471
 7610W        W24457  16.951   0.553   4.113 -0.3039  0.0412 -0.2315
 7611W        W24458  14.220   3.656   9.425  0.2146 -0.5300  0.2331
 7612W        W24459  13.275  11.391  10.926 -0.5697  0.1438  0.0740
 7613W        W24460  14.836  12.884  10.649 -0.3465  0.1600  0.2153
 7614W        W24461  11.972  17.354  13.306  0.2380 -0.1893  0.0774
 7615W        W24462   9.026  11.877  10.308  0.0448 -0.0399  0.0727
 7616W        W24463   9.345  12.553   4.880  0.3969  0.2210  0.0938
 7617W        W24464   4.358  16.071  13.353  0.1299 -0.0631  0.1756
 7618W        W24465   2.810  15.064  12.390  0.1227 -0.2537 -0.1518
 7619W        W24466  11.550  10.084  10.716  0.2273 -0.1071  0.0562
 7620W        W24467  12.415  19.598   5.371  0.2509 -0.1846 -0.3783
 7621W        W24468  14.987  11.001   1.373  0.2145 -0.3987  0.3696
 7622W        W24469  13.075   3.042   9.824  0.3330 -0.1852  0.1317
 7623W        W24470  16.570   4.931  14.143  0.2199 -0.0873 -0.1694
 7624W        W24471  18.285   2.350   9.740 -0.3081  0.1335  0.2925
 7625W        W24472  15.731  12.908   3.620  0.0619 -0.0947  0.5999
 7626W        W24473  12.307   1.303  13.746 -0.0319 -0.2353 -0.1608
 7627W        W24474  12.840  18.620  10.825  0.0418 -0.0487 -0.2438
 7628W        W24475   1.731  10.033   5.256  0.0850 -0.1587  0.0973
 7629W        W24476  15.941  11.451  12.135 -0.2124 -0.1148  0.0309
 7630W        W24477  15.289  13.233   4.745  0.0020  0.0063  0.2229
 7631W        W24478   9.289  10.657   0.937  0.0904 -0.0664 -0.1387
 7632W        W24479  11.987   8.914   2.706 -0.2450 -0.2563 -0.1446
 7633W        W24480  14.984   6.896   0.037 -0.1098  0.1644 -0.0774
 7634W        W24481   7.005  16.186   0.999 -0.0865 -0.1264  0.0067
 7635W        W24482   0.872  19.129  12.153  0.0723 -0.0575  0.2544
 7636W        W24483  18.243   1.594  11.694  0.0670 -0.1482  0.0173
 7637W        W24484   0.296   2.917   2.555 -0.1282 -0.3770  0.0053
 7638W        W24485  14.799  13.267  12.481 -0.1650  0.1252  0.0291
 7639W        W24486  19.594   1.513  11.763 -0.1452 -0.1510 -0.1697
 7640W        W24487   2.856   4.216   0.876  0.1830 -0.2646  0.2614
 7641W        W24488   8.408   4.877  12.647 -0.0735  0.1330  0.0152
 7642W        W24489  13.099   1.161   9.478 -0.1055  0.1237 -0.3413
 7643W        W24490  19.632   5.300  13.820 -0.0065  0.2653  0.0905
 7644W        W24491  17.218   1.627  14.172  0.0682 -0.1824 -0.0647
 7645W        W24492  11.155  16.962   9.001 -0.3853 -0.1331 -0.2564
 7646W        W24493   5.970   0.597  12.634 -0.0629 -0.3087  0.0696
 7647W        W24494  18.351   0.422  12.257  0.2276  0.0224 -0.0425
 7648W        W24495   6.908   6.301  12.197  0.0257 -0.1230  0.1889
 7649W        W24496   5.713   9.057  11.126 -0.0325  0.3732 -0.1001
 7650W        W24497  10.781   9.747   2.954 -0.0180  0.0557 -0.0752
 7651W        W24498  15.892  17.921   2.126  0.3362 -0.1250 -0.1425
 7652W        W24499  12.289  17.339   4.150 -0.0864 -0.2082  0.0209
 7653W        W24500   5.091   1.037   3.449 -0.1905 -0.0113 -0.0234
 7654W        W24501   8.400  11.447   0.792 -0.1026  0.1225  0.0425
 7655W        W24502   6.311  16.217   3.605 -0.0756  0.0647 -0.0504
 7656W        W24503   2.633   2.972   5.296 -0.1852  0.1306 -0.0024
 7657W        W24504   8.080  12.055  10.821  0.1052 -0.1237 -0.0931
 7658W        W24505   2.887  17.169  12.405 -0.0731 -0.1878 -0.1797
 7659W        W24506   1.925  16.859  14.273  0.0471 -0.0395  0.4259
 7660W        W24507  10.651  18.814  12.427  0.2513 -0.2277  0.0407
 7661W        W24508   7.741   5.798  14.222  0.2952 -0.0326 -0.1473
 7662W        W24509   8.728   0.743  12.577 -0.2272  0.1476  0.0004
 7663W        W24510  13.398  12.424  14.320  0.3088 -0.1022 -0.2779
 7664W        W24511  17.157   0.919   3.468  0.1611 -0.2589  0.0645
 7665W        W24512   3.898  10.826  10.377 -0.0945 -0.0403 -0.0955
 7666W        W24513  14.384  14.249   4.719 -0.1373 -0.2415  0.0384
 7667W        W24514   1.568  12.227  12.599  0.2175  0.1237  0.2007
 7668W        W24515   4.291   7.166  13.292 -0.0164 -0.1277 -0.0014
 7669W        W24516   0.124   8.634  12.790 -0.1217 -0.4459 -0.0108
 7670W        W24517   7.063  10.051   1.789  0.2648 -0.2374  0.1068
 7671W        W24518   7.819   9.652  14.107  0.0648 -0.0810 -0.0389
 7672W        W24519   3.271  10.522  13.189  0.0090 -0.0458 -0.0395
 7673W        W24520   2.625   7.326   3.478  0.2414  0.0398  0.0004
 7674W        W24521   2.182   6.668   4.032 -0.0663 -0.0552  0.0257
 7675W        W24522  11.429   3.694   1.572  0.1357 -0.2048  0.1872
 7676W        W24523  12.531  17.874  12.340  0.1867  0.3702  0.2804
 7677W        W24524  14.255   2.516  12.345  0.5506  0.4391 -0.0237
 7678W        W24525  12.731  18.689   9.969  0.1410 -0.2472  0.0059
 7679W        W24526   8.066  18.406  10.647  0.2623  0.0317 -0.5437
 7680W        W24527  11.753   2.068  11.933  0.1823 -0.2397 -0.0758
 7681W        W24528  15.477  19.295  14.300  0.3589 -0.0965 -0.1005
 7682W        W24529  14.771   0.167  13.171 -0.1929 -0.0316 -0.1126
 7683W        W24530  13.927  19.747  13.035  0.1305 -0.0649 -0.2754
 7684W        W24531  12.976  18.405   3.263 -0.2172  0.1280  0.2973
 7685W        W24532  17.983  18.865  10.556 -0.1078 -0.2339  0.1383
 7686W        W24533  19.623  14.602  11.575 -0.2253  0.1253 -0.2478
 7687W        W24534  10.574  12.928  14.092  0.1363  0.1403  0.0779
 7688W        W24535  11.088  14.371   3.792  0.0106  0.1136 -0.1578
 7689W        W24536   4.341   1.150  12.587  0.0105  0.0222  0.4490
 7690W        W24537   5.664  18.299  12.074  0.1557  0.1934 -0.1704
 7691W        W24538   8.926  10.813   2.810 -0.0580 -0.0096 -0.0834
 7692W        W24539   3.835   4.430   2.158 -0.0940  0.1953 -0.0755
 7693W        W24540  13.618   0.572  11.254  0.0289  0.1489  0.1896
 7694W        W24541   6.688   5.898   2.693 -0.1464 -0.1174  0.0900
 7695W        W24542   8.150   4.103   9.572 -0.0126  0.2909  0.3411
 7696W        W24543   7.286  17.993   1.710  0.1418  0.1775 -0.0097
 7697W        W24544  16.338   3.596  11.685 -0.1469  0.0801 -0.0302
 7698W        W24545  10.047   3.394  13.878  0.2640 -0.1217  0.0623
 7699W        W24546   7.020   8.273  13.321  0.0051 -0.1125 -0.1705
 7700W        W24547  12.002   7.165   0.176 -0.0753  0.0591  0.0592
 7701W        W24548  15.008   9.485  14.304  0.0747  0.1547 -0.0434
 7702W        W24549  17.890  11.649   2.311 -0.1570 -0.2389 -0.0831
 7703W        W24550  12.425   0.692   0.992  0.0905 -0.3923 -0.0323
 7704W        W24551   9.745  15.397  11.335 -0.3228 -0.3097 -0.0616
 7705W        W24552  18.347   6.436  10.087  0.4529 -0.2880 -0.0022
 7706W        W24553   4.150  15.411   3.754 -0.1663  0.2060 -0.1128
 7707W        W24554   3.134  11.063  11.785  0.1857 -0.0480  0.4768
 7708W        W24555  12.391   2.028   3.657 -0.1022  0.5617  0.1106
 7709W        W24556  17.181   8.389   9.475 -0.1326 -0.0905 -0.1621
 7710W        W24557   8.528  17.118   3.416  0.1911  0.0517  0.0312
 7711W        W24558   6.254   1.903  12.050  0.2655 -0.1368  0.3382
 7712W        W24559   3.451  14.793   4.699 -0.0065  0.0462  0.1316
 7713W        W24560   8.290  15.719   9.003 -0.0128  0.0112  0.2471
 7714W        W24561   9.550  18.009   0.016  0.1167  0.1247  0.0331
 7715W        W24562  18.704   8.724   2.666  0.1524 -0.1596  0.3734
 7716W        W24563  18.944  17.341   1.928  0.0800 -0.3042 -0.2212
 7717W        W24564  17.890  16.800   4.672  0.2205  0.1946 -0.2516
 7718W        W24565  14.359  11.496  13.187 -0.1538 -0.0882 -0.3856
 7719W        W24566   7.997  12.840  12.371  0.2316  0.0911 -0.1721
 7720W        W24567   7.381   0.796   0.861  0.1223  0.3540  0.2101
 7721W        W24568   5.653  11.676   1.259  0.1259 -0.0256 -0.1010
 7722W        W24569   8.599  13.440  14.172  0.1446  0.0576  0.2125
 7723W        W24570  13.085  12.941  14.228 -0.0815  0.4082  0.1441
 7724W        W24571   6.300   0.584  10.499  0.0633  0.1543  0.1493
 7725W        W24572  18.829   0.638  10.569 -0.2650 -0.0906 -0.1287
 7726W        W24573  17.447   1.876  13.707 -0.1863 -0.4666 -0.2069
 7727W        W24574   1.018  18.258   5.549 -0.3546 -0.0271 -0.0530
 7728W        W24575  15.417  15.335   3.519  0.1353 -0.4400  0.5221
 7729W        W24576   8.384   0.897  13.116 -0.4274 -0.1311  0.2846
 7730W        W24577  14.168  15.355  10.415 -0.1026 -0.2758  0.0176
 7731W        W24578  19.225   3.919  14.243  0.0068  0.2300 -0.0100
 7732W        W24579  18.352   6.110   4.440  0.1735  0.1695 -0.2330
 7733W        W24580   8.556  15.238   9.302 -0.0750 -0.0920  0.1862
 7734W        W24581   6.752  19.142  12.966  0.4239  0.1055 -0.0410
 7735W        W24582   3.814   4.034   1.053  0.3964 -0.2193  0.0078
 7736W        W24583  12.582   5.152   5.086 -0.0827  0.1781  0.1539
 7737W        W24584  17.087  11.887   3.007 -0.1025 -0.0496 -0.2770
 7738W        W24585   0.777   3.482  14.231  0.3540 -0.0858  0.0526
 7739W        W24586  12.853  16.403  11.259  0.0321  0.0326  0.0748
 7740W        W24587   5.143   7.068  13.877  0.0898  0.0274 -0.1698
 7741W        W24588  12.304   1.453  13.212 -0.0191 -0.2519 -0.1931
 7742W        W24589   9.355  11.901   0.275 -0.2056  0.0288  0.2003
 7743W        W24590  13.271   5.678  10.699 -0.1218 -0.1149 -0.1104
 7744W        W24591  10.234  14.395  12.034 -0.1511  0.1351 -0.2426
 7745W        W24592   9.935   2.903   3.356  0.1579 -0.2323 -0.2799
 7746W        W24593  19.361  14.193  12.666  0.0105 -0.0018 -0.1462
 7747W        W24594  14.538  17.320  12.402  0.2525 -0.4369  0.3567
 7748W        W24595   6.394  12.718   4.748  0.1044  0.0550 -0.0786
 7749W        W24596   5.547  18.170   4.723  0.2348 -0.0378 -0.1871
 7750W        W24597   6.893  16.212   1.968  0.0966 -0.1334  0.2718
 7751W        W24598  16.068   1.143   2.585 -0.1450  0.3500 -0.0923
 7752W        W24599   1.479  12.650   3.940  0.0562  0.2456  0.1183
 7753W        W24600   6.343   1.324  13.191 -0.0141 -0.1863 -0.2533
 7754W        W24601  19.882   4.513   2.801 -0.0007 -0.1400  0.2099
 7755W        W24602  11.539  17.673  14.071  0.3151  0.1847  0.0743
 7756W        W24603  12.122  16.044  12.018 -0.0553 -0.1625 -0.1317
 7757W        W24604   3.921  11.007  12.133 -0.1909 -0.2709  0.0422
 7758W        W24605   7.911   3.176  10.344 -0.0348 -0.0863  0.0573
 7759W        W24606  17.473  15.809   4.750  0.4117  0.3720  0.1248
 7760W        W24607   2.741  19.030   1.163 -0.0040 -0.3018 -0.2160
 7761W        W24608  14.204  13.815  14.290 -0.2097 -0.2689 -0.1039
 7762W        W24609   7.178   6.952  12.847  0.3264 -0.1737 -0.2176
 7763W        W24610   6.116  18.162   4.025  0.3932  0.0754  0.2205
 7764W        W24611   7.066   6.861  11.499 -0.0181  0.0742  0.1299
 7765W        W24612  12.259   4.160   2.667 -0.0278  0.2545 -0.1702
 7766W        W24613   7.281   5.515   1.438  0.0447 -0.0389  0.1352
 7767W        W24614  16.622  19.257   3.319  0.0378  0.3215 -0.0800
 7768W        W24615   9.269   0.273   9.777 -0.1571 -0.2125 -0.0281
 7769W        W24616  13.702  17.942  10.720 -0.2632  0.1373  0.1279
 7770W        W24617   0.551   0.671   3.385  0.2384  0.1185 -0.2542
 7771W        W24618   1.167   1.050   1.971 -0.0757 -0.1336 -0.3026
 7772W        W24619  17.146  16.188   3.217 -0.2232  0.2128  0.0244
 7773W        W24620  10.231   4.269   3.791 -0.1731  0.0849  0.2517
 7774W        W24621   4.851   8.956  13.605 -0.1193 -0.1766 -0.0962
 7775W        W24622  15.719   1.367   3.906  0.1837  0.0320  0.2016
 7776W        W24623  14.738  11.169  12.254 -0.1797  0.2532 -0.1265
 7777W        W24624  17.954  19.167  12.443  0.0541 -0.0048  0.0532
 7778W        W24625   3.840  10.502   1.422  0.1054 -0.0334 -0.1222
 7779W        W24626  19.385   1.474   5.374  0.0737  0.2867 -0.2467
 7780W        W24627   8.834  10.249  12.686  0.0354  0.1840  0.3450
 7781W        W24628   8.496   6.312  12.940 -0.2375  0.1308 -0.1908
 7782W        W24629  10.856  16.107  12.121 -0.0744  0.1376  0.3746
 7783W        W24630  15.869  15.122   3.082 -0.2753  0.5076  0.1079
 7784W        W24631  13.677  18.154  12.550  0.0477  0.0096 -0.0577
 7785W        W24632   6.895   0.672  12.768 -0.2084 -0.0090 -0.5782
 7786W        W24633  16.036   7.122   8.774  0.1671  0.3717  0.2343
 7787W        W24634  18.471   6.162  10.479  0.2755  0.0266 -0.0635
 7788W        W24635  17.721  12.126  14.110 -0.0178 -0.2248  0.1439
 7789W        W24636  18.069  18.081  11.262 -0.1562 -0.2934 -0.0564
 7790W        W24637  19.189  11.811  10.113  0.0056 -0.1672  0.2312
 7791W        W24638  11.780   4.068  13.389 -0.0441 -0.3285 -0.1900
 7792W        W24639  11.877   6.941  14.124  0.2372 -0.2372  0.4326
 7793W        W24640   1.277  10.617   2.025 -0.0783  0.2486  0.3188
 7794W        W24641  17.673   7.835  13.343  0.0214 -0.0750  0.1904
 7795W        W24642   6.227   6.581  13.324  0.0617 -0.0772 -0.0770
 7796W        W24643   4.036  17.997  11.229  0.0358  0.0568  0.0562
 7797W        W24644   7.189  18.182   9.965 -0.1424 -0.3938  0.0522
 7798W        W24645  12.819  16.010  14.298 -0.0935 -0.2561  0.2488
 7799W        W24646  15.156   7.380  10.784 -0.1297 -0.1714 -0.1715
 7800W        W24647  11.452   8.906   2.634  0.1274 -0.0509  0.0357
 7801W        W24648   6.846  16.443   3.289  0.1726 -0.2568  0.3017
 7802W        W24649  14.779  15.050  12.548 -0.0422 -0.1330  0.2330
 7803W        W24650   1.469   6.026   2.257 -0.0901  0.1610 -0.0505
 7804W        W24651  19.518   0.702   4.627 -0.1656 -0.1766 -0.3206
 7805W        W24652  13.141  13.880  10.325 -0.0142 -0.3190 -0.1728
 7806W        W24653   0.800   9.159  11.066  0.0935 -0.0627 -0.2306
 7807W        W24654   3.546  10.568  10.644 -0.1723  0.2220 -0.2125
 7808W        W24655   3.652  12.121   1.584 -0.2091  0.0496 -0.1643
 7809W        W24656  14.882   2.325   1.440  0.2569 -0.3543  0.0396
 7810W        W24657   0.295   7.396  13.739 -0.3584  0.0886 -0.1622
 7811W        W24658   9.645  11.098   1.553  0.2344  0.2118 -0.3536
 7812W        W24659  14.796   0.685  11.210  0.2471  0.0996 -0.1945
 7813W        W24660  16.510  14.108   2.519 -0.1355  0.3847 -0.2054
 7814W        W24661  14.005  10.732  12.743 -0.0533 -0.1781 -0.2544
 7815W        W24662   7.116  13.955  13.657  0.3182 -0.0711  0.1644
 7816W        W24663   2.874   9.581   4.898  0.1187  0.4726  0.0867
 7817W        W24664  14.559  19.459   1.203  0.2194 -0.0742  0.0371
 7818W        W24665   4.305  11.868   2.890 -0.2144  0.0761 -0.1085
 7819W        W24666   8.289   9.222  11.850 -0.1919 -0.3391 -0.1049
 7820W        W24667   7.411  15.295   4.144  0.2375  0.2297  0.0919
 7821W        W24668  18.547   3.946   0.235  0.0066 -0.1696  0.1266
 7822W        W24669  16.110   5.537  10.884 -0.0040 -0.1111  0.2175
 7823W        W24670   4.410   9.112  10.595 -0.0844  0.1583  0.3504
 7824W        W24671   8.270   9.270   1.555  0.0491  0.1359  0.0247
 7825W        W24672  10.386  15.452   2.948 -0.0541 -0.3383 -0.0660
 7826W        W24673   3.750  13.045  10.255 -0.1021  0.1371 -0.0723
 7827W        W24674  11.796   3.382  11.470 -0.1037  0.1279 -0.1717
 7828W        W24675  17.405  19.402  11.239  0.0326  0.0494  0.1552
 7829W        W24676   1.118   2.314  10.923  0.2153 -0.2718 -0.0947
 7830W        W24677  17.765   0.841  11.739 -0.1191 -0.3341 -0.0817
 7831W        W24678  15.794  14.402   1.534 -0.1409 -0.1181  0.1799
 7832W        W24679  10.306  12.911  11.431 -0.0817 -0.1926 -0.0031
 7833W        W24680  10.444  14.726  13.618  0.2229  0.0949 -0.3029
 7834W        W24681   0.200   5.730   2.627  0.0946  0.1495 -0.4997
 7835W        W24682   7.258   4.942   1.291 -0.1306  0.1024  0.4032
 7836W        W24683   8.702   7.556  11.946 -0.1773 -0.0008 -0.2406
 7837W        W24684  13.334  10.736   4.774 -0.1363 -0.0492  0.2155
 7838W        W24685   6.015  11.430   2.950 -0.1598  0.1210 -0.2524
 7839W        W24686  14.287  18.493   3.140  0.0527 -0.0596  0.0362
 7840W        W24687  11.365   5.420   1.061 -0.1780 -0.2850  0.1588
 7841W        W24688  13.271  10.207   2.915 -0.0459 -0.4181  0.0621
 7842W        W24689   8.463   9.680   1.373  0.4099  0.0066 -0.5990
 7843W        W24690  10.256   2.019   3.460  0.1048  0.0309  0.3829
 7844W        W24691   9.444  11.473  14.074 -0.1053  0.0163 -0.3125
 7845W        W24692   0.539  14.954   5.294 -0.1744 -0.0459 -0.0726
 7846W        W24693  14.756  11.966   0.714 -0.0756  0.3820  0.3249
 7847W        W24694  13.963   0.024   4.218 -0.1741 -0.3098 -0.1059
 7848W        W24695   5.201   6.951  12.181  0.4042  0.0108 -0.0511
 7849W        W24696  12.236   2.120  11.394 -0.0176  0.0545 -0.2404
 7850W        W24697   9.624  10.835  10.638  0.0037 -0.1052  0.1483
 7851W        W24698  18.498  19.762   0.214 -0.0157 -0.1444  0.0893
 7852W        W24699   3.889   0.674  12.756 -0.1935  0.1101 -0.1655
 7853W        W24700   1.244   2.157  13.863 -0.1026 -0.1132  0.4215
 7854W        W24701   6.923   3.918   4.036 -0.2915 -0.0493 -0.2049
 7855W        W24702   0.978   0.661   3.721  0.0367  0.2735  0.2209
 7856W        W24703  11.426   8.333   1.889 -0.3344  0.1396 -0.2030
 7857W        W24704  10.771   1.355   1.376 -0.1373  0.1363 -0.2756
 7858W        W24705  17.074   8.212  13.918  0.1446 -0.1146 -0.1213
 7859W        W24706  18.169   7.693   0.341  0.1643  0.0679  0.3368
 7860W        W24707  10.260  18.908   0.980 -0.1141 -0.1371 -0.3399
 7861W        W24708   4.630   4.032   1.385 -0.1310 -0.0338  0.3514
 7862W        W24709   7.577  10.473  12.184  0.0559 -0.1295  0.0966
 7863W        W24710   9.168  17.525   0.895 -0.0390 -0.0241  0.3688
 7864W        W24711   4.685  19.314  11.109 -0.2985 -0.1650 -0.2595
 7865W        W24712   6.224  12.606   3.284 -0.3533 -0.2120  0.0009
 7866W        W24713  17.983   8.637   1.573 -0.1052  0.1740 -0.3927
 7867W        W24714  19.557   8.841  13.545 -0.3889  0.0892  0.2298
 7868W        W24715  18.225   2.779  14.338  0.2743 -0.0366  0.0683
 7869W        W24716  12.865  14.154   1.633 -0.0479 -0.1679  0.0631
 7870W        W24717  18.335  18.111   5.195  0.0240  0.1687 -0.0450
 7871W        W24718  11.829   6.381  12.919 -0.1934 -0.3200  0.1000
 7872W        W24719  16.214  19.869   2.221  0.4643  0.0996  0.0860
 7873W        W24720   2.022  19.817   4.062 -0.0713 -0.3059  0.0305
 7874W        W24721  10.193   1.478  11.822  0.0451 -0.1886  0.0812
 7875W        W24722  10.719  10.344   3.798 -0.1161  0.0652  0.4519
 7876W        W24723  17.744  18.295  13.963 -0.0521 -0.1955  0.1415
 7877W        W24724  19.103  17.791   2.612 -0.1863 -0.0208 -0.1520
 7878W        W24725   2.511  17.136   1.071 -0.2488  0.0346  0.1152
 7879W        W24726   9.919   6.078   2.904  0.1277  0.1807  0.2041
 7880W        W24727   2.118  13.601   1.418  0.0225 -0.0905 -0.2355
 7881W        W24728  10.584  10.521  12.195  0.0468  0.3769  0.2320
 7882W        W24729   2.689  19.752  10.777 -0.6033 -0.0113 -0.1504
 7883W        W24730   0.120  16.382  10.562  0.2361  0.1768 -0.1890
 7884W        W24731  16.408  16.546   2.449 -0.2943 -0.0448 -0.2416
 7885W        W24732   7.335  18.192   4.217 -0.0511  0.0895 -0.2584
 7886W        W24733   6.647  18.898   2.565  0.2285 -0.0559 -0.0648
 7887W        W24734   9.669  19.129  14.207  0.2508 -0.0396 -0.0570
 7888W        W24735  16.999  17.288  13.277 -0.2505 -0.0818  0.2197
 7889W        W24736  15.228  16.639   0.295  0.2330  0.1157  0.1083
 7890W        W24737  17.430   6.218   3.914 -0.0425  0.1566 -0.0395
 7891W        W24738   4.500  15.319   4.105 -0.0380 -0.0648 -0.0926
 7892W        W24739   0.825   4.535  13.444 -0.2480  0.3099  0.1499
 7893W        W24740  13.104   7.848  14.239 -0.1653  0.1877  0.2729
 7894W        W24741   7.980  19.299   5.223 -0.2658  0.2555  0.0638
 7895W        W24742  15.539   7.561   0.388  0.0971  0.0135 -0.2972
 7896W        W24743   2.473   1.051  11.027 -0.1474 -0.2128 -0.0015
 7897W        W24744  15.024   7.323  11.785 -0.1931  0.2856 -0.3766
 7898W        W24745  17.460  16.161  12.751  0.0505 -0.2100  0.0379
 7899W        W24746  12.393   6.509   0.594  0.1299  0.0334 -0.3084
 7900W        W24747   2.638   2.648  12.514  0.0484 -0.0272 -0.0104
 7901W        W24748  15.364  13.512  13.696  0.0618 -0.0521 -0.2929
 7902W        W24749   8.208   1.658   0.835  0.1195  0.0045 -0.0504
 7903W        W24750  15.670  14.444  13.170  0.0230 -0.1227  0.0026
 7904W        W24751  15.320   4.071   1.651 -0.1927 -0.1178  0.2207
 7905W        W24752  16.951  12.969   3.152  0.1249 -0.0158  0.2764
 7906W        W24753   1.511   2.280   0.227  0.0380  0.2313 -0.0673
 7907W        W24754   0.906   9.666   3.366  0.1656  0.1284 -0.1180
 7908W        W24755  14.260   0.826  10.658 -0.0349 -0.0223 -0.1094
 7909W        W24756   9.517   8.929   2.938  0.1190  0.0881 -0.1616
 7910W        W24757   0.455   9.421   3.407  0.1383 -0.0909  0.0728
 7911W        W24758   0.487   1.841   2.533 -0.2222  0.1239  0.0910
 7912W        W24759   9.008  10.356   2.985 -0.2221  0.1572 -0.0836
 7913W        W24760  10.439   5.344   1.660  0.0490  0.1857  0.1782
 7914W        W24761   3.727   7.111   1.147 -0.0228  0.3448 -0.1084
 7915W        W24762  12.378  14.022   1.755  0.1699  0.3840 -0.1211
 7916W        W24763  15.758   6.897  12.825  0.1198 -0.2247 -0.0063
 7917W        W24764  13.065  17.420   2.777 -0.0261 -0.2753 -0.2164
 7918W        W24765  11.800   1.680   0.225 -0.0409 -0.0662 -0.1811
 7919W        W24766  11.401  18.116   1.322  0.1322  0.2355 -0.0502
 7920W        W24767   0.998  10.376  13.755 -0.3425 -0.4032  0.1463
 7921W        W24768   9.448   5.863  12.345  0.2305  0.2549 -0.2480
 7922W        W24769   7.100   2.541   0.265  0.2970 -0.4575 -0.0053
 7923W        W24770  13.880   6.127  14.058 -0.0413  0.3884 -0.1515
 7924W        W24771  16.539  18.381   2.697  0.0411 -0.3217 -0.2860
 7925W        W24772   7.215  10.136  12.957 -0.0805 -0.2330 -0.1461
 7926W        W24773  12.649  19.057  11.115 -0.2870 -0.0407  0.1228
 7927W        W24774  19.638  14.802   2.761  0.0010 -0.3331 -0.1227
 7928W        W24775  12.181  14.868   2.086 -0.0294 -0.0165 -0.0322
 7929W        W24776   3.061   7.008  11.504 -0.0564 -0.1270 -0.0815
 7930W        W24777  14.272   6.269   9.857 -0.1982  0.1452  0.0659
 7931W        W24778  17.962  10.510   4.340 -0.1816  0.1394 -0.0791
 7932W        W24779  15.532   6.928  11.645  0.0900 -0.3992 -0.1185
 7933W        W24780   5.768   3.071   0.750  0.0236  0.1084 -0.3128
 7934W        W24781  12.848  14.825   3.386 -0.1507  0.0681  0.3344
 7935W        W24782  12.037  15.039   0.954  0.3711 -0.0241  0.0678
 7936W        W24783  18.668  17.466  10.595  0.3985 -0.1028 -0.2207
 7937W        W24784  12.898  13.090   3.229  0.2013  0.1661  0.2747
 7938W        W24785  18.766   6.863  13.792 -0.2893  0.1970 -0.6090
 7939W        W24786   3.962  11.412   9.308  0.0741  0.3168  0.1725
 7940W        W24787   2.354  12.288   3.911 -0.2057  0.0341  0.2727
 7941W        W24788  18.924  15.235   1.287 -0.1243  0.0682  0.2058
 7942W        W24789   1.727   5.386  12.833  0.2555  0.0540  0.0787
 7943W        W24790   7.873  16.989  11.654 -0.0497 -0.2065  0.1485
 7944W        W24791  19.242   1.042  11.733  0.2318 -0.0233  0.1073
 7945W        W24792  14.723  10.860   1.787 -0.0460 -0.0600 -0.2594
 7946W        W24793   4.185  12.352  12.013  0.1504  0.1560  0.0308
 7947W        W24794  17.843   7.246   0.244  0.1238 -0.3474 -0.1880
 7948W        W24795  13.392   2.815   1.464  0.0474  0.0379 -0.1357
 7949W        W24796   9.536  17.169  12.536 -0.0081 -0.1128  0.0727
 7950W        W24797   2.215  10.857  14.013  0.0190 -0.0178  0.0550
 7951W        W24798  15.688   3.639   4.781 -0.1147  0.2033 -0.0088
 7952W        W24799   0.516  12.722  10.652 -0.1128 -0.0362 -0.1099
 7953W        W24800   1.728   1.013   2.668 -0.0273  0.0410 -0.3504
 7954W        W24801  10.150  12.423   3.800 -0.0539  0.2813  0.3483
 7955W        W24802  18.498  18.790  10.360  0.2582  0.0070 -0.3051
 7956W        W24803  11.903  12.209  11.363  0.2210 -0.2206 -0.0423
 7957W        W24804  10.835   3.248  14.262  0.1700  0.4233  0.0409
 7958W        W24805   7.751  11.389   4.019  0.0449  0.1087  0.0214
 7959W        W24806   2.142   5.539   0.247  0.0673 -0.2351  0.1478
 7960W        W24807   2.860   8.819  10.603 -0.2092  0.1912 -0.0044
 7961W        W24808   1.622  14.868  10.975  0.0531  0.0378  0.0197
 7962W        W24809   1.520   7.868   2.844 -0.1103  0.4655 -0.3286
 7963W        W24810   4.401   8.708  12.209  0.1855 -0.3657 -0.0553
 7964W        W24811  11.434   6.538   2.666  0.2615 -0.0684  0.0621
 7965W        W24812   9.265   5.283   2.494  0.0478 -0.0123  0.0137
 7966W        W24813   3.958   2.589  10.550  0.1563 -0.0232 -0.0331
 7967W        W24814  11.528   0.243   4.511  0.1419  0.5946  0.0821
 7968W        W24815  11.516  18.562  10.674 -0.1848 -0.0103  0.1468
 7969W        W24816  10.511   9.985  12.283 -0.0071  0.0113  0.1225
 7970W        W24817   6.564  15.592  11.361  0.2376  0.3310 -0.0266
 7971W        W24818   6.636   7.004  10.051  0.1447 -0.0614  0.0397
 7972W        W24819   6.301  15.111  14.039  0.4937 -0.0395 -0.1990
 7973W        W24820   4.342   4.683  10.900  0.2426 -0.4550 -0.1212
 7974W        W24821   5.135  19.157  10.982  0.0437  0.1187  0.1182
 7975W        W24822   5.898  12.977  13.522  0.1060 -0.1550 -0.0953
 7976W        W24823  11.727  16.293  14.108  0.1386 -0.2178  0.1142
 7977W        W24824  17.658  10.810  11.279 -0.0906 -0.1735  0.0473
 7978W        W24825  11.564   7.955  12.374  0.2176 -0.2876  0.1697
 7979W        W24826   6.769  10.909   4.771 -0.2528  0.1420 -0.1170
 7980W        W24827  10.549  18.641  13.565  0.2185  0.3452  0.3105
 7981W        W24828   8.310  17.538   3.663  0.0003  0.1054  0.2816
 7982W        W24829   1.634  19.783   0.221  0.2394 -0.1706 -0.0510
 7983W        W24830   5.922  14.096   1.352  0.3371 -0.0564  0.0425
 7984W        W24831   7.001   8.922  11.941 -0.3034  0.2508  0.2239
 7985W        W24832  19.849   1.692   5.338 -0.0165 -0.1553  0.0162
 7986W        W24833   0.458  19.562   3.231  0.3509 -0.1568 -0.1218
 7987W        W24834  15.488  14.691   1.138 -0.1514  0.1218  0.1290
 7988W        W24835  10.098  18.986  13.793 -0.0577 -0.2838  0.0379
 7989W        W24836   0.180   5.345   0.338 -0.4321  0.4150 -0.2711
 7990W        W24837   0.155   2.635   2.053 -0.0066 -0.0004  0.0877
 7991W        W24838  18.531  10.189   3.231  0.1527 -0.1832  0.2159
 7992W        W24839  19.345  12.179   5.760 -0.0728 -0.0079 -0.1819
 7993W        W24840  13.799  12.479  10.384 -0.0387  0.1039 -0.1266
 7994W        W24841   6.458   3.650  12.705 -0.2435 -0.2226  0.0763
 7995W        W24842   1.585  14.660   0.098 -0.0132  0.1282 -0.2140
 7996W        W24843  18.961   7.844  12.651 -0.2248  0.1872  0.0181
 7997W        W24844   3.789  19.880   1.653  0.1977  0.0334  0.1393
 7998W        W24845   0.121  14.295   9.900  0.0369 -0.1587 -0.1884
 7999W        W24846   0.771  15.471   0.012 -0.1064  0.1483 -0.2575
 8000W        W24847   2.716   1.262   1.396  0.3747 -0.0503 -0.1500
 8001W        W24848   3.337  13.893   4.832 -0.4065 -0.0507 -0.0901
 8002W        W24849  13.501   0.822   4.304 -0.0931  0.0880  0.2493
 8003W        W24850  11.440   8.527   3.219  0.0281  0.3160  0.2434
 8004W        W24851   3.263   9.806  11.862 -0.1471  0.2684  0.1822
 8005W        W24852  11.962  17.195   0.457  0.2570  0.1827 -0.2155
 8006W        W24853   8.232  17.063   2.105 -0.0570 -0.0982  0.0582
 8007W        W24854  10.362   5.860  13.963  0.0880 -0.0775  0.0261
 8008W        W24855  18.330   0.305   1.624 -0.0672 -0.1855 -0.0267
 8009W        W24856   8.291  13.880  11.720 -0.0417 -0.0181 -0.1223
 8010W        W24857  18.799   9.370   3.754  0.0478  0.3296  0.3044
 8011W        W24858   6.006  16.294   1.588  0.4867 -0.3413  0.4765
 8012W        W24859  14.416  16.028  13.165  0.3141  0.0737 -0.0297
 8013W        W24860  13.966   1.796  10.634 -0.2761  0.1801 -0.1463
 8014W        W24861  11.596   5.536  10.560 -0.1293 -0.0655 -0.4721
 8015W        W24862  12.743   2.939  13.260  0.1246  0.0709  0.0494
 8016W        W24863  12.658  14.620  10.035 -0.2774 -0.2146 -0.3428
 8017W        W24864  18.849  15.362   1.977 -0.1225 -0.0144 -0.2200
 8018W        W24865   0.696  15.093   1.952  0.1969 -0.0765 -0.0543
 8019W        W24866  12.790   7.262   1.475  0.1410 -0.1719  0.0270
 8020W        W24867  18.873  17.459   0.098 -0.0197  0.1834  0.0501
 8021W        W24868   6.267  11.796   0.447 -0.0781 -0.0564  0.6061
 8022W        W24869  16.591   6.994  13.507  0.0205 -0.2717 -0.0392
 8023W        W24870  15.878   2.296  11.176  0.2184  0.3688 -0.2583
 8024W        W24871  19.887  19.380   1.248  0.0313  0.3691 -0.1581
 8025W        W24872   9.614  17.381   1.051  0.1045  0.2085 -0.0234
 8026W        W24873  18.337   7.248  12.997  0.0815 -0.2168  0.0752
 8027W        W24874   9.510  16.146   2.020 -0.0553 -0.2915  0.1161
 8028W        W24875  15.936   8.141  13.338  0.1127  0.3790  0.1041
 8029W        W24876  11.230  16.628   1.753  0.2890 -0.0431  0.0283
 8030W        W24877   6.251   4.101  13.709  0.0001 -0.2970 -0.0368
 8031W        W24878  15.664   9.449   2.139 -0.1742  0.0710 -0.1327
 8032W        W24879  18.491   5.531   1.169 -0.0249  0.0129 -0.0603
 8033W        W24880  14.406   7.793   3.643 -0.3902  0.0317  0.0967
 8034W        W24881  15.938  11.068   2.476  0.0358  0.1968  0.3142
 8035W        W24882   9.411  12.103  12.811 -0.0419 -0.1745 -0.2077
 8036W        W24883   8.543  14.004   0.775 -0.3722 -0.5130  0.2803
 8037W        W24884   1.381  12.503  12.240  0.2889  0.2363 -0.0391
 8038W        W24885  16.414  17.494  10.367 -0.0539 -0.1931 -0.1548
 8039W        W24886  13.579   6.414   4.078 -0.2461  0.1627 -0.1924
 8040W        W24887   8.751   8.598   0.893 -0.0887 -0.1750  0.2085
 8041W        W24888   5.498  12.625   2.617  0.2882 -0.1728  0.2105
 8042W        W24889   7.892  10.723  10.451  0.0129 -0.1490 -0.3488
 8043W        W24890  14.364   1.191   2.232 -0.0857  0.0167  0.2981
 8044W        W24891   6.380  12.928   2.946  0.4046  0.0214  0.3899
 8045W        W24892  12.379  15.974  13.038  0.0789  0.3165 -0.0833
 8046W        W24893  18.364   4.707   0.540 -0.3517  0.0362  0.2493
 8047W        W24894  11.097  17.286  11.370 -0.0550  0.0956  0.0592
 8048W        W24895  10.049   0.358   0.377 -0.0148 -0.0862 -0.2448
 8049W        W24896   1.251   1.025   2.509  0.0652 -0.0502  0.1167
 8050W        W24897  16.632  12.093   4.394  0.0528  0.0015 -0.1716
 8051W        W24898  12.127   6.600   1.162  0.1902 -0.4352 -0.0086
 8052W        W24899   3.826   6.335  13.820 -0.0352  0.4155  0.2633
 8053W        W24900   6.381   0.333   1.835 -0.0145 -0.1620  0.0317
 8054W        W24901  16.845  13.646   5.274 -0.1110 -0.0437  0.1465
 8055W        W24902  14.921  15.319  13.758 -0.0845  0.3239  0.2972
 8056W        W24903   6.251  14.591   3.240  0.2113 -0.3476  0.3001
 8057W        W24904  18.287   0.969  10.394  0.1155  0.1290  0.1641
 8058W        W24905   7.150   4.089   2.974 -0.0668 -0.2147 -0.1893
 8059W        W24906   7.245  11.625  12.925 -0.1713  0.0552 -0.0627
 8060W        W24907  15.789   5.249  11.113 -0.1872 -0.1777  0.4059
 8061W        W24908   1.178  12.179   4.892 -0.1192  0.1701 -0.2219
 8062W        W24909  11.660  19.176   0.531 -0.1106 -0.0342 -0.2495
 8063W        W24910   7.808  17.008  10.320  0.2079 -0.0488 -0.0830
 8064W        W24911  12.067   6.125   1.359  0.1383 -0.2265 -0.1151
 8065W        W24912  10.587  14.383   3.766 -0.0048 -0.0602 -0.1044
 8066W        W24913  17.450  18.614   3.821 -0.0060  0.2131  0.1271
 8067W        W24914   6.525   2.646   3.570 -0.2578 -0.1068  0.1349
 8068W        W24915  17.580  15.640  10.221 -0.1247 -0.0251  0.1966
 8069W        W24916   9.281  11.526   9.860  0.0047  0.1665  0.1834
 8070W        W24917  15.410   9.848  10.964  0.0626 -0.0029  0.2508
 8071W        W24918   9.325   0.840   4.209 -0.2959 -0.0482 -0.0214
 8072W        W24919   8.515   5.734  12.631 -0.1087 -0.1061 -0.1322
 8073W        W24920   0.856   5.341   0.922 -0.1898 -0.0159 -0.3795
 8074W        W24921  18.942  13.206   1.483  0.1414 -0.2349  0.2214
 8075W        W24922  16.498  16.170   2.097  0.0265 -0.1016 -0.0464
 8076W        W24923  19.566  18.530  12.743 -0.0661 -0.0663  0.1244
 8077W        W24924  12.800  12.834  12.418  0.0050 -0.0103  0.1778
 8078W        W24925   1.915   1.125   5.092 -0.1894 -0.3076  0.0803
 8079W        W24926   0.261  18.545  13.974 -0.0569 -0.0575  0.2464
 8080W        W24927   0.210  12.029   0.844 -0.2337 -0.0219  0.2789
 8081W        W24928  13.317  13.319  10.713  0.2453 -0.2112 -0.1143
 8082W        W24929   2.879  14.258   0.166  0.3081  0.0922 -0.1117
 8083W        W24930  19.168   2.456   0.874 -0.2762 -0.1949  0.4297
 8084W        W24931  13.097   0.788  13.811  0.0658 -0.2094 -0.1503
 8085W        W24932   9.814   8.384   4.356  0.1764 -0.0364  0.0797
 8086W        W24933   5.335   9.686   1.489  0.0275  0.1100 -0.0036
 8087W        W24934   4.861  17.822   4.374  0.1949  0.4033  0.0520
 8088W        W24935   9.283  14.808  12.910  0.1404  0.4770 -0.3403
 8089W        W24936  18.321   0.599   2.079  0.0435  0.0360 -0.3902
 8090W        W24937   9.868  15.240   2.046 -0.1723  0.2494  0.0375
 8091W        W24938  15.637  14.795  10.943 -0.1537 -0.0172 -0.0892
 8092W        W24939   0.921   9.258  13.767  0.2903  0.1849 -0.0927
 8093W        W24940   8.696   5.982   3.840  0.1636  0.4938  0.0826
 8094W        W24941  15.685   9.466  11.939 -0.1146 -0.1498 -0.0546
 8095W        W24942   2.891   2.475  13.878  0.0992 -0.1156  0.0898
 8096W        W24943  19.223   9.110  13.235  0.0233  0.2310  0.1401
 8097W        W24944   6.214  10.743  12.640 -0.1671 -0.0659  0.1561
 8098W        W24945   8.633  12.097   2.730 -0.0061  0.3589  0.1596
 8099W        W24946   3.566   9.626  10.795  0.0686  0.0549 -0.1346
 8100W        W24947  16.897  18.443   3.848  0.1247 -0.2018 -0.3165
 8101W        W24948  15.503  18.720   0.288 -0.3948  0.2051 -0.0270
 8102W        W24949  11.780  11.884   0.751  0.1145 -0.0939 -0.3158
 8103W        W24950   6.649  17.986   2.155  0.2761 -0.2039 -0.1248
 8104W        W24951   1.362  11.004   2.942  0.1026 -0.1544 -0.2409
 8105W        W24952   2.839   7.353   3.922 -0.0978  0.0030  0.1399
 8106W        W24953   0.262  14.332   0.703  0.1907 -0.1354 -0.0917
 8107W        W24954   0.577   2.935   1.979  0.2239 -0.1583  0.2037
 8108W        W24955   3.029   7.923   9.184 -0.0493 -0.0664  0.1803
 8109W        W24956   7.490  11.026  12.020  0.1194  0.0918 -0.1393
 8110W        W24957  14.255   9.076  12.029 -0.1382 -0.2387  0.1301
 8111W        W24958   0.159  13.623  13.903 -0.0402  0.0812 -0.2853
 8112W        W24959   4.008   4.174   4.009 -0.0953  0.1538  0.3604
 8113W        W24960  11.077  11.177  10.305  0.0097  0.2307  0.4840
 8114W        W24961   6.598  12.054  12.228  0.0365 -0.2258 -0.1943
 8115W        W24962  16.059   9.524  12.213  0.1052  0.1265 -0.2894
 8116W        W24963  19.168   1.108  10.716 -0.2542 -0.4826  0.1146
 8117W        W24964   1.120   4.951  10.973 -0.3531 -0.2522  0.1398
 8118W        W24965   6.853   2.165  10.628  0.0542  0.0108 -0.0664
 8119W        W24966  17.144  19.371   0.719 -0.0935 -0.1887  0.1355
 8120W        W24967   6.524   3.681  13.592 -0.1505  0.0821 -0.0741
 8121W        W24968  10.891   6.494  14.278 -0.1870  0.1900 -0.0233
 8122W        W24969  10.122  17.088   1.619 -0.0165  0.1863  0.3566
 8123W        W24970  19.351   1.098   9.975 -0.1430  0.1414  0.3769
 8124W        W24971  11.603   5.277  14.069  0.0430 -0.0353 -0.1441
 8125W        W24972  12.950  18.235   4.336  0.1492 -0.0809 -0.1223
 8126W        W24973   4.773   1.187  13.423 -0.2258  0.0259  0.0465
 8127W        W24974  12.686   6.365   0.261 -0.1085  0.3714 -0.1746
 8128W        W24975   7.983   6.502   0.006  0.0836  0.1496 -0.1336
 8129W        W24976   5.689  10.746   2.928 -0.1037 -0.2238  0.3163
 8130W        W24977   7.941   4.669   0.174  0.0995  0.5397 -0.0536
 8131W        W24978  17.023  14.367  13.612  0.0004 -0.1388 -0.0148
 8132W        W24979  13.307  14.394  11.188 -0.2531 -0.0184  0.0911
 8133W        W24980  11.894   4.462  10.081  0.0352  0.2356  0.1016
 8134W        W24981  17.711   3.446   0.154  0.0885  0.3478  0.3200
 8135W        W24982  18.082  13.934   0.479 -0.1250 -0.3635 -0.1285
 8136W        W24983   0.027   2.053  14.300  0.0681 -0.1216  0.3633
 8137W        W24984  16.933  13.685   2.278 -0.0224  0.0610  0.2114
 8138W        W24985  17.451   5.385  14.030 -0.1885 -0.1547  0.0161
 8139W        W24986  15.868  18.592  11.037  0.0519  0.1900 -0.2153
 8140W        W24987  12.233   1.098   0.769  0.1085  0.0169  0.1803
 8141W        W24988   5.932   1.872   0.302  0.0100  0.0985  0.1018
 8142W        W24989  17.176  15.249  10.382  0.2619 -0.1490 -0.0174
 8143W        W24990   1.398  12.639   4.858  0.1115  0.1414  0.4020
 8144W        W24991   5.841  11.526   0.288 -0.0832  0.0941 -0.2630
 8145W        W24992  13.000  11.807  13.801  0.0333  0.0791  0.1517
 8146W        W24993   6.075  10.111   5.587 -0.1325  0.0790 -0.3043
 8147W        W24994   6.987  11.015  11.545  0.0960  0.1180  0.0863
 8148W        W24995  11.185  14.450   4.270 -0.0348  0.1460 -0.0189
 8149W        W24996  15.088   7.564   2.332 -0.1772  0.0129 -0.1003
 8150W        W24997  11.749   0.322  10.514 -0.1134  0.1819  0.1810
 8151W        W24998   2.496  17.825   5.072 -0.0211  0.0359  0.1810
 8152W        W24999  10.698   5.659   5.302  0.1941 -0.1017 -0.2871
 8153W        W25000   2.242   5.257  11.795 -0.1511  0.0430 -0.1566
 8154W        W25001  11.618  14.224  10.109  0.2205 -0.1782 -0.4339
 8155W        W25002   8.322   2.653  12.032 -0.2094  0.0608 -0.1697
 8156W        W25003  16.400   4.242   3.573 -0.1686  0.1755  0.0927
 8157W        W25004  16.412  12.556  11.636 -0.0131 -0.0277  0.0557
 8158W        W25005   4.028  19.694  12.006  0.0321 -0.0040  0.0738
 8159W        W25006   2.647  11.680   1.478  0.3908 -0.1143  0.2446
 8160W        W25007   4.349  10.480   9.756 -0.1437  0.3094  0.1111
 8161W        W25008   7.983  15.686   4.690  0.2860  0.3250 -0.1086
 8162W        W25009  19.411   6.026   1.222  0.1883 -0.2675 -0.3176
 8163W        W25010   6.114   7.560  14.060 -0.0377  0.0414 -0.1614
 8164W        W25011  19.047   2.342  11.293  0.0920 -0.1464  0.2866
 8165W        W25012  16.084  17.479   4.427 -0.1007  0.1658  0.2645
 8166W        W25013  17.209  17.847   1.691 -0.0260  0.1625  0.1197
 8167W        W25014   0.478  13.230  11.532 -0.0988  0.1743 -0.1444
 8168W        W25015  11.204  12.139  12.992 -0.0648  0.4659 -0.2101
 8169W        W25016  10.334   0.877  10.171  0.3676  0.0823  0.0508
 8170W        W25017   5.467  11.953   0.241 -0.1638  0.1288  0.1276
 8171W        W25018  13.668   4.720  13.369  0.1441  0.1484 -0.1072
 8172W        W25019  10.484  17.550   1.498 -0.1050  0.1782 -0.0739
 8173W        W25020   3.669   1.247   0.820  0.1713  0.1908 -0.1326
 8174W        W25021  18.517  16.920  12.307 -0.1573 -0.0132 -0.1850
 8175W        W25022  17.326   6.090  13.470 -0.0934 -0.0676 -0.1048
 8176W        W25023   0.756   7.822   2.170 -0.2880 -0.1256  0.1337
 8177W        W25024   7.246  19.360   3.379 -0.2829 -0.3169 -0.0209
 8178W        W25025   6.646   8.988  11.596 -0.2761  0.0601  0.1374
 8179W        W25026  17.938  17.073   1.490  0.0496 -0.2029  0.0976
 8180W        W25027  18.363  18.034   4.682 -0.2309  0.2833  0.1033
 8181W        W25028   8.299  15.360   4.480 -0.0785 -0.3731 -0.3450
 8182W        W25029  17.368   6.559   1.734  0.1169  0.1662  0.1528
 8183W        W25030   8.503   4.538   0.306  0.1570  0.0953 -0.0331
 8184W        W25031  15.493  13.630  10.569  0.0427 -0.3995  0.0769
 8185W        W25032   3.838  16.269   4.795 -0.0048  0.0287  0.0396
 8186W        W25033   5.300   0.800   3.938 -0.0744  0.1903 -0.2687
 8187W        W25034   2.732  15.829  11.663 -0.1454 -0.0970 -0.1617
 8188W        W25035   1.812   7.573   1.134 -0.0554 -0.0975 -0.0142
 8189W        W25036  14.511   0.441   0.711 -0.2388 -0.0784 -0.1504
 8190W        W25037   8.848  14.317   0.490 -0.0998  0.1428 -0.1504
 8191W        W25038  17.008  14.417  12.349  0.1506 -0.0765 -0.0450
 8192W        W25039  13.491   5.837  12.977 -0.0192  0.1018  0.1401
 8193W        W25040  14.123   2.537  11.035  0.1911  0.4282 -0.0895
 8194W        W25041  19.175   6.155   9.946  0.0124  0.0409  0.0286
 8195W        W25042   7.069  14.035   3.672 -0.3154 -0.0890  0.1709
 8196W        W25043  15.859  17.052   9.325  0.2481 -0.1837  0.0460
 8197W        W25044  18.838   7.570  11.686  0.0318 -0.0290  0.0296
 8198W        W25045   4.867  18.743   2.660 -0.1708  0.1053  0.2269
 8199W        W25046  14.423  11.260  10.266 -0.0881 -0.1297  0.3203
 8200W        W25047   1.420   0.752   3.965 -0.2770 -0.1673  0.0511
 8201W        W25048  11.798   4.202   2.766  0.1291  0.5269  0.3535
 8202W        W25049   0.910   0.939   4.122 -0.2150  0.0371 -0.3011
 8203W        W25050   0.772   1.770  10.427 -0.1232  0.3449  0.0400
 8204W        W25051  16.337  12.567   1.737  0.3522 -0.3005 -0.0737
 8205W        W25052   1.410  14.867  11.875 -0.1304 -0.0137 -0.2418
 8206W        W25053  16.531  10.529   0.713 -0.0766  0.0795 -0.0072
 8207W        W25054   5.108  16.978  11.697 -0.0419  0.0425 -0.0243
 8208W        W25055   5.509   1.907   4.459  0.0496  0.3188 -0.1795
 8209W        W25056   7.252  13.707   5.228  0.0100 -0.1154  0.0722
 8210W        W25057  19.232  13.818  10.292  0.2435 -0.0828 -0.1330
 8211W        W25058   6.929  13.571  13.361 -0.1953 -0.0855 -0.2829
 8212W        W25059  18.028  14.307  14.299  0.0601 -0.0326  0.0328
 8213W        W25060  18.636  17.866   0.788 -0.0389  0.1969 -0.0208
 8214W        W25061   7.740   5.290  10.177  0.0536  0.1333  0.3816
 8215W        W25062   8.757   1.933  10.131 -0.0097  0.1966  0.4462
 8216W        W25063   7.736  11.927  11.155  0.1625 -0.2741 -0.0965
 8217W        W25064   0.608  18.370   9.614  0.2009 -0.0058 -0.1147
 8218W        W25065   5.550  12.567   0.156  0.0286 -0.4292 -0.2534
 8219W        W25066   4.309  12.892  10.511 -0.0549  0.2392 -0.0169
 8220W        W25067  14.356  13.581   2.209 -0.1201 -0.0810  0.1538
 8221W        W25068   0.871  10.670  13.240 -0.0204 -0.1591 -0.0504
 8222W        W25069   8.939  15.767  13.735  0.1085  0.0411 -0.0536
 8223W        W25070  12.866   9.541   2.314 -0.1000 -0.0740 -0.0470
 8224W        W25071  13.051  16.839  13.770  0.2146  0.2259  0.1991
 8225W        W25072  11.054  10.880  12.791 -0.0269  0.3348  0.2429
 8226W        W25073  17.749   3.509  13.933 -0.0144 -0.1331  0.1781
 8227W        W25074  13.347  19.465   2.717  0.1057 -0.1684  0.2142
 8228W        W25075  17.882   0.278   4.238  0.1645 -0.0251  0.1236
 8229W        W25076   5.785  12.221  12.138  0.0742 -0.0774  0.0056
 8230W        W25077   8.969  19.534   2.531  0.0009  0.1043 -0.2176
 8231W        W25078   4.427  18.869   2.343  0.2316  0.0397 -0.1325
 8232W        W25079  17.317   0.409   4.468 -0.1129  0.1219 -0.0327
 8233W        W25080  17.406   8.613   3.722  0.1011 -0.2743  0.2005
 8234W        W25081  16.471  13.571   2.529 -0.4085  0.1741 -0.1281
 8235W        W25082  13.034  11.301  13.860 -0.1508  0.2082  0.0119
 8236W        W25083   5.964  14.897  13.620 -0.0191  0.3176 -0.0140
 8237W        W25084   3.679   6.448   4.373 -0.0256  0.0025  0.2462
 8238W        W25085   6.983  12.157  11.831  0.1520  0.0335 -0.1195
 8239W        W25086  12.140   1.545   4.606 -0.0820  0.1296  0.3397
 8240W        W25087  10.651   5.030   1.261 -0.1590  0.0851 -0.1275
 8241W        W25088  17.958   8.764  13.665 -0.2596 -0.0714 -0.3992
 8242W        W25089   3.246   7.691   4.921 -0.1899 -0.2251 -0.0094
 8243W        W25090   2.027  10.143   1.372  0.2358  0.0316  0.0188
 8244W        W25091   4.386   7.164   4.486 -0.1216 -0.2276 -0.0037
 8245W        W25092   0.580   7.853  13.001  0.0899 -0.3111  0.1868
 8246W        W25093  18.605   4.575   4.235  0.4248 -0.0688  0.0782
 8247W        W25094  11.357  13.068  11.718  0.1979  0.0052 -0.1227
 8248W        W25095   1.725  18.062   2.550  0.0408 -0.1422  0.0383
 8249W        W25096   4.519  12.078   2.196  0.3065 -0.0776 -0.0560
 8250W        W25097  18.927   7.925  10.288 -0.1469 -0.0975 -0.0096
 8251W        W25098  12.098   9.692   4.576  0.1504  0.3088  0.4116
 8252W        W25099   3.826   0.598  11.232  0.4426  0.1014 -0.0211
 8253W        W25100  13.248   7.239  13.513  0.0295 -0.0167  0.2964
 8254W        W25101   1.077   9.801   1.556  0.4211 -0.0133  0.1640
 8255W        W25102  14.386   8.903   2.259 -0.0676 -0.2958 -0.1375
 8256W        W25103   4.911  10.812  14.197 -0.1292  0.2020 -0.2248
 8257W        W25104   9.151   2.666  14.186 -0.3935  0.0538 -0.0385
 8258W        W25105  18.857  18.378   2.987 -0.0700  0.4397  0.1908
 8259W        W25106   5.904  16.648   2.143  0.3420 -0.1752  0.1329
 8260W        W25107   3.104   1.276  10.463 -0.0188  0.0218 -0.0802
 8261W        W25108   6.112  17.861  12.123 -0.2165 -0.1123 -0.2841
 8262W        W25109  19.333   1.951   1.006  0.2072  0.4491  0.1147
 8263W        W25110  14.101  15.625   2.521  0.0439  0.0778  0.2668
 8264W        W25111   5.715   0.656   3.686 -0.1978  0.0801  0.0790
 8265W        W25112   0.571   6.743   2.526 -0.0496  0.0539 -0.1280
 8266W        W25113   4.496  10.137  13.687 -0.3479  0.0186 -0.1486
 8267W        W25114   7.708  15.083  13.577  0.1022 -0.0529 -0.2482
 8268W        W25115   2.244   5.329  10.409  0.3553 -0.1049  0.0857
 8269W        W25116  11.744   5.088   2.255 -0.1647 -0.3198 -0.2798
 8270W        W25117  10.395  15.136   3.962 -0.3516 -0.0084  0.0334
 8271W        W25118   3.696   5.016   2.624  0.1780  0.3517 -0.1047
 8272W        W25119   6.134   9.335  12.723  0.4059 -0.0347  0.1758
 8273W        W25120  17.413   8.432   3.204  0.0205 -0.0558 -0.0609
 8274W        W25121   2.600  12.486  14.115  0.4504 -0.2582  0.2445
 8275W        W25122   4.078   8.118  12.216 -0.1321 -0.2982 -0.3001
 8276W        W25123  17.652   0.352  12.981 -0.1854 -0.2022  0.1098
 8277W        W25124   7.366   9.105   0.881 -0.1187 -0.0414  0.3654
 8278W        W25125   8.595  14.012   3.588  0.1753  0.1363  0.2266
 8279W        W25126   2.163   2.914   3.675  0.1393  0.0981  0.1143
 8280W        W25127   7.973   1.522  13.450  0.0380  0.3520 -0.1436
 8281W        W25128  17.047  10.874  11.891 -0.0900  0.1861 -0.5474
 8282W        W25129   2.821  11.048   0.551 -0.0625 -0.0163 -0.1600
 8283W        W25130   5.922  18.221  13.307  0.0504  0.0974  0.2462
 8284W        W25131   5.141   4.810   9.852 -0.1102 -0.0073 -0.4410
 8285W        W25132  16.082  18.121  11.162  0.1391 -0.0220 -0.0909
 8286W        W25133   5.909  19.671  13.074  0.1480 -0.2840  0.2485
 8287W        W25134  13.021  13.158  11.290  0.0911 -0.2853  0.3885
 8288W        W25135  14.965   6.699   2.257  0.2283  0.0977  0.0612
 8289W        W25136   4.122   4.706   5.127 -0.0472 -0.0135  0.0868
 8290W        W25137  19.651  16.426   4.160 -0.3911  0.1811  0.4275
 8291W        W25138   5.675  13.603   9.570  0.0802 -0.0143  0.0632
 8292W        W25139   9.236   1.292  12.565  0.0429 -0.1224 -0.1617
 8293W        W25140   6.562   4.137   4.970  0.0796  0.4456  0.2108
 8294W        W25141  14.513  12.569  13.580 -0.0789  0.0148  0.2880
 8295W        W25142  17.788  10.047   1.662 -0.2402  0.3156  0.0631
 8296W        W25143   6.153  12.861  14.333  0.0850  0.0257 -0.1017
 8297W        W25144  18.781  11.412   1.348  0.0752 -0.0251  0.3404
 8298W        W25145  13.443   5.425   1.642 -0.3448 -0.1631 -0.1165
 8299W        W25146  10.102   0.157  13.253 -0.1650 -0.1380  0.3058
 8300W        W25147  14.985  12.232   4.033 -0.0035  0.0051 -0.2396
 8301W        W25148  10.760   7.756  14.071  0.3415  0.2343 -0.0561
 8302W        W25149   3.575   4.202   0.272  0.3776  0.2904 -0.1709
 8303W        W25150  10.703   2.264  11.774 -0.0557  0.0791 -0.1681
 8304W        W25151   0.500   6.557   4.909 -0.0289 -0.1236  0.2973
 8305W        W25152  18.166  15.333  10.614  0.0744  0.2551 -0.0861
 8306W        W25153   3.924   2.178  12.706  0.2454 -0.0708 -0.0321
 8307W        W25154   1.644   4.579   2.553  0.0056  0.1492 -0.2944
 8308W        W25155  17.191  14.890  14.360  0.1062 -0.0336  0.1267
 8309W        W25156   4.039  14.495   3.627 -0.0919  0.0498  0.0746
 8310W        W25157   3.097  10.061   0.804 -0.0696  0.0531  0.0597
 8311W        W25158   4.541  18.549  10.681  0.2265  0.0756 -0.2609
 8312W        W25159   7.211   6.694   3.522  0.1050 -0.0648  0.0305
 8313W        W25160  15.995  15.545  13.437  0.1465 -0.2715  0.0405
 8314W        W25161  12.966   6.278  13.809 -0.2793 -0.3323 -0.4421
 8315W        W25162  13.772   9.108   3.593  0.2814 -0.1573 -0.1733
 8316W        W25163  19.404  10.856  12.946 -0.1145 -0.0469  0.0251
 8317W        W25164   8.088   6.597  12.935 -0.1064  0.0977  0.1053
 8318W        W25165   4.798  13.076   4.559  0.0325  0.0539  0.0326
 8319W        W25166  16.125  16.318   9.997  0.3940 -0.0672  0.1573
 8320W        W25167  11.109  17.363  11.865  0.1647 -0.5127  0.1323
 8321W        W25168  15.998  17.737   0.642 -0.3036  0.1317  0.1257
 8322W        W25169   7.402   2.727  14.149  0.0130 -0.1370 -0.1283
 8323W        W25170  18.761   3.269   1.933  0.0406 -0.1397 -0.0083
 8324W        W25171  10.299   3.645  13.050  0.2323 -0.0141  0.0050
 8325W        W25172  14.098   4.308   4.070 -0.0423  0.2280  0.0514
 8326W        W25173   4.768   5.726  10.348  0.3205  0.0170 -0.3394
 8327W        W25174  12.613   2.949  10.920  0.0363  0.1402  0.1368
 8328W        W25175   5.328  10.260  13.072  0.0890 -0.1682  0.0259
 8329W        W25176   8.938  12.231  14.045  0.0344  0.1062  0.1000
 8330W        W25177   3.530  11.765  13.143 -0.2785  0.1084  0.0104
 8331W        W25178   7.796  15.098   5.044 -0.2014 -0.0830  0.6094
 8332W        W25179   6.833  18.896   3.995 -0.2132  0.0027 -0.2024
 8333W        W25180  18.476   9.338  11.844  0.0666 -0.2548  0.4104
 8334W        W25181   4.963   9.062   2.764 -0.0448 -0.0282 -0.0318
 8335W        W25182  16.239  16.576   0.373  0.1945 -0.0231 -0.0492
 8336W        W25183  14.141   0.016  11.858  0.0366 -0.0649 -0.1427
 8337W        W25184  15.845   0.497  12.765 -0.3306  0.1220 -0.0462
 8338W        W25185   4.507   6.893  10.710 -0.3629 -0.1556  0.1692
 8339W        W25186  12.074   6.672   2.701 -0.0534  0.1612 -0.1780
 8340W        W25187  10.621  14.914  14.083  0.0173  0.3048  0.0112
 8341W        W25188   9.809   9.627  10.831  0.3138 -0.3212  0.0783
 8342W        W25189  15.937  17.721  10.417 -0.2199 -0.0952  0.2192
 8343W        W25190  13.531  10.729  12.959  0.0953  0.0703  0.2591
 8344W        W25191   5.611   8.384  11.770 -0.0701  0.1207  0.0557
 8345W        W25192  14.243   7.019  11.969  0.1534  0.2153  0.0001
 8346W        W25193   4.519  18.185   0.555  0.1361  0.1414 -0.2366
 8347W        W25194   0.057   0.476   3.216  0.2192 -0.0358  0.2899
 8348W        W25195  14.542  12.833   5.169 -0.0311 -0.0813 -0.1529
 8349W        W25196  13.444   9.973  10.201 -0.1159  0.3000 -0.2979
 8350W        W25197   0.370   3.362  10.660 -0.4578 -0.2805 -0.1237
 8351W        W25198   0.461   8.971   4.482  0.1508  0.0872 -0.1880
 8352W        W25199   4.752  13.911  13.850 -0.1370 -0.0675  0.1637
 8353W        W25200   2.831   3.637  13.599 -0.0495 -0.2829 -0.1580
 8354W        W25201  10.235  13.415  13.182 -0.1825 -0.0063  0.0484
 8355W        W25202  19.667   0.278   2.828 -0.2447 -0.1005  0.2849
 8356W        W25203  11.452   7.090  14.316  0.0832 -0.1722 -0.0002
 8357W        W25204   6.761   8.072   0.757 -0.3187  0.3377 -0.1343
 8358W        W25205   7.272   7.028   1.540 -0.1352  0.0466  0.0073
 8359W        W25206   0.546  12.449   1.206  0.1005  0.1823  0.3908
 8360W        W25207  15.883  13.575  11.833  0.1207  0.3631 -0.0452
 8361W        W25208   2.181  16.778  13.766  0.1882 -0.0546  0.0059
 8362W        W25209   3.488   4.479  12.520 -0.0651  0.2365  0.3462
 8363W        W25210   4.068  13.351   0.587  0.0030 -0.1677  0.1525
 8364W        W25211  14.412   2.774   2.531  0.3194 -0.1973  0.2333
 8365W        W25212  15.030   3.612   1.689 -0.0090 -0.3569  0.0223
 8366W        W25213  14.540   4.089   9.771 -0.3420 -0.0629 -0.0216
 8367W        W25214  15.282  10.085  10.465 -0.0961 -0.0894  0.2336
 8368W        W25215  11.195   8.264  14.049 -0.1567  0.0434 -0.2926
 8369W        W25216   4.864  13.337   5.045 -0.2226  0.1268 -0.3131
 8370W        W25217   8.789  15.625  10.206  0.2140 -0.3321  0.0130
 8371W        W25218  19.447   3.037  12.117 -0.3056 -0.2541 -0.1701
 8372W        W25219  15.371   2.753   5.092  0.2240  0.0372 -0.1049
 8373W        W25220  10.503  14.186   0.314 -0.0066 -0.0736  0.1180
 8374W        W25221  18.073  14.860   2.658  0.1650 -0.1182  0.4612
 8375W        W25222   9.446   0.473   2.542  0.4447  0.2323  0.2360
 8376W        W25223   4.413  10.470   4.852 -0.2137  0.2839  0.0767
 8377W        W25224   8.972  14.403  12.792  0.1126 -0.0402 -0.2324
 8378W        W25225   8.118  18.602   1.166  0.4267 -0.0819  0.0355
 8379W        W25226  14.699   0.862  13.747 -0.1801  0.0977 -0.2512
 8380W        W25227   0.842  19.663  11.378 -0.0084  0.1672  0.1138
 8381W        W25228  10.006  13.669  12.807 -0.0457  0.0912 -0.2924
 8382W        W25229   0.307   1.240   1.517 -0.2579 -0.1503  0.1767
 8383W        W25230   7.201   3.393  11.742 -0.2462 -0.0007 -0.1777
 8384W        W25231  12.592   6.048   4.659 -0.5456  0.0558 -0.1660
 8385W        W25232  14.075   9.647  13.117  0.0212 -0.0036 -0.3332
 8386W        W25233   1.495  18.244   0.653  0.2613 -0.3197  0.0407
 8387W        W25234   9.232  19.143  13.491  0.1145  0.2658  0.1433
 8388W        W25235  18.708  19.141   2.635 -0.0094 -0.2674  0.0484
 8389W        W25236   7.999   9.110   5.112 -0.2623 -0.2335  0.2888
 8390W        W25237  17.774  11.650  12.255  0.0817 -0.1533 -0.0300
 8391W        W25238  18.334   1.802  10.637  0.5053 -0.2575  0.3101
 8392W        W25239  16.226  14.663  13.238  0.1475  0.1150  0.2577
 8393W        W25240  12.739  14.896   4.483  0.1512  0.1251 -0.2342
 8394W        W25241  17.601   1.463  13.951  0.0236 -0.2039  0.1088
 8395W        W25242  18.067   0.520  13.544 -0.2257  0.0631 -0.3088
 8396W        W25243   8.363   3.725  12.522  0.0576 -0.2457  0.2930
 8397W        W25244   9.358  14.494  11.008 -0.0123  0.1231  0.1829
 8398W        W25245  17.285  14.331  10.532  0.6100 -0.2333  0.0190
 8399W        W25246  17.163   5.491   0.979  0.1649 -0.0136  0.1010
 8400W        W25247   2.992   3.298  10.211  0.4788  0.0383  0.0376
 8401W        W25248  13.336   3.395   5.088 -0.0989  0.0025  0.2007
 8402W        W25249   6.680   7.824   1.241  0.2699  0.0859  0.1207
 8403W        W25250   9.897   5.030   3.370 -0.3216  0.2910 -0.1651
 8404W        W25251   3.890   7.394  13.443 -0.1109  0.0236 -0.0628
 8405W        W25252   6.946   4.432   3.311 -0.0785 -0.0159 -0.2566
 8406W        W25253  14.170   8.777   1.466 -0.2061  0.0881 -0.5380
 8407W        W25254   0.342   9.016  10.986 -0.0750 -0.0023 -0.4155
 8408W        W25255  10.747   5.550  13.911  0.2883  0.2928  0.0510
 8409W        W25256  18.554   7.561   0.624  0.2087 -0.0808 -0.0127
 8410W        W25257   8.534  12.630  14.017  0.0354  0.2097  0.0138
 8411W        W25258  18.733  16.807   4.382 -0.3537  0.3606  0.0536
 8412W        W25259   8.856   1.968  13.213 -0.1087 -0.0052  0.0917
 8413W        W25260   8.385   1.237  13.485  0.6501  0.2802  0.1504
 8414W        W25261  10.525   3.166  13.847 -0.0448  0.1189 -0.4883
 8415W        W25262  18.635  10.509  10.450  0.0346 -0.0311  0.2624
 8416W        W25263   0.316   4.458   0.761 -0.0948 -0.0234  0.0121
 8417W        W25264  17.006   5.074  11.440  0.0684  0.2143 -0.0722
 8418W        W25265  13.688   4.024   1.569 -0.3084 -0.2824 -0.2964
 8419W        W25266  13.299   4.447   0.343 -0.1746 -0.0509 -0.2264
 8420W        W25267   6.650   8.338   2.157 -0.2322 -0.0125  0.1282
 8421W        W25268  18.295   5.137   4.118  0.1568 -0.3840  0.1270
 8422W        W25269   7.677  17.796   1.540  0.1264 -0.0288  0.0444
 8423W        W25270  15.856  19.395  10.749 -0.2041 -0.1771  0.0147
 8424W        W25271   7.588   1.162  11.765 -0.2868  0.0028 -0.1884
 8425W        W25272  12.627   4.747  12.109 -0.5210 -0.0662  0.3198
 8426W        W25273   4.658   3.147  13.269 -0.2394  0.1756  0.3476
 8427W        W25274   3.972  13.106  14.036  0.1160  0.0630 -0.2933
 8428W        W25275  17.206   9.789   9.590 -0.1642  0.0357  0.1535
 8429W        W25276   5.483  15.106  13.667 -0.1685 -0.2766  0.1129
 8430W        W25277  16.622   3.393   2.059 -0.1130 -0.0199  0.1163
 8431W        W25278  17.316   2.663   1.075 -0.5130  0.0245 -0.0776
 8432W        W25279   7.988   3.498  11.284 -0.3191 -0.1774 -0.0702
 8433W        W25280  14.782   4.276   2.463 -0.1304  0.1662  0.1182
 8434W        W25281   4.915  10.029   1.379 -0.0276  0.0363 -0.0794
 8435W        W25282  11.326   5.939   1.946 -0.4034  0.1321 -0.2455
 8436W        W25283   9.379   7.538   9.974 -0.1227  0.1185 -0.0009
 8437W        W25284   1.911   2.337  13.621 -0.2469  0.1039  0.3838
 8438W        W25285  13.868   3.512   4.022 -0.1208 -0.1491 -0.0910
 8439W        W25286  10.247  19.624  12.010  0.0304  0.0699  0.0589
 8440W        W25287   2.224   8.107  14.246 -0.2959 -0.1960  0.1305
 8441W        W25288  17.084   4.574  12.987 -0.1034  0.2225  0.4911
 8442W        W25289   4.973   0.351  12.937  0.2586  0.1679  0.0281
 8443W        W25290   6.056  11.687   1.553 -0.0971  0.1627 -0.1608
 8444W        W25291   3.673  13.621  12.455  0.3029  0.2089 -0.2205
 8445W        W25292   4.345  19.770  13.454 -0.0842  0.0516 -0.0049
 8446W        W25293   6.843   4.582  10.975  0.1304  0.0980  0.2459
 8447W        W25294   2.656   2.240   3.035 -0.0877 -0.2809 -0.1069
 8448W        W25295   5.951   0.582   3.214  0.0304  0.1025 -0.0213
 8449W        W25296   6.995   7.565  14.281 -0.1759 -0.2958  0.0402
 8450W        W25297   1.286   6.867   4.002 -0.0913 -0.1053 -0.1531
 8451W        W25298  13.675   3.610   1.257  0.2004 -0.0820 -0.0604
 8452W        W25299   8.335  14.353   2.499  0.1966 -0.1651  0.1542
 8453W        W25300   8.953  12.444   2.818 -0.0213 -0.1530 -0.1700
 8454W        W25301  13.348   7.295   2.322 -0.2420  0.0584 -0.0524
 8455W        W25302   4.948   6.715  12.525  0.3845 -0.2980 -0.0347
 8456W        W25303   0.975  16.331  11.539 -0.0018 -0.1762  0.1828
 8457W        W25304  11.473   9.249   0.222  0.0604  0.0870  0.0671
 8458W        W25305   3.679   5.841   3.034 -0.0840 -0.2260 -0.2398
 8459W        W25306  10.580  13.619  11.477 -0.0364 -0.1714 -0.2957
 8460W        W25307   0.161   4.144   8.920 -0.0976  0.0077 -0.2578
 8461W        W25308  14.361   5.644  12.242 -0.1783 -0.0844 -0.2500
 8462W        W25309   3.253   2.962   0.224  0.2513 -0.0838 -0.2639
 8463W        W25310  17.020  18.230   2.729  0.1284  0.0619  0.3956
 8464W        W25311   1.511   2.421  12.899 -0.1465 -0.0480  0.0854
 8465W        W25312  10.538   4.832   9.864  0.0860 -0.1339 -0.2284
 8466W        W25313   5.645  16.080   4.024  0.0052  0.1454  0.0007
 8467W        W25314   8.481  19.862   3.442 -0.0741 -0.0785  0.1903
 8468W        W25315   8.656   5.724  11.320 -0.0522  0.2464 -0.2425
 8469W        W25316   0.281  11.692  13.755 -0.2956  0.1241 -0.0235
 8470W        W25317  13.017   9.341   3.160  0.0210  0.2711 -0.0623
 8471W        W25318   3.755   0.840  13.278  0.0615 -0.4131  0.1397
 8472W        W25319   1.252   8.768   0.618  0.1156  0.1510 -0.0881
 8473W        W25320   2.990  18.754  10.330 -0.2830 -0.2934  0.2477
 8474W        W25321  14.258   9.520   1.903  0.0108 -0.2349  0.0190
 8475W        W25322   9.225  14.746  12.302 -0.1574  0.0668 -0.0787
 8476W        W25323   5.558  15.811   4.767  0.5915  0.1243 -0.0607
 8477W        W25324  17.745   2.476  14.230  0.0819 -0.2012 -0.0824
 8478W        W25325  13.478  10.574  10.827 -0.2196 -0.1234 -0.3138
 8479W        W25326   4.426   3.204  11.760  0.0754  0.0622  0.2686
 8480W        W25327   8.344  16.610   3.332 -0.1978 -0.0926 -0.2855
 8481W        W25328  15.524  18.177  14.010  0.0469  0.0865  0.0632
 8482W        W25329   4.015   9.592   0.198 -0.1245  0.3512  0.2733
 8483W        W25330  17.601   6.302  11.488 -0.2985 -0.0964 -0.4617
 8484W        W25331   2.058   4.024   2.909  0.0029  0.2501 -0.0463
 8485W        W25332  18.556  15.336  12.733  0.0325 -0.2248  0.2002
 8486W        W25333   1.549   6.398  14.019 -0.0894 -0.0747 -0.1443
 8487W        W25334   6.312  14.339  11.493  0.1271 -0.0651  0.6036
 8488W        W25335  12.035  12.123  13.756 -0.1221  0.0136  0.3663
 8489W        W25336   7.367   8.379  12.944  0.2385  0.0235 -0.0119
 8490W        W25337   4.244   0.937   1.595  0.1312  0.1520  0.2117
 8491W        W25338  17.059   3.699   3.236  0.1164  0.0086  0.0946
 8492W        W25339  18.269  18.249  14.013  0.1368 -0.0095  0.1559
 8493W        W25340   0.940  19.851  11.811  0.2520 -0.0381 -0.1867
 8494W        W25341   5.648  15.603   1.035 -0.2708 -0.0305 -0.1393
 8495W        W25342   8.770  15.480   4.839 -0.1641  0.0577  0.1272
 8496W        W25343   0.193  10.661   0.890 -0.1392 -0.0561  0.1478
 8497W        W25344  13.291  16.738  13.363 -0.0245 -0.2876 -0.0853
 8498W        W25345   0.760   6.754   4.467 -0.0766 -0.0057 -0.0338
 8499W        W25346   3.813  17.737  13.620 -0.1328  0.0778  0.1624
 8500W        W25347  19.588  19.780  13.757 -0.3101  0.0738  0.2384
 8501W        W25348  18.140   6.982   5.117  0.0145  0.0585  0.1396
 8502W        W25349  18.513  15.135  10.891 -0.2102 -0.0753  0.2813
 8503W        W25350   0.756   1.618  11.200 -0.1560  0.0722  0.1232
 8504W        W25351  11.918   1.074  13.424  0.0499 -0.1219  0.0099
 8505W        W25352   4.979  16.863   4.742  0.1600 -0.1022  0.0536
 8506W        W25353   4.876  19.122   0.861 -0.2565  0.2323 -0.0447
 8507W        W25354   5.873  16.474   3.808 -0.0441 -0.2040  0.0518
 8508W        W25355  10.128   3.217   0.445  0.1422  0.1145  0.0800
 8509W        W25356   4.198   5.578  11.175 -0.0730  0.0275  0.4647
 8510W        W25357   4.432   9.625   0.674 -0.0965  0.2173  0.1653
 8511W        W25358  17.873   0.095   1.595 -0.1436  0.0288  0.2069
 8512W        W25359   0.037  15.350   4.511  0.2006  0.0014 -0.1780
 8513W        W25360  14.481   0.127   3.521 -0.0957 -0.0953  0.4120
 8514W        W25361   2.139   0.647  13.519 -0.2981  0.1832 -0.0848
 8515W        W25362  15.928  10.716   0.132  0.4288  0.1096  0.1841
 8516W        W25363  18.445  19.024   0.236  0.2576  0.3732 -0.5756
 8517W        W25364  17.558   5.608  13.602  0.0396 -0.2378 -0.0504
 8518W        W25365   7.756  18.635  13.936 -0.3705 -0.0086 -0.1229
 8519W        W25366   4.108   9.217   3.045 -0.2431 -0.2163  0.0519
 8520W        W25367  18.959   4.788  11.576  0.1809 -0.0877  0.1173
 8521W        W25368  13.832  18.738  14.073  0.1076 -0.2416 -0.1647
 8522W        W25369   0.994  12.664  11.373  0.1313  0.0462  0.0302
 8523W        W25370   6.435  14.287  10.613 -0.2827  0.2737  0.1426
 8524W        W25371  12.049  15.978   1.330 -0.1835 -0.0689 -0.0671
 8525W        W25372  15.447   7.896  11.372  0.0062 -0.0670 -0.0059
 8526W        W25373   9.383  11.718   4.411  0.0776 -0.4377 -0.0413
 8527W        W25374   6.868  11.693  13.360  0.0385 -0.1376 -0.1516
 8528W        W25375  18.746   3.815   2.028  0.0651  0.0024  0.1850
 8529W        W25376  12.994  11.583  11.859  0.3672 -0.0869  0.2729
 8530W        W25377  17.174  12.508   2.137 -0.0148  0.0534 -0.0611
 8531W        W25378  18.974  14.186   4.484 -0.2515  0.0063 -0.1284
 8532W        W25379  14.648   7.349  13.375 -0.0798  0.0375 -0.3938
 8533W        W25380   7.872  13.863  12.823 -0.2975 -0.1991  0.1297
 8534W        W25381   9.581   2.263   9.910 -0.0697  0.1142 -0.2166
 8535W        W25382  14.234   1.549  13.820 -0.1212  0.0022 -0.0913
 8536W        W25383   3.114   3.245  11.690 -0.2734 -0.2433 -0.0032
 8537W        W25384  15.830  18.975   0.037 -0.1424 -0.1724 -0.3670
 8538W        W25385   8.734   3.486  13.951 -0.1132  0.3378  0.2002
 8539W        W25386  14.412  19.567  13.242 -0.1853  0.1831 -0.2270
 8540W        W25387  15.817  15.493   4.674 -0.2203  0.0216  0.1076
 8541W        W25388   8.758   8.540  10.135  0.0719  0.0274  0.0671
 8542W        W25389  16.789   0.232   3.298  0.2204  0.1641  0.1652
 8543W        W25390   9.823   1.035  14.322  0.1919 -0.2837 -0.3313
 8544W        W25391   6.239   5.860   0.360 -0.2004  0.1153 -0.2272
 8545W        W25392  18.805   7.215  13.418 -0.0687 -0.2699  0.2252
 8546W        W25393   9.568  16.024  12.848 -0.2650 -0.1220  0.1933
 8547W        W25394   1.532   0.498   2.845  0.1326  0.1147  0.1371
 8548W        W25395   2.673  14.619   1.159 -0.0118 -0.2920 -0.1709
 8549W        W25396   9.995  11.512   1.122  0.0010 -0.0457 -0.2851
 8550W        W25397  11.080  18.529   3.130 -0.1950 -0.1768  0.2050
 8551W        W25398   2.646   3.156  11.806 -0.0577  0.2729  0.1633
 8552W        W25399  17.198  10.463   0.446  0.0356 -0.0139 -0.1248
 8553W        W25400  19.397  13.206   3.275 -0.0078 -0.1725  0.2581
 8554W        W25401  14.141   7.887   0.991 -0.0354  0.0905  0.0956
 8555W        W25402  14.207  10.517  11.710  0.0938  0.0586 -0.0612
 8556W        W25403   6.145  10.012  11.060  0.1255 -0.2039 -0.1419
 8557W        W25404   6.192  10.023  13.214  0.4060  0.2093 -0.0284
 8558W        W25405  15.222   5.281  11.294  0.1584  0.2779  0.1759
 8559W        W25406   2.040   3.131   2.265  0.0436 -0.3759  0.1396
 8560W        W25407  11.075   3.693   3.791 -0.0850 -0.0675 -0.2429
 8561W        W25408   5.972   0.376   1.403  0.0937  0.0685 -0.4016
 8562W        W25409  14.891   9.183   3.647  0.3282  0.1272  0.1335
 8563W        W25410   2.195   1.045  10.524  0.0584  0.0730 -0.3607
 8564W        W25411   9.154  11.429  12.893 -0.0746 -0.1094 -0.1895
 8565W        W25412   9.699   5.131   0.286  0.0803  0.0782 -0.1449
 8566W        W25413   3.439   2.892   9.953  0.3811 -0.0631  0.1876
 8567W        W25414  15.281   4.954   1.952 -0.1444 -0.1418  0.1564
 8568W        W25415  13.968  17.511  11.054 -0.2098  0.1874 -0.0523
 8569W        W25416   1.853  10.660   2.173 -0.0245 -0.0876  0.3309
 8570W        W25417   4.453   6.549   2.124  0.1184 -0.2411 -0.0291
 8571W        W25418   2.590   5.331   0.251 -0.0165  0.2454  0.1779
 8572W        W25419  14.968  13.968   0.937 -0.1143  0.1867  0.1771
 8573W        W25420  14.405  17.179   0.022  0.2596 -0.1833  0.3842
 8574W        W25421   5.164   7.564  12.316  0.3571  0.2604  0.1697
 8575W        W25422  13.388  14.740  12.677  0.0859 -0.2564 -0.0399
 8576W        W25423  13.897   0.337  10.901  0.0460 -0.0520  0.1147
 8577W        W25424   3.658  13.871   4.377  0.0360  0.1563  0.0867
 8578W        W25425   2.292   3.088   1.834 -0.0584 -0.2402  0.0256
 8579W        W25426   5.017   1.150  12.885 -0.2666 -0.1370 -0.1068
 8580W        W25427   5.919  17.150   2.450 -0.2320 -0.3026  0.3464
 8581W        W25428  19.628   8.916   9.436  0.1708 -0.6006  0.1738
 8582W        W25429   7.898  14.872  10.867 -0.0873 -0.2714  0.0203
 8583W        W25430   6.264  17.437   5.339 -0.1649 -0.1804 -0.1805
 8584W        W25431  18.689   3.827  11.679  0.0030  0.1391  0.1792
 8585W        W25432   8.464   2.899   3.115 -0.3003  0.4148 -0.2270
 8586W        W25433  12.399  16.268   5.410  0.0065  0.0467 -0.1360
 8587W        W25434  11.498   3.950   3.125  0.0369  0.0381 -0.2637
 8588W        W25435   2.367  16.945   2.477  0.1848  0.2185  0.0732
 8589W        W25436  13.185   1.647  13.701  0.1173  0.0890  0.0375
 8590W        W25437   5.886  16.496  11.275  0.0707 -0.1629  0.0989
 8591W        W25438   2.776   7.363  12.894 -0.0350 -0.0233 -0.0836
 8592W        W25439  11.614   6.553   1.328 -0.2446  0.1324 -0.0282
 8593W        W25440  15.630  16.640  10.592 -0.2081  0.1159 -0.1338
 8594W        W25441  17.410   2.005  10.827  0.1426  0.1368 -0.3124
 8595W        W25442   0.009  13.082  14.028 -0.1152 -0.0420 -0.1529
 8596W        W25443  16.978  16.893   9.951  0.2065  0.2704 -0.0186
 8597W        W25444  13.966   0.928   9.731 -0.0121  0.0177  0.0811
 8598W        W25445  17.518   9.861   9.053 -0.3797 -0.0919  0.0548
 8599W        W25446   8.174   2.226   2.816  0.1828  0.0469  0.1464
 8600W        W25447  19.029  14.701   1.515  0.3424  0.3564 -0.0489
 8601W        W25448  18.659  10.196  12.129  0.0050 -0.0629  0.0384
 8602W        W25449   0.345   9.915  12.083 -0.0119 -0.0055 -0.4219
 8603W        W25450   8.795  17.364  11.565 -0.1977  0.1335 -0.0570
 8604W        W25451  12.925   5.189  10.861 -0.0900 -0.0745 -0.0322
 8605W        W25452  13.128  11.091  12.986 -0.0061 -0.2005  0.2457
 8606W        W25453  17.809  19.690   0.192  0.0179  0.2349  0.0408
 8607W        W25454   7.841   0.651   0.644 -0.5136  0.0940 -0.1472
 8608W        W25455  15.425   8.976   3.704 -0.0776 -0.1123  0.0264
 8609W        W25456  17.338  10.406   1.721 -0.0978 -0.0427 -0.0122
 8610W        W25457   4.891   9.536  12.622  0.0748 -0.0868 -0.1730
 8611W        W25458   3.065  19.563  12.816 -0.4333  0.1207  0.0704
 8612W        W25459  18.622  16.279   3.228  0.0871  0.0223 -0.4549
 8613W        W25460   7.554  14.954   5.484 -0.1514 -0.0821 -0.0266
 8614W        W25461  13.536  13.892   9.018 -0.0571  0.1614 -0.1114
 8615W        W25462  10.623   5.606   2.615 -0.1075  0.5005 -0.2596
 8616W        W25463  12.083  14.657   5.191 -0.0474  0.2467 -0.0250
 8617W        W25464  11.858  13.907   1.762  0.0362  0.0750  0.0663
 8618W        W25465   3.343  19.627   0.672 -0.2453  0.1236  0.3664
 8619W        W25466   1.360   9.149   2.179  0.2118  0.0149 -0.1405
 8620W        W25467   6.804   2.040   2.216  0.2989 -0.1191 -0.1392
 8621W        W25468  12.379  11.071   2.353  0.2911 -0.0130 -0.2931
 8622W        W25469   6.299  11.644  10.964 -0.1792  0.1115 -0.1341
 8623W        W25470  14.058  16.452  13.142  0.0566  0.0962 -0.0038
 8624W        W25471   2.031   4.659   0.651 -0.4977  0.2111 -0.0551
 8625W        W25472   5.629   0.930   2.228 -0.2120  0.2367 -0.0768
 8626W        W25473  11.670   1.111   1.841  0.0663 -0.1363 -0.0715
 8627W        W25474  13.878  17.517   4.332  0.0215 -0.1211  0.3010
 8628W        W25475  11.677   9.676   1.583  0.3395  0.0703 -0.4834
 8629W        W25476  10.171  12.949  10.391  0.1249 -0.3567  0.2065
 8630W        W25477   2.422  17.996  13.463 -0.0748 -0.3909  0.0561
 8631W        W25478  10.166   9.574   0.172  0.1670 -0.3574 -0.0774
 8632W        W25479   3.231   5.338  12.109 -0.1913 -0.1754 -0.1977
 8633W        W25480   9.879  18.401   4.246  0.1868 -0.1198 -0.1216
 8634W        W25481   9.453   8.924   0.253 -0.3093 -0.0039  0.1067
 8635W        W25482   4.619   2.147   1.014 -0.2039  0.0624 -0.0940
 8636W        W25483   7.525   9.537  10.580  0.0595 -0.2682  0.2053
 8637W        W25484   7.298   0.865   2.389 -0.1598 -0.2265 -0.0280
 8638W        W25485  12.564   8.546  13.105 -0.0284 -0.0272  0.2073
 8639W        W25486  15.355  16.580   3.970 -0.0594  0.3446  0.0310
 8640W        W25487   4.734   2.514  14.325  0.1570 -0.0416  0.0379
 8641W        W25488  10.704   4.846   4.541  0.2165 -0.0813  0.1280
 8642W        W25489  10.176  18.517  13.873 -0.0072  0.1038 -0.0333
 8643W        W25490   6.669   3.016  13.317  0.1745  0.2554 -0.3113
 8644W        W25491  13.739  18.329  13.094  0.1077  0.2381  0.2594
 8645W        W25492   5.654  14.181   2.693 -0.2825  0.2341 -0.2072
 8646W        W25493  19.373   5.960   0.657  0.0886 -0.2223  0.1868
 8647W        W25494   1.088   8.378  11.649 -0.0163  0.0281 -0.2366
 8648W        W25495  19.845  14.994  12.460 -0.0897  0.0002 -0.2056
 8649W        W25496  17.069   8.414  12.953 -0.3075 -0.0051 -0.1131
 8650W        W25497  14.475   1.862  10.723 -0.2720 -0.2770 -0.1905
 8651W        W25498  10.280  10.960  13.361 -0.0264  0.1154 -0.0540
 8652W        W25499  13.980   0.189  11.367  0.2150  0.1561  0.0002
 8653W        W25500   6.464   9.106   1.148  0.0073  0.2075 -0.0096
 8654W        W25501  18.112   6.807  10.381 -0.0048  0.2859 -0.2532
 8655W        W25502  17.496   0.649   4.009  0.0105 -0.1824 -0.0077
 8656W        W25503   4.757   4.466  10.722 -0.0682  0.1960 -0.4038
 8657W        W25504  13.833  18.540   4.665  0.1807 -0.2050  0.0755
 8658W        W25505  12.226   5.198   3.060 -0.1666 -0.3423  0.1906
 8659W        W25506   7.943  13.172  11.146  0.0451  0.0322  0.2629
 8660W        W25507  15.253   7.982   2.098 -0.1326 -0.1482  0.0847
 8661W        W25508  10.414   5.157   0.818 -0.0942 -0.2879  0.1141
 8662W        W25509  12.148  15.727  13.478  0.0777 -0.0766  0.0246
 8663W        W25510   0.022  11.912   4.865  0.3375 -0.2356  0.0105
 8664W        W25511  13.201   7.116  12.068  0.0373  0.2129 -0.0506
 8665W        W25512  14.566  11.789   3.694  0.0653 -0.0019  0.1665
 8666W        W25513  11.007  13.806  14.219 -0.0045  0.0584  0.0670
 8667W        W25514   1.031  10.913  11.112  0.0584  0.0792 -0.0555
 8668W        W25515  13.591  14.548   2.770 -0.0276  0.1786 -0.1099
 8669W        W25516   3.267   4.815   2.200 -0.0082 -0.1610  0.0147
 8670W        W25517  10.542   3.995  13.303  0.0943  0.2561  0.0045
 8671W        W25518  18.272   7.542   3.599 -0.1284  0.1653  0.1712
 8672W        W25519  10.944  11.105  11.702  0.0976  0.0082 -0.2754
 8673W        W25520  10.858  10.401  12.751  0.1940 -0.0674 -0.0182
 8674W        W25521  15.276   7.155  11.213 -0.0750  0.2706  0.1902
 8675W        W25522  16.418  16.504  14.259  0.0180 -0.0605  0.0253
 8676W        W25523  12.698  18.203   5.205  0.2188  0.0884  0.3221
 8677W        W25524  17.220  15.410   0.294 -0.0097 -0.0613 -0.0008
 8678W        W25525  16.956   2.340   4.401 -0.2371  0.0692 -0.2692
 8679W        W25526   6.076  12.915   2.470 -0.1485 -0.2257 -0.1378
 8680W        W25527   1.689  15.062   0.323 -0.0658  0.1802 -0.2604
 8681W        W25528  11.357   5.479  11.951 -0.0694  0.1824 -0.2976
 8682W        W25529  11.146  11.935  12.346 -0.1123 -0.3090  0.2211
 8683W        W25530  13.482   5.716  14.210  0.2798  0.0132 -0.2806
 8684W        W25531  10.568   6.637   0.359  0.0481 -0.0602 -0.1155
 8685W        W25532  18.502   7.538  12.168  0.1886 -0.1503  0.1183
 8686W        W25533   7.339   3.901  10.633 -0.1206 -0.1645  0.0999
 8687W        W25534   5.100  11.038  11.530 -0.1251 -0.0132 -0.0888
 8688W        W25535   3.663   0.745  10.734  0.0533 -0.0642 -0.1853
 8689W        W25536   7.317   4.862  11.750  0.1223  0.0387  0.0875
 8690W        W25537   6.484   0.786  14.322  0.1374 -0.0967  0.4438
 8691W        W25538   5.489   9.839   0.531 -0.0635  0.1661 -0.2359
 8692W        W25539   1.430  17.797   0.844 -0.1158  0.0235 -0.1796
 8693W        W25540  12.892   6.264   0.704 -0.0438  0.0897 -0.1607
 8694W        W25541   5.202  18.945  12.200 -0.3474  0.0071  0.2000
 8695W        W25542  17.706  17.847  10.339  0.1424 -0.4528 -0.2978
 8696W        W25543  18.878  15.871   2.019 -0.2519  0.2673  0.2250
 8697W        W25544   6.551  18.408   4.005  0.0513  0.3228  0.0270
 8698W        W25545  16.639  11.752   0.197  0.1266 -0.3487  0.0776
 8699W        W25546   9.676  16.904   0.771  0.3765 -0.1000  0.0410
 8700W        W25547  13.632  18.783  11.130 -0.3918  0.3309  0.4965
 8701W        W25548  11.467  13.964   5.048 -0.4064  0.2021  0.5198
 8702W        W25549   9.472   3.153  10.221  0.2701  0.3058 -0.0757
 8703W        W25550   8.196   8.533   3.791  0.1813 -0.0353 -0.1064
 8704W        W25551  18.108   2.703   9.994  0.0294 -0.0771  0.4672
 8705W        W25552   5.785   4.547  10.808 -0.1901 -0.0265 -0.2380
 8706W        W25553   1.338   8.290   2.650  0.1520  0.2115 -0.0227
 8707W        W25554  12.520  15.566   0.387  0.0702 -0.1688  0.0351
 8708W        W25555  16.473   6.859   4.580 -0.1876  0.0090  0.1401
 8709W        W25556   7.571   6.097  11.408  0.0455 -0.2310  0.0688
 8710W        W25557   6.174  12.304   1.750  0.2498  0.1486  0.2897
 8711W        W25558  11.067   4.303   3.208 -0.4820 -0.1862  0.1876
 8712W        W25559  19.531   3.214   1.859  0.3324  0.1760  0.0822
 8713W        W25560  11.855   5.500   3.252  0.0388 -0.2290  0.1539
 8714W        W25561  11.853  14.956  10.025  0.0917 -0.1293  0.4509
 8715W        W25562  15.428   4.118  14.062 -0.1809 -0.1275  0.0670
 8716W        W25563  12.460  12.234   1.003  0.1884 -0.2167 -0.1459
 8717W        W25564  11.574  14.114   1.453  0.0920  0.0064  0.6300
 8718W        W25565  18.554  14.968  12.345 -0.0121  0.0486 -0.1892
 8719W        W25566  18.836   8.970   9.985 -0.1372  0.2241 -0.3751
 8720W        W25567   3.986  10.831  13.306  0.0222 -0.1152  0.1024
 8721W        W25568   7.768  19.700  10.549 -0.0539  0.0668 -0.0252
 8722W        W25569   1.821  13.011   4.673  0.0581 -0.0239  0.0372
 8723W        W25570  13.152   5.778  11.577 -0.0444 -0.3702  0.0663
 8724W        W25571   7.154   7.797  13.717 -0.2034  0.2335  0.2262
 8725W        W25572  11.003   9.903   9.874 -0.0333 -0.1841 -0.0445
 8726W        W25573  10.870  16.185   4.358 -0.0297 -0.4006 -0.2292
 8727W        W25574   4.614  19.833  11.068 -0.0689  0.0861 -0.1236
 8728W        W25575   4.908  13.348  13.947 -0.3430 -0.0170 -0.0684
 8729W        W25576   6.319   6.273  13.723 -0.0383 -0.1000 -0.0526
 8730W        W25577  15.743   6.784   4.641  0.0042 -0.4027 -0.6187
 8731W        W25578  15.040   9.640  12.275 -0.1419 -0.0146  0.0794
 8732W        W25579   7.842   5.953  12.461  0.1079 -0.3004 -0.3478
 8733W        W25580   9.860   8.043   3.986 -0.2903  0.1185 -0.0562
 8734W        W25581  18.960   8.179  13.057  0.1974  0.1556  0.0896
 8735W        W25582  13.291  17.589  13.913 -0.2242  0.0872 -0.0716
 8736W        W25583   0.385   7.899  13.927  0.2388  0.3433  0.1242
 8737W        W25584   3.715   2.016   2.175 -0.2107  0.3257 -0.2902
 8738W        W25585   1.276   8.451  10.600  0.0670 -0.2816  0.0372
 8739W        W25586   5.108  11.900   0.642 -0.0221 -0.0248  0.1056
 8740W        W25587   4.595   5.280  11.017 -0.0113 -0.1439 -0.0159
 8741W        W25588  12.524   9.148   2.136  0.0794 -0.1464  0.2254
 8742W        W25589  14.633   6.887   1.862  0.0720 -0.1825 -0.0722
 8743W        W25590  15.508  16.745  14.253 -0.1346  0.1765 -0.0483
 8744W        W25591  13.965   5.075  13.253 -0.0289 -0.2309  0.0796
 8745W        W25592  11.586   0.740   1.285 -0.1901 -0.0729  0.0348
 8746W        W25593   1.559  10.725  11.556  0.1451  0.0002 -0.1916
 8747W        W25594   0.480   6.936  13.339 -0.1734  0.4768 -0.1309
 8748W        W25595   2.396   6.513   5.402  0.1246 -0.1353 -0.0872
 8749W        W25596  12.968  14.761   3.845  0.0933 -0.1364  0.2171
 8750W        W25597  17.894   8.793  13.096  0.0745 -0.1457 -0.3632
 8751W        W25598   7.640   6.486   4.831 -0.0406  0.1072  0.0802
 8752W        W25599  17.508   9.351  11.425 -0.1793 -0.1024  0.0070
 8753W        W25600  14.897  11.968  10.296 -0.2542  0.1682  0.2670
 8754W        W25601   2.390   8.392  13.813 -0.2693  0.0763 -0.2164
 8755W        W25602  14.243   3.470  12.528 -0.0504  0.0352 -0.1625
 8756W        W25603   7.656   4.210  12.729  0.0404  0.1158  0.0733
 8757W        W25604  11.949   9.699  13.284  0.1840  0.1720  0.1849
 8758W        W25605  11.719  19.197  10.634  0.3269  0.2301 -0.0753
 8759W        W25606  16.251  17.538  12.845 -0.0452 -0.0681 -0.1835
 8760W        W25607   9.071   4.427   3.299  0.4177 -0.1865 -0.0554
 8761W        W25608   7.307   4.773  13.112 -0.1807  0.3128 -0.4266
 8762W        W25609   6.721   0.495  13.990  0.1186  0.0470 -0.2090
 8763W        W25610   5.362  12.375  11.886  0.2418 -0.5413 -0.1600
 8764W        W25611  11.927  14.456   0.018 -0.0660 -0.2523 -0.1416
 8765W        W25612  16.361  13.708  14.057 -0.0417 -0.0289  0.0758
 8766W        W25613  18.196  16.571   1.432  0.0734 -0.2199 -0.1289
 8767W        W25614  13.906  10.981   1.188  0.0037 -0.2299 -0.2386
 8768W        W25615  13.202   3.212  14.248 -0.0155  0.0340  0.0891
 8769W        W25616   8.849   0.513   0.904 -0.0423 -0.2425  0.1642
 8770W        W25617  16.763  19.857   2.202 -0.0133 -0.1315  0.2405
 8771W        W25618  15.258   4.071   2.558  0.0769  0.0657 -0.3479
 8772W        W25619  12.928  14.962   0.826 -0.0280 -0.1572  0.2193
 8773W        W25620   1.470   3.553   3.778  0.0476  0.1355  0.2497
 8774W        W25621   9.999   5.164  10.908  0.1091  0.0602  0.0757
 8775W        W25622   3.494   8.250   2.124  0.2369 -0.0264 -0.4092
 8776W        W25623   1.031   2.951  12.685  0.3557  0.0126  0.2581
 8777W        W25624   3.276  12.990   0.250 -0.1075  0.3754  0.3630
 8778W        W25625  16.663  19.162   2.810  0.0002  0.2786 -0.3840
 8779W        W25626  16.561   4.917  12.483  0.2128  0.0842  0.0428
 8780W        W25627  11.202  17.134   1.836  0.2697 -0.2211 -0.2173
 8781W        W25628  15.516  12.965  12.921 -0.1664 -0.0892 -0.0916
 8782W        W25629   2.850  11.697   3.261  0.1357  0.3483 -0.0833
 8783W        W25630  16.350  15.388   1.426  0.2315 -0.1342 -0.1384
 8784W        W25631  17.091  13.775   0.410 -0.3002 -0.1658 -0.0897
 8785W        W25632  16.540   6.935   3.413  0.0631  0.0261  0.3527
 8786W        W25633   6.764  12.720  13.063  0.1988 -0.1893 -0.2842
 8787W        W25634  15.585   0.113   2.724  0.2403 -0.1637 -0.0635
 8788W        W25635  16.444  14.343   9.896  0.2126  0.1792 -0.1261
 8789W        W25636   7.358  15.879   1.158  0.1178  0.1197  0.7159
 8790W        W25637   8.888   0.470  10.045  0.0896  0.0884  0.2985
 8791W        W25638  17.676  13.540  14.005 -0.1372  0.2135 -0.2125
 8792W        W25639   0.557  14.443   2.663 -0.1266  0.1257  0.2530
 8793W        W25640   0.659  11.911  14.034  0.7668 -0.1000  0.1093
 8794W        W25641   4.382  14.540   2.580 -0.2273 -0.2420 -0.0978
 8795W        W25642   6.975   4.590  13.498  0.0102  0.0565 -0.2454
 8796W        W25643   0.650  18.482  12.968 -0.2674 -0.3357 -0.1944
 8797W        W25644   5.264   9.862  12.020 -0.1734  0.0699  0.1908
 8798W        W25645   0.730  14.109  12.503  0.0213 -0.0310  0.1958
 8799W        W25646  10.968   4.080  11.077 -0.0753 -0.1441 -0.1040
 8800W        W25647  11.763  14.746  14.041 -0.0420 -0.2463  0.0182
 8801W        W25648  11.380   5.462   0.603  0.0891  0.1608 -0.2640
 8802W        W25649  16.353  19.434   3.786 -0.3362  0.0876 -0.1518
 8803W        W25650   6.147   3.948   1.376  0.0451 -0.0634 -0.1975
 8804W        W25651  15.753   0.194   4.506  0.0317  0.1106  0.1189
 8805W        W25652  16.522  10.234   2.283  0.0893 -0.2187 -0.1297
 8806W        W25653   0.911   6.451   3.354 -0.4430  0.1423  0.3416
 8807W        W25654   0.754  12.221   5.123  0.1689  0.1551 -0.0506
 8808W        W25655  18.820  17.978  12.603 -0.1207  0.0355 -0.0476
 8809W        W25656   2.146   3.018   9.758  0.1951 -0.1233  0.2370
 8810W        W25657  19.472   2.143  11.098  0.2986  0.3497 -0.0917
 8811W        W25658  13.938  18.668   9.700  0.0662 -0.1493  0.0606
 8812W        W25659   3.356   6.038   2.391  0.3503  0.0895 -0.1430
 8813W        W25660   0.978   7.430   2.868 -0.0230  0.1139 -0.1370
 8814W        W25661   0.035   6.188  12.687  0.0497  0.1461 -0.2876
 8815W        W25662   5.522   9.159  11.567  0.0647  0.0839  0.1503
 8816W        W25663  13.785  14.106  12.875  0.0374 -0.0127  0.0442
 8817W        W25664  14.832  11.107   2.231 -0.0678 -0.1813 -0.0758
 8818W        W25665  15.577   9.842  11.447 -0.1000  0.1092 -0.1024
 8819W        W25666  12.336   6.316  10.554 -0.2605 -0.0429  0.0184
 8820W        W25667  18.355  13.655  12.099  0.1374 -0.1038 -0.3473
 8821W        W25668   0.273  11.256  12.902  0.0351  0.2874  0.1214
 8822W        W25669  15.172   8.433   0.247  0.0010 -0.0361  0.2141
 8823W        W25670   3.907   6.148   3.552  0.1956  0.2087 -0.2549
 8824W        W25671  13.018  16.498   2.995  0.0350  0.2785  0.3172
 8825W        W25672  19.794   0.067   1.924 -0.0209  0.3847  0.0966
 8826W        W25673   9.901  10.425  10.731  0.0271  0.0480 -0.3410
 8827W        W25674  15.415  14.865  11.357  0.2404 -0.1427  0.5342
 8828W        W25675   7.350   5.309  11.949 -0.2699  0.3284 -0.0931
 8829W        W25676  15.044  19.198   0.781  0.3991  0.0014 -0.3690
 8830W        W25677  14.999  18.715   3.638  0.1826 -0.2006  0.2056
 8831W        W25678  12.500   4.746  13.872 -0.2788  0.0953  0.1228
 8832W        W25679   2.481   0.601   4.679 -0.0596  0.0243 -0.1603
 8833W        W25680  12.581   2.797   9.671 -0.0023 -0.0369 -0.4331
 8834W        W25681   0.208   5.010  11.170 -0.0692 -0.1336 -0.0645
 8835W        W25682   0.255  14.348   3.953 -0.1562 -0.2176  0.4249
 8836W        W25683  10.120  10.260   2.427 -0.0503  0.1711 -0.1552
 8837W        W25684   0.677   4.174  12.262 -0.1854  0.2230  0.3491
 8838W        W25685   4.784   5.851  12.614 -0.2264  0.1532 -0.1893
 8839W        W25686  13.171   2.026  13.357 -0.1343 -0.1964  0.4484
 8840W        W25687  16.319  13.576   4.685 -0.1441  0.0995  0.1040
 8841W        W25688  12.529  12.038  13.653 -0.2668  0.1263  0.0227
 8842W        W25689   4.049  18.423   0.696 -0.0987 -0.0944  0.0318
 8843W        W25690   2.654  17.888   2.051 -0.0976 -0.0390 -0.2149
 8844W        W25691  17.160  10.406  10.664 -0.2856  0.0671  0.0262
 8845W        W25692  11.822   5.541   1.240 -0.2113  0.0763  0.1157
 8846W        W25693   7.733   0.122   4.064 -0.2468  0.1737  0.0575
 8847W        W25694  17.473  15.253  13.492  0.1329  0.4500  0.0292
 8848W        W25695   9.041   0.863  10.430  0.1598  0.2169 -0.2502
 8849W        W25696   6.077  11.550   2.391 -0.4060 -0.2032 -0.3931
 8850W        W25697   9.375   7.830  10.416 -0.1791  0.1429 -0.0283
 8851W        W25698   3.819  14.429  12.314 -0.1599  0.0331  0.0409
 8852W        W25699  13.985  14.082   8.875  0.0809 -0.2260 -0.0486
 8853W        W25700  16.786   3.979   0.486 -0.1182  0.0399  0.3270
 8854W        W25701  12.219   7.463  14.044  0.0547  0.1823  0.2603
 8855W        W25702   3.209   9.952   5.202  0.0155 -0.3290 -0.4305
 8856W        W25703   5.548   2.233   1.136 -0.2537 -0.0227  0.3099
 8857W        W25704  10.208   7.511  13.248 -0.1171  0.0884  0.0969
 8858W        W25705   2.776   6.429   3.050 -0.0402  0.2123  0.1100
 8859W        W25706   0.041   6.574  11.409  0.3906 -0.1234  0.2320
 8860W        W25707  15.422  18.212   1.185  0.1445  0.1119 -0.2364
 8861W        W25708  17.848  16.636  12.442 -0.1396  0.0011  0.1689
 8862W        W25709   6.821  19.529   1.728  0.0008  0.1696  0.0624
 8863W        W25710  13.062  11.303   4.735  0.3862  0.0180 -0.0990
 8864W        W25711   3.892   1.775  13.064 -0.2061 -0.0397  0.0425
 8865W        W25712   2.548   4.527  11.519  0.1355  0.0213  0.0306
 8866W        W25713   5.730   0.210   0.984  0.0313  0.0376 -0.1519
 8867W        W25714   9.104   8.788   3.808  0.0941  0.0092  0.0663
 8868W        W25715  12.794   2.346  11.407  0.0103 -0.0188  0.0935
 8869W        W25716   4.550  12.867   1.441 -0.3164 -0.2068  0.3712
 8870W        W25717  16.673  14.468   5.027  0.0564  0.0871 -0.4074
 8871W        W25718  11.055  12.370   3.585 -0.1499  0.1825 -0.1492
 8872W        W25719  13.730   7.696   2.881  0.1945 -0.2522 -0.0231
 8873W        W25720   9.271  17.925  12.383 -0.1536 -0.2593  0.1158
 8874W        W25721  12.174  10.654  13.287 -0.1058  0.1541  0.0360
 8875W        W25722   4.123  13.147  10.979  0.1904 -0.1086  0.2277
 8876W        W25723   8.010  13.340  14.241 -0.1874  0.1355  0.1001
 8877W        W25724   1.022   0.455  13.716 -0.0376 -0.1301  0.0725
 8878W        W25725  17.466   6.482   4.791  0.0544  0.3055 -0.1295
 8879W        W25726  11.039   4.454  12.026  0.1445 -0.2521  0.2975
 8880W        W25727  12.538  19.280   4.718  0.2805 -0.0549  0.3685
 8881W        W25728   8.582  11.403  11.111  0.0817  0.0100 -0.1655
 8882W        W25729  15.600   8.204   0.279  0.0366 -0.0589  0.2728
 8883W        W25730  15.694   0.824   3.632 -0.0159  0.1049  0.1467
 8884W        W25731   8.895  11.736   4.798  0.0687  0.0959 -0.0611
 8885W        W25732  14.637  13.897  11.241  0.0802  0.1054 -0.1233
 8886W        W25733   6.590   8.434   3.510  0.2650 -0.1319  0.1567
 8887W        W25734   6.114   4.169  12.073  0.0809 -0.2586  0.2113
 8888W        W25735  10.127   9.091  12.896 -0.3198 -0.1305  0.1964
 8889W        W25736  12.551   0.764  10.827 -0.0506 -0.2329  0.0694
 8890W        W25737  10.431   3.644   0.541 -0.1710  0.1925  0.1218
 8891W        W25738  10.767  17.993   3.221  0.0235 -0.0097 -0.1614
 8892W        W25739  11.160   3.454  12.126 -0.2476  0.3019 -0.1718
 8893W        W25740  16.544  16.045   0.067 -0.0628  0.1508  0.0074
 8894W        W25741  17.934   5.613   2.447 -0.0128 -0.1187  0.2874
 8895W        W25742  19.671   3.763   2.759  0.2914  0.1936  0.0874
 8896W        W25743  12.537   7.074   3.489  0.4209 -0.0322  0.1684
 8897W        W25744   6.902   3.885   0.368  0.1158 -0.0803 -0.2242
 8898W        W25745   0.515   3.467   1.335 -0.0020  0.2995  0.1655
 8899W        W25746   2.955   9.457  12.413  0.0219 -0.0290 -0.3896
 8900W        W25747   4.449  16.512  10.688  0.0904  0.1729 -0.0446
 8901W        W25748  14.897   0.913   3.964 -0.2116 -0.3325 -0.1485
 8902W        W25749   5.013   5.240   3.204  0.2110  0.0547 -0.2890
 8903W        W25750   4.636   5.827   2.936  0.0755 -0.3068 -0.0055
 8904W        W25751   8.211   2.552   0.967 -0.0793 -0.0285 -0.2243
 8905W        W25752   1.091   3.533   9.969 -0.3213  0.1065  0.2455
 8906W        W25753  13.703   9.313   3.089  0.4542 -0.1416 -0.1621
 8907W        W25754  11.717   6.167  12.381 -0.2055  0.1556 -0.0295
 8908W        W25755   8.234  16.596   2.130  0.1199 -0.2094  0.1324
 8909W        W25756  11.991   1.899  13.285  0.3249  0.1382 -0.0192
 8910W        W25757   0.816  19.844   2.625  0.1328 -0.0676 -0.0894
 8911W        W25758   2.006   5.504   0.786 -0.1933 -0.0879 -0.1606
 8912W        W25759  10.799   5.375   4.296 -0.3785  0.2051  0.2195
 8913W        W25760   4.249  16.782   2.017  0.0731 -0.0783 -0.0934
 8914W        W25761   4.017  15.036   0.203  0.1037  0.2085 -0.1925
 8915W        W25762  19.068  14.471  11.554  0.0526  0.3137 -0.2915
 8916W        W25763  18.485  18.465  13.518 -0.0197 -0.2378 -0.1840
 8917W        W25764   0.849  17.419   2.439  0.0114 -0.0198  0.0461
 8918W        W25765  13.153   5.574   3.033  0.2161 -0.1063  0.3366
 8919W        W25766   2.685  16.180   1.777  0.0137  0.2292  0.0896
 8920W        W25767   5.099  17.902   4.848 -0.2405 -0.2505 -0.1919
 8921W        W25768   5.443  14.994  12.384 -0.1018 -0.2062 -0.0026
 8922W        W25769   2.459   3.921   3.562  0.4403 -0.1565  0.0976
 8923W        W25770  15.421   5.969   3.964  0.1050 -0.0605 -0.3677
 8924W        W25771  18.224   3.472   1.950 -0.0882 -0.2518 -0.0407
 8925W        W25772   4.751  19.544  12.836 -0.2120 -0.1071 -0.0556
 8926W        W25773  15.182   5.281  13.570  0.0402  0.0673 -0.0715
 8927W        W25774  15.362   9.499   0.297  0.1154 -0.0678 -0.2409
 8928W        W25775  17.597   9.450  12.371  0.2529 -0.1155 -0.2295
 8929W        W25776   1.595   0.446   0.617 -0.2077  0.0872 -0.1362
 8930W        W25777  14.102  19.386  11.710 -0.3458  0.3238 -0.0321
 8931W        W25778  13.297  10.422   5.205 -0.1040  0.2934  0.1809
 8932W        W25779  12.909  17.947   6.044  0.1064  0.2436 -0.2991
 8933W        W25780  12.886  15.914   5.460 -0.2132 -0.0836 -0.0027
 8934W        W25781   9.941   8.609   0.071  0.0071 -0.1682  0.1993
 8935W        W25782   6.444   5.894  10.788  0.0321  0.1094  0.3591
 8936W        W25783   3.922  17.024   2.690  0.0489  0.1829  0.1438
 8937W        W25784  12.494  15.197  10.289  0.0246  0.0283 -0.0900
 8938W        W25785  14.270  17.036  12.945  0.0580 -0.3990 -0.1451
 8939W        W25786  14.354  12.427  12.225 -0.0079 -0.2483  0.4052
 8940W        W25787   8.364   8.088   4.242 -0.0848 -0.3390 -0.0321
 8941W        W25788   1.478  17.373  12.210  0.0336 -0.1381 -0.2112
 8942W        W25789   3.030  14.792  13.305  0.0016  0.1348  0.0966
 8943W        W25790   9.274  16.175   5.079 -0.1266 -0.1592 -0.2124
 8944W        W25791  15.780   0.320   2.185  0.0317 -0.0579  0.1593
 8945W        W25792   7.926   0.576   9.104  0.2216  0.3308 -0.0161
 8946W        W25793  17.353  14.678   0.694 -0.0607  0.0789  0.0837
 8947W        W25794  18.437   3.829   4.816  0.1268  0.1007  0.1528
 8948W        W25795   0.593   3.819  13.410 -0.2646 -0.1972  0.0548
 8949W        W25796   0.317  18.725  10.355 -0.0318 -0.4059 -0.1267
 8950W        W25797  18.025  16.894   3.183  0.0270  0.0069  0.2527
 8951W        W25798   1.671   1.556   3.829 -0.0645 -0.2774  0.2593
 8952W        W25799  15.771  19.659   1.373  0.3025 -0.0924  0.1216
 8953W        W25800   1.446   0.852   1.230 -0.1031  0.0806  0.0398
 8954W        W25801   0.670   4.925  12.238  0.1316  0.0031  0.2263
 8955W        W25802   8.032   4.274  10.044 -0.0414 -0.0159 -0.4512
 8956W        W25803   9.512   4.744   1.685 -0.1099  0.5140 -0.3027
 8957W        W25804  18.024  16.372   0.044 -0.0707 -0.1393 -0.0600
 8958W        W25805  10.695  15.593   3.453 -0.2257 -0.0762  0.3212
 8959W        W25806  11.369   8.610  10.117  0.0170  0.0076  0.0000
 8960W        W25807   7.574   1.743   4.026 -0.1068 -0.1925 -0.1838
 8961W        W25808  13.477   0.690  13.356 -0.2323  0.4199 -0.0702
 8962W        W25809   8.157   8.571   2.932 -0.1782  0.3368  0.0187
 8963W        W25810  12.176  15.547   2.823  0.1201  0.0930  0.0791
 8964W        W25811  17.237   7.754   2.179  0.0034 -0.0909 -0.0829
 8965W        W25812  18.510  17.200   4.109 -0.2438  0.3627  0.1826
 8966W        W25813  17.052   6.927   0.743  0.4857 -0.1588 -0.1475
 8967W        W25814  15.140  18.997   1.401 -0.0345 -0.1062 -0.0255
 8968W        W25815  10.478  12.296   1.371  0.3715 -0.4142  0.0344
 8969W        W25816   1.765  18.732  10.959 -0.2888 -0.2840  0.1502
 8970W        W25817   7.764   6.090   0.613 -0.0109 -0.4106  0.1007
 8971W        W25818   8.914  11.143   0.903 -0.1470 -0.0787  0.3952
 8972W        W25819  19.593   0.896   0.745  0.2473 -0.3554  0.0591
 8973W        W25820   5.006   0.144   3.262 -0.1332 -0.0514 -0.1868
 8974W        W25821  17.759   1.383   0.489 -0.3212 -0.1471  0.2642
 8975W        W25822   1.870  17.322  11.592  0.2611 -0.1750 -0.2578
 8976W        W25823   8.705   4.753  10.717  0.0065 -0.0362 -0.0782
 8977W        W25824  16.779  16.695  13.377  0.1875 -0.5358  0.1157
 8978W        W25825   4.405  17.133   2.811  0.1100  0.1451 -0.2133
 8979W        W25826   6.348   1.920  10.331  0.0289  0.3997  0.3425
 8980W        W25827  14.114  14.178   2.171  0.1001 -0.0990 -0.4457
 8981W        W25828   3.213  10.135  14.108  0.1275  0.1447 -0.1318
 8982W        W25829   2.056  14.539  13.426  0.0732  0.0749  0.1831
 8983W        W25830   1.248   5.890   4.991 -0.0579 -0.0260  0.1493
 8984W        W25831  18.316  11.534   4.062  0.3054 -0.1872 -0.1435
 8985W        W25832  14.490   5.381  13.136  0.0878 -0.4793  0.3266
 8986W        W25833  18.204   9.331   0.648 -0.0848  0.1067 -0.0443
 8987W        W25834   5.494   0.471   2.091  0.0641 -0.4304 -0.0998
 8988W        W25835  10.745   3.321   2.719  0.2413 -0.0075 -0.1195
 8989W        W25836  10.139  15.881   0.464  0.0685 -0.1684 -0.0528
 8990W        W25837  12.325  17.375   3.507 -0.3865 -0.2037 -0.1032
 8991W        W25838  16.778  18.098   9.863 -0.2295  0.0163  0.0721
 8992W        W25839  18.696   8.057   5.075 -0.3118 -0.3089  0.1883
 8993W        W25840  19.277   4.364  14.006 -0.0243 -0.1083  0.2242
 8994W        W25841   6.034   5.769  10.487  0.0271  0.1365 -0.0788
 8995W        W25842   8.229   0.787   0.275 -0.2108 -0.4482 -0.1772
 8996W        W25843  14.052   9.162   4.105 -0.4746  0.1389  0.0962
 8997W        W25844  14.615   1.441  11.741 -0.0864  0.0308  0.1835
 8998W        W25845   7.097  19.343  12.113  0.1679 -0.3476  0.0700
 8999W        W25846   2.698  15.510   9.612  0.0933 -0.2624  0.5303
 9000W        W25847   8.136   1.711  11.303 -0.1335  0.0772 -0.1543
 9001W        W25848  17.561  17.285  11.785  0.1343  0.0529 -0.1454
 9002W        W25849   5.072  13.256   1.017  0.2044 -0.3183  0.1249
 9003W        W25850  16.544   5.238  10.776  0.1228 -0.2073 -0.0565
 9004W        W25851  12.125  17.527  10.690 -0.1218  0.0127  0.3110
 9005W        W25852   6.229   1.009  11.494 -0.0612 -0.4533 -0.1477
 9006W        W25853  17.136   1.298  12.589  0.1827 -0.0178  0.1134
 9007W        W25854  16.256  13.189  11.745 -0.1311 -0.1501  0.2684
 9008W        W25855   6.744   0.463  11.476 -0.1784  0.1387 -0.4707
 9009W        W25856  18.511  11.603   2.076  0.1255 -0.0590 -0.1374
 9010W        W25857  14.230  15.328  12.475 -0.0048  0.0028  0.1578
 9011W        W25858  19.787  15.744   3.945 -0.2142  0.1041  0.3158
 9012W        W25859  17.548  10.328   5.025 -0.2183  0.0781  0.1910
 9013W        W25860  13.627  16.375   2.953  0.3256 -0.0091 -0.0353
 9014W        W25861  11.165  10.233   1.846 -0.0822  0.1883 -0.0472
 9015W        W25862   1.666   5.672  13.899 -0.0852  0.0595  0.1899
 9016W        W25863  10.353   3.537   0.049 -0.1181  0.0383  0.0021
 9017W        W25864   2.897   1.471  14.081 -0.2351  0.3077  0.0367
 9018W        W25865  12.897   9.792  14.111 -0.0744 -0.1967  0.3437
 9019W        W25866   4.595   7.547  11.417 -0.1027  0.1141  0.0703
 9020W        W25867  14.768   1.317  12.220 -0.2473  0.0144  0.2241
 9021W        W25868  11.199  10.675  10.176  0.1119  0.1470  0.2387
 9022W        W25869  15.772   2.420   1.705 -0.2213  0.0185  0.0983
 9023W        W25870   1.051  18.764   4.579 -0.0623  0.0593 -0.3263
 9024W        W25871   7.441  10.442   4.232  0.1575 -0.2205  0.0069
 9025W        W25872   5.494   7.313  11.978 -0.1482 -0.0317 -0.0584
 9026W        W25873  16.157  18.923   1.566  0.0620  0.1522 -0.4326
 9027W        W25874  15.182   8.669  10.703  0.0848  0.0534  0.1227
 9028W        W25875  18.078   9.063   5.095  0.0335  0.3054  0.1750
 9029W        W25876   7.510  16.569   2.852  0.0646  0.0119 -0.0274
 9030W        W25877  13.289   1.673   4.340 -0.3098 -0.1297 -0.2215
 9031W        W25878  18.769  15.758  11.293  0.1505  0.0374 -0.2312
 9032W        W25879  13.536  17.002  13.816  0.1429  0.0805 -0.0033
 9033W        W25880  16.834   2.696   1.187 -0.0687  0.0890 -0.1815
 9034W        W25881   1.514   2.270  10.582 -0.0582 -0.1462 -0.4801
 9035W        W25882  19.067   4.267  10.809 -0.0618  0.1208  0.2013
 9036W        W25883  14.107   9.564   2.895  0.3663 -0.0471  0.0984
 9037W        W25884   5.168  12.221  14.346 -0.2052  0.1471 -0.0677
 9038W        W25885  15.314  17.510  10.931 -0.0779  0.1707  0.0915
 9039W        W25886  15.391   9.541  13.330  0.2957  0.1686 -0.0978
 9040W        W25887  13.523  17.040   3.610  0.0507  0.2461 -0.3269
 9041W        W25888   3.507  12.012  13.854  0.0490 -0.0323 -0.3046
 9042W        W25889   1.998   7.816  12.546 -0.1483  0.3270  0.2422
 9043W        W25890  17.933   2.733  11.280  0.0881 -0.1586 -0.1810
 9044W        W25891  13.677   0.216  13.265  0.1517 -0.0162  0.0974
 9045W        W25892   8.350  19.619  11.680  0.1041 -0.1031  0.2018
 9046W        W25893  18.590   4.575   5.399 -0.0401 -0.1850  0.1422
 9047W        W25894   4.906   0.706   3.084 -0.0114  0.0732  0.0187
 9048W        W25895  11.383  17.866   9.239  0.0574  0.0771 -0.3643
 9049W        W25896   4.971  11.437   9.835  0.0034  0.0652  0.5772
 9050W        W25897   8.631  10.508   3.359  0.1101 -0.0721 -0.0179
 9051W        W25898  11.519  13.800  12.826  0.1196  0.3429  0.2316
 9052W        W25899   1.015   4.891   3.299 -0.1271  0.0129  0.2914
 9053W        W25900   0.089  11.305   4.989 -0.1699 -0.3418 -0.1836
 9054W        W25901  19.083  13.400  13.373  0.2440  0.1125 -0.0432
 9055W        W25902   5.747   8.201  13.287  0.2587  0.1092  0.2169
 9056W        W25903  17.616   8.251   1.564  0.0301 -0.2407 -0.0057
 9057W        W25904  14.030  19.736   1.335 -0.1105 -0.3442 -0.3425
 9058W        W25905  14.405  12.516   1.891  0.1751  0.0618 -0.1431
 9059W        W25906   6.621   4.965   2.371 -0.0809  0.3752  0.0577
 9060W        W25907  18.093   0.774  11.183 -0.0091 -0.3280  0.0942
 9061W        W25908  12.398   3.074  11.959 -0.0717 -0.1678  0.4105
 9062W        W25909   2.135  19.613  12.092  0.3323  0.2239  0.2782
 9063W        W25910  15.814  10.821   4.750  0.2314  0.2601  0.0589
 9064W        W25911   4.949   3.815   4.258 -0.2299  0.0626 -0.2650
 9065W        W25912   6.758   4.733   1.904 -0.0294  0.5210  0.0691
 9066W        W25913  10.330   3.144   3.584 -0.1484 -0.0055  0.0331
 9067W        W25914   0.282  15.708   3.215  0.0547 -0.2706  0.2946
 9068W        W25915   9.840  15.783   2.302  0.0731  0.1487  0.0175
 9069W        W25916  15.964   5.504   4.357  0.0359 -0.2708 -0.1372
 9070W        W25917   1.847   9.934   0.172  0.0335 -0.0962  0.0384
 9071W        W25918  12.122   1.126  11.588  0.1172 -0.0037  0.0468
 9072W        W25919  17.417  16.490   3.972  0.2682 -0.0822 -0.0227
 9073W        W25920   3.801  17.802  10.741  0.1169  0.1596 -0.0442
 9074W        W25921  10.150  19.498  11.535 -0.2023  0.1059 -0.2893
 9075W        W25922  13.708  10.243   3.303 -0.0801 -0.1896 -0.0785
 9076W        W25923  13.782   7.607  13.060  0.0163 -0.1290 -0.0295
 9077W        W25924  17.299  13.557  12.016 -0.1137 -0.0921 -0.1007
 9078W        W25925   8.200   5.444   4.445 -0.1971 -0.0835 -0.0106
 9079W        W25926   7.991   5.281  13.156  0.1920 -0.2144 -0.1297
 9080W        W25927  13.804  14.426   1.701  0.1132  0.1542 -0.1090
 9081W        W25928  12.630   8.510   3.735 -0.0060 -0.0322 -0.4795
 9082W        W25929  13.837   6.026   1.100  0.0790  0.2043  0.1987
 9083W        W25930   2.890  18.041   4.891  0.3548  0.0605 -0.1508
 9084W        W25931  16.832  16.620   3.985  0.4446 -0.2051  0.2143
 9085W        W25932  19.743  18.017   0.979  0.0850 -0.1108 -0.3899
 9086W        W25933   9.310   9.594   4.025  0.2480  0.1799 -0.3437
 9087W        W25934  10.056   6.908   1.696 -0.1756  0.0450 -0.0612
 9088W        W25935   7.353   6.012  10.995  0.0502  0.0810  0.1335
 9089W        W25936   9.056  13.977   9.367 -0.2860  0.0231  0.0553
 9090W        W25937   9.387  17.898  13.455  0.1983 -0.3087  0.0556
 9091W        W25938  14.346  14.859  12.875 -0.1095  0.2051 -0.1674
 9092W        W25939   6.563  19.300   4.129 -0.0741 -0.1112  0.3255
 9093W        W25940   9.201   2.172  14.157  0.2141  0.3080 -0.5293
 9094W        W25941   7.435  14.795   4.257 -0.1965  0.1168 -0.0610
 9095W        W25942  13.824   4.291   2.665  0.3429  0.1108 -0.1311
 9096W        W25943   4.684   0.223   1.570  0.1014 -0.1795  0.1142
 9097W        W25944  15.375  18.622   2.877 -0.3656  0.0907  0.1592
 9098W        W25945  13.824   1.149  14.169  0.1345 -0.0298 -0.0424
 9099W        W25946  10.314  16.402   3.466  0.1101 -0.0375  0.2183
 9100W        W25947   3.166   1.376   1.614 -0.1456  0.1298  0.1974
 9101W        W25948   6.005  12.001   5.546  0.0801  0.0491 -0.0546
 9102W        W25949  19.116  12.451  11.172 -0.1491  0.1687  0.0858
 9103W        W25950   2.213  19.098  11.995 -0.1284  0.4127  0.0246
 9104W        W25951  11.121   7.384   3.626  0.0109 -0.0159 -0.0153
 9105W        W25952   1.957   8.302   1.756 -0.4436 -0.4400  0.2316
 9106W        W25953   6.260   5.598   2.506  0.1033  0.0044  0.1306
 9107W        W25954  17.381  10.761  12.309 -0.0769  0.0640 -0.1529
 9108W        W25955   9.953   3.887   2.547  0.2259  0.3234  0.1597
 9109W        W25956  14.642   9.214  10.899  0.0635  0.0220  0.1243
 9110W        W25957  13.263   8.949   3.696 -0.0095  0.2160 -0.1724
 9111W        W25958   9.596   2.053   4.246 -0.0195  0.0329  0.2382
 9112W        W25959  17.213   0.551   3.169 -0.0838  0.3114 -0.1443
 9113W        W25960   8.340  15.302  12.772  0.0269 -0.2243  0.0185
 9114W        W25961   9.144   8.286  11.294  0.1659  0.3258 -0.0434
 9115W        W25962   8.762   4.520  13.932 -0.1243  0.0502  0.0507
 9116W        W25963  16.842   9.249   3.335 -0.2673  0.3282 -0.1008
 9117W        W25964   6.685  16.566  12.389 -0.0089 -0.1372 -0.1279
 9118W        W25965   5.034   4.220  12.068  0.1045  0.1975 -0.0249
 9119W        W25966   3.447   8.350  11.291 -0.1270  0.1267 -0.2780
 9120W        W25967   7.404   6.238   5.180  0.0080 -0.0918  0.4155
 9121W        W25968   1.932  12.730  11.064 -0.1189  0.1988  0.3537
 9122W        W25969  13.408  18.780  13.064 -0.4591 -0.3083  0.1420
 9123W        W25970   4.056   4.389   0.151 -0.2612 -0.0574  0.0582
 9124W        W25971   9.526  12.078  13.610 -0.0341 -0.1508 -0.0028
 9125W        W25972  18.153   2.263   0.142 -0.2383 -0.1523 -0.2552
 9126W        W25973   2.592  14.722   2.229 -0.0212 -0.0511 -0.2330
 9127W        W25974  12.668  17.651   4.424  0.0703 -0.1492 -0.2498
 9128W        W25975   4.546   3.275  13.777  0.2626  0.3072 -0.1494
 9129W        W25976   4.950   6.445   2.498 -0.1797 -0.4113 -0.1942
 9130W        W25977   4.594   6.523   3.287 -0.0117  0.1832 -0.0654
 9131W        W25978   5.519  11.620  13.660  0.1268 -0.0015  0.5397
 9132W        W25979  18.464  16.315  13.489  0.1937 -0.0038  0.1258
 9133W        W25980  18.589  13.197  13.391  0.1435 -0.0685 -0.3419
 9134W        W25981   9.242   3.018  11.018  0.1017  0.1661  0.2211
 9135W        W25982  13.713   4.011   4.057  0.0779  0.1333  0.0489
 9136W        W25983   2.689  11.574   4.284  0.0031 -0.1560 -0.4091
 9137W        W25984  10.424  18.668  10.821  0.0350  0.2541  0.2334
 9138W        W25985  15.366   1.740  14.333  0.2936 -0.1259  0.1578
 9139W        W25986  10.014  17.043  14.208 -0.0678  0.1038 -0.1489
 9140W        W25987   3.275  16.009  13.781  0.0690  0.4419  0.0324
 9141W        W25988   5.153  19.787   0.255  0.1358  0.0873 -0.0556
 9142W        W25989   6.531   9.425  11.359  0.0139 -0.2683 -0.3775
 9143W        W25990  10.280  15.445  11.320 -0.2339 -0.4270  0.1956
 9144W        W25991   3.459   0.867   3.981  0.2969  0.1048  0.0598
 9145W        W25992  18.240  11.004   5.116 -0.0990 -0.1897 -0.0781
 9146W        W25993  17.156   8.009   2.602  0.1571 -0.0268 -0.0588
 9147W        W25994   6.601  17.415   2.190  0.0629  0.0981  0.1372
 9148W        W25995  14.820   8.334   0.564  0.1534 -0.0514 -0.2299
 9149W        W25996  12.794  15.245   1.363  0.0949 -0.0433 -0.1069
 9150W        W25997  14.184  16.661   2.198  0.1660 -0.0816 -0.4649
 9151W        W25998  15.522   8.063  12.816  0.0341  0.0728 -0.3315
 9152W        W25999   6.494  17.752   4.974 -0.1931 -0.0506  0.1836
 9153W        W26000   5.673  15.849  11.105  0.2761  0.3250  0.3736
 9154W        W26001  19.343   2.963   2.295 -0.0443  0.2748 -0.1804
 9155W        W26002  11.989  10.296   4.956 -0.2521  0.1773 -0.4354
 9156W        W26003  17.421  19.639  13.604  0.0408  0.1067  0.0218
 9157W        W26004  10.506   4.188  10.089 -0.1700  0.1507 -0.2580
 9158W        W26005  15.523  15.100   9.023  0.1481  0.1332  0.0099
 9159W        W26006   7.135   3.173  11.250  0.1976 -0.0704 -0.0070
 9160W        W26007  18.870   4.114   2.810  0.1485 -0.3749  0.0555
 9161W        W26008   0.381  14.135   3.146  0.0364 -0.3212  0.1242
 9162W        W26009   8.958   0.234   3.137  0.0212 -0.0012  0.0633
 9163W        W26010   0.321  14.863   3.722  0.1587  0.0037 -0.1109
 9164W        W26011   9.423   8.963   0.947  0.0976 -0.0986  0.1268
 9165W        W26012   9.425  11.093   0.553 -0.0546  0.3697  0.1618
 9166W        W26013  12.121   4.256  14.186 -0.2086  0.2226  0.2618
 9167W        W26014  15.484  19.246   1.147  0.2097 -0.1754  0.0050
 9168W        W26015   1.841   1.954   4.718 -0.1275 -0.2397  0.3558
 9169W        W26016   4.811   2.543   1.232  0.3118 -0.0143 -0.3412
 9170W        W26017  13.956   5.669   1.673 -0.2172  0.0613 -0.4567
 9171W        W26018   0.895   4.788   0.223 -0.0966  0.0467 -0.2325
 9172W        W26019   5.528  18.550   2.143  0.0395  0.2417 -0.1622
 9173W        W26020   0.792  18.731   3.753 -0.2252  0.0024  0.3714
 9174W        W26021  15.007  16.766   3.222 -0.2198 -0.0238 -0.0413
 9175W        W26022  11.054  12.240   1.221 -0.0676 -0.1315  0.4481
 9176W        W26023   4.570  17.716  12.653  0.0321  0.1208  0.0445
 9177W        W26024  11.541  10.539   1.151  0.1321 -0.2239 -0.0801
 9178W        W26025   0.569  13.744   4.585  0.1613 -0.1238 -0.1561
 9179W        W26026  12.282  18.329  13.269  0.0708  0.0277  0.2130
 9180W        W26027   1.871  10.599   5.276 -0.3206 -0.1393  0.0421
 9181W        W26028   7.846  19.751   3.383  0.0693  0.2474  0.0319
 9182W        W26029   7.965  18.708  11.217 -0.1779  0.0887  0.0933
 9183W        W26030   0.443   4.494   0.271  0.1224 -0.0411 -0.2626
 9184W        W26031   2.299   6.347  13.040 -0.0808 -0.0001 -0.2701
 9185W        W26032   0.645  12.987   3.708  0.0939 -0.2180 -0.0665
 9186W        W26033   3.640   5.699  12.218  0.1749  0.5383  0.1625
 9187W        W26034   0.888   3.173   1.620 -0.3521  0.1570  0.2540
 9188W        W26035   2.192   7.375   4.619 -0.1304  0.0268  0.3440
 9189W        W26036  11.821  12.958   3.226  0.1074 -0.1282  0.3804
 9190W        W26037  15.301  12.607   3.985  0.2134 -0.0651  0.1282
 9191W        W26038   2.793  12.563  11.166  0.1635  0.3222  0.2815
 9192W        W26039   7.905   0.930  14.217  0.0330  0.0984  0.0742
 9193W        W26040  17.391   7.287  12.744  0.0903 -0.0565  0.1041
 9194W        W26041  16.423  13.323  13.483 -0.1655 -0.1905 -0.2750
 9195W        W26042   8.802  10.298  14.185 -0.0381 -0.0180 -0.0076
 9196W        W26043   1.954   8.986  13.284 -0.4190  0.3474 -0.2915
 9197W        W26044   5.033   3.435   0.433 -0.2517 -0.1589 -0.2623
 9198W        W26045  12.594   8.840  11.175 -0.2936 -0.1145 -0.1351
 9199W        W26046   6.703  13.876  10.746 -0.3741  0.0438  0.0154
 9200W        W26047  11.889  11.267   2.339  0.1862  0.0085  0.0449
 9201W        W26048   1.968  13.074  13.516  0.2854  0.1242 -0.3814
 9202W        W26049   1.361  18.548  11.196  0.0836  0.1148  0.2102
 9203W        W26050   0.824   6.524   2.884  0.0118  0.0625  0.1211
 9204W        W26051  18.798   7.698   2.858 -0.0727 -0.1112 -0.2989
 9205W        W26052  13.457  16.056   2.160 -0.1913 -0.0845 -0.0019
 9206W        W26053  11.920   4.465  13.760  0.0780 -0.0207  0.0428
 9207W        W26054  13.658   3.158   2.068 -0.1489  0.0388  0.3141
 9208W        W26055  16.294   9.686   1.644 -0.0250 -0.1407  0.1855
 9209W        W26056   5.555   0.958  12.799 -0.0788  0.2601 -0.2811
 9210W        W26057   4.247   7.672  13.145  0.1418  0.1050  0.5183
 9211W        W26058  13.530  17.490   1.034  0.0044  0.6670 -0.1089
 9212W        W26059   9.292  19.179   0.213  0.4106 -0.1190 -0.0451
 9213W        W26060   9.375  17.221  13.520 -0.2689 -0.3397 -0.2276
 9214W        W26061   6.887  10.405  12.667  0.2678  0.2111  0.0977
 9215W        W26062  13.357   5.449  11.848 -0.1151 -0.0564 -0.1229
 9216W        W26063  11.531   7.639   4.356  0.3158 -0.0470 -0.0014
 9217W        W26064  18.418  16.736  11.785 -0.0689  0.0959  0.1005
 9218W        W26065  10.804  18.621   4.007  0.2116 -0.2021  0.1367
 9219W        W26066  14.174  18.664   2.189 -0.0284  0.0495  0.1468
 9220W        W26067   7.903   1.053  12.192 -0.2492  0.1765  0.0707
 9221W        W26068   2.923   3.086   4.735  0.3370  0.0370 -0.0249
 9222W        W26069   6.214  12.428   0.892  0.0369  0.0815 -0.1600
 9223W        W26070  15.130  15.649  11.880 -0.2234 -0.0232 -0.0311
 9224W        W26071  14.702   7.666   4.281 -0.1248 -0.1114 -0.1836
 9225W        W26072  11.694   8.749   2.263  0.3333  0.4526  0.1926
 9226W        W26073  14.545   0.938   0.895  0.4306  0.1173 -0.0187
 9227W        W26074  11.120   9.359   2.099 -0.2008  0.0966 -0.0043
 9228W        W26075   3.560   6.969   0.086 -0.0806  0.1545 -0.3503
 9229W        W26076  15.307  17.382   1.059  0.1110 -0.0696  0.0158
 9230W        W26077   1.640   3.388   2.501  0.0388 -0.3162 -0.4273
 9231W        W26078   2.515  18.998  11.497 -0.2469 -0.3022 -0.2547
 9232W        W26079  14.326   2.287  11.407  0.2237 -0.5395  0.0964
 9233W        W26080   2.209   8.350   5.284  0.2550  0.3389 -0.0396
 9234W        W26081  12.054  15.429   0.566  0.1313 -0.1877  0.0881
 9235W        W26082  17.846   7.427  12.988  0.1986 -0.3079  0.2517
 9236W        W26083   3.359   0.452   2.700  0.2216 -0.2537  0.1745
 9237W        W26084   1.475   1.574  12.286 -0.1291  0.2877  0.1536
 9238W        W26085  10.768  12.494  12.930 -0.0098 -0.1737  0.0486
 9239W        W26086   2.624   1.748   2.788 -0.0982 -0.1199 -0.7433
 9240W        W26087   1.471   4.633   0.570  0.1380  0.0331 -0.1664
 9241W        W26088   5.817  19.484   4.446  0.2190  0.1414  0.0134
 9242W        W26089   8.339  13.221   1.204 -0.1072 -0.1122  0.1192
 9243W        W26090   1.900  16.606  11.025 -0.0509  0.0433 -0.1160
 9244W        W26091   2.038   6.725   2.319 -0.1711  0.2717 -0.0919
 9245W        W26092  10.176   1.436  10.382  0.1811  0.0018  0.1790
 9246W        W26093  17.549   1.099  12.427 -0.0484 -0.1343 -0.2439
 9247W        W26094  13.356   6.497  10.230  0.1862 -0.4386  0.0269
 9248W        W26095  12.974  16.360  12.251 -0.0540 -0.0166 -0.2442
 9249W        W26096   7.022  12.446   0.098 -0.3293  0.1297  0.1545
 9250W        W26097  13.755  16.856   3.096  0.0240 -0.4396 -0.1127
 9251W        W26098   8.155   2.585   3.765 -0.0757 -0.3722  0.1500
 9252W        W26099   8.626   7.830   0.270 -0.3780  0.0368  0.1049
 9253W        W26100  17.063   0.397   0.644  0.0436 -0.0100  0.0163
 9254W        W26101   5.500  11.423  11.390  0.0136 -0.2499 -0.3052
 9255W        W26102  13.803  18.678   5.178 -0.2847  0.0713  0.2971
 9256W        W26103   9.599  17.123  14.008  0.1500  0.0233  0.0525
 9257W        W26104   2.777  18.382   2.511 -0.3048  0.2874  0.0540
 9258W        W26105  16.061  18.125   3.624  0.3579 -0.0537  0.3391
 9259W        W26106   2.522   3.638  11.654  0.2392 -0.0013  0.2061
 9260W        W26107   2.591   0.364   1.008 -0.1996  0.2885 -0.1172
 9261W        W26108  12.536   8.939   3.974  0.0252 -0.0167  0.1092
 9262W        W26109  11.290  18.990   2.890  0.0902  0.1404  0.1510
 9263W        W26110   7.603  12.483  13.903 -0.2272 -0.2169 -0.0372
 9264W        W26111  11.721  16.181   2.674 -0.0577  0.0603 -0.1430
 9265W        W26112  10.548   9.825   4.136 -0.0480  0.2526 -0.1524
 9266W        W26113   7.454  12.507   0.605  0.0278 -0.1292  0.0437
 9267W        W26114   9.569  17.755   1.358  0.1441 -0.0346  0.0919
 9268W        W26115  18.304   9.525  10.561 -0.0106  0.0200  0.1014
 9269W        W26116  16.796  15.302   4.619  0.0205  0.1703  0.0540
 9270W        W26117  17.437  18.561   2.702 -0.1435 -0.1215  0.1628
 9271W        W26118  19.724  13.319   3.904  0.1037 -0.1537  0.0867
 9272W        W26119   2.844  12.423   4.039 -0.1743  0.2231  0.0459
 9273W        W26120  18.767   0.326  10.967 -0.2040  0.2165 -0.0666
 9274W        W26121  15.469  17.326  11.665 -0.2562  0.1379  0.1158
 9275W        W26122  19.565   0.810  11.009 -0.2142 -0.3216  0.0752
 9276W        W26123   6.674  16.058  12.532 -0.1438  0.0602  0.0519
 9277W        W26124   0.582  12.117  13.582 -0.2102  0.0229  0.0386
 9278W        W26125   7.581  10.286   2.359 -0.1906 -0.0370 -0.2205
 9279W        W26126   4.169  11.139   0.593 -0.0961  0.0172 -0.1260
 9280W        W26127  12.408   4.449  10.812  0.0498 -0.2088  0.0127
 9281W        W26128   5.634   6.204   1.262 -0.2261  0.2449 -0.1738
 9282W        W26129  17.193   5.820  12.333  0.0770  0.1964  0.0807
 9283W        W26130  17.101  11.929  11.254  0.2916  0.0036 -0.3905
 9284W        W26131   6.810   8.150  12.358 -0.0794 -0.0576 -0.2746
 9285W        W26132  16.497  18.613  13.908 -0.0421  0.0882  0.2540
 9286W        W26133  18.217   4.626   3.920  0.0927  0.3470 -0.1756
 9287W        W26134   1.430  16.479   0.516  0.1420 -0.2564 -0.0601
 9288W        W26135   0.188  11.144   1.147  0.4239  0.3084  0.2462
 9289W        W26136  10.060   9.292   4.697 -0.1120  0.2146  0.1520
 9290W        W26137   1.677   4.564  13.114 -0.3614 -0.2630 -0.3267
 9291W        W26138  15.608   3.965   1.270  0.0211 -0.0129  0.2708
 9292W        W26139  10.199   0.862  14.025 -0.1450 -0.0812  0.3326
 9293W        W26140   1.713  11.074   5.117 -0.0640 -0.1450 -0.2377
 9294W        W26141   4.105   5.602   3.222 -0.2194  0.1147  0.2455
 9295W        W26142   8.319   9.779  10.183  0.0196  0.1113 -0.2935
 9296W        W26143   0.317  18.720   2.150  0.1452 -0.2817 -0.1283
 9297W        W26144   8.207  11.672   3.902  0.1911 -0.0304  0.1223
 9298W        W26145  15.106   6.057   2.371 -0.1182  0.0222  0.2389
 9299W        W26146  12.375   0.623  10.240 -0.3105  0.0765 -0.1477
 9300W        W26147   2.856  11.405   5.019  0.3039  0.0835  0.0614
 9301W        W26148  13.730   1.933  11.594 -0.1930  0.0686  0.0332
 9302W        W26149  12.089  14.674  10.897  0.0583 -0.1545  0.0233
 9303W        W26150   0.315  13.836   4.136  0.1845 -0.0763  0.0555
 9304W        W26151   3.346  14.457   1.750 -0.1444  0.0312 -0.2185
 9305W        W26152   1.910  16.341  14.198  0.0878  0.1045  0.1455
 9306W        W26153  17.402  18.641  14.066 -0.1204 -0.0842 -0.0844
 9307W        W26154  11.686  10.005   3.527 -0.0010 -0.0422  0.1081
 9308W        W26155  10.154  12.515   0.399  0.1665  0.0572  0.1329
 9309W        W26156   9.318  19.121  10.076 -0.2907  0.0062 -0.1100
 9310W        W26157   3.551  13.943   5.326 -0.1252  0.1846 -0.0407
 9311W        W26158  12.461  18.704   1.998 -0.0377 -0.0766  0.1816
 9312W        W26159  19.593  12.746   3.136  0.0096  0.2158 -0.0370
 9313W        W26160  18.232   0.850  12.547 -0.3497  0.2562 -0.3644
 9314W        W26161   0.167  18.083   3.304  0.0931  0.0016 -0.0499
 9315W        W26162   7.882  19.161  12.623  0.1584  0.0780  0.4369
 9316W        W26163   9.348  18.303  14.011 -0.0788  0.0787  0.0572
 9317W        W26164  13.053  18.952  14.316  0.4294 -0.2500  0.1438
 9318W        W26165   6.434  16.745   4.128 -0.1308 -0.2980 -0.1629
 9319W        W26166   4.932   8.129   3.492 -0.0647 -0.2070  0.0245
 9320W        W26167  11.554   4.667  11.848  0.0849 -0.2243 -0.1091
 9321W        W26168  18.939   3.759   3.736  0.1172 -0.0693  0.0053
 9322W        W26169   1.203   5.067   0.638  0.0292  0.0653  0.1964
 9323W        W26170  17.856   3.315   4.378 -0.2504  0.1619  0.0212
 9324W        W26171  17.998   8.412  11.635  0.0685 -0.1133  0.1645
 9325W        W26172   3.963   2.855   1.871 -0.0626 -0.0096  0.0240
 9326W        W26173  10.881   9.817   3.738 -0.0908  0.0322  0.3472
 9327W        W26174  17.819  10.921   1.089 -0.4314 -0.0753  0.0581
 9328W        W26175   5.227  13.613   4.626 -0.1224 -0.0900  0.1630
 9329W        W26176  12.432  11.432  12.694  0.4253 -0.0557 -0.1443
 9330W        W26177   9.749  14.512  14.292 -0.3440  0.0015  0.1802
 9331W        W26178  11.020   2.730  10.051  0.6124  0.0037  0.0546
 9332W        W26179   4.017   8.862  10.881  0.3970  0.0878 -0.2280
 9333W        W26180   3.418  11.296   2.880  0.0270  0.0037  0.1213
 9334W        W26181  12.749   8.607   9.475  0.3118 -0.2255  0.1323
 9335W        W26182  17.079   3.797   1.332  0.1169  0.0188  0.1353
 9336W        W26183   0.051   1.495  12.972  0.0762 -0.1488 -0.0254
 9337W        W26184  12.899  14.722  13.190  0.0006  0.0529  0.0034
 9338W        W26185   9.576  18.744  10.286 -0.1095 -0.0175 -0.0052
 9339W        W26186  19.040  12.960   0.293 -0.1050  0.3116 -0.0022
 9340W        W26187  19.104  19.045  11.911 -0.1468 -0.0692  0.2493
 9341W        W26188   5.644   1.363  13.744  0.2146 -0.1220 -0.0813
 9342W        W26189  10.662  13.240  10.102 -0.1502  0.0305 -0.1079
 9343W        W26190   1.847  18.986  10.515  0.1236 -0.0571 -0.0697
 9344W        W26191   5.672  10.637   4.960  0.2518 -0.2456 -0.1094
 9345W        W26192   4.692  19.209   4.665 -0.2417  0.1622 -0.0305
 9346W        W26193   9.903  10.503   3.161  0.3018 -0.0107 -0.1740
 9347W        W26194   7.700   2.492   2.962  0.0714 -0.0634  0.2010
 9348W        W26195  13.692   2.339   3.260  0.1427 -0.1571 -0.1900
 9349W        W26196   8.424   3.216  10.455  0.3698 -0.1424 -0.0073
 9350W        W26197  16.015  14.580   3.255  0.0224  0.2182  0.0536
 9351W        W26198  16.897   4.422   4.475  0.3103 -0.1612 -0.1376
 9352W        W26199   5.317  14.485  11.496 -0.1782  0.1231  0.0344
 9353W        W26200  16.788   5.052   3.326  0.0719 -0.0246 -0.2059
 9354W        W26201  12.133  14.171  13.633 -0.3295  0.1473 -0.1071
 9355W        W26202   7.760  14.715  11.432  0.0138 -0.0708  0.0541
 9356W        W26203  15.627   8.741   0.932 -0.2168 -0.4240  0.0229
 9357W        W26204  18.036   9.269  12.204 -0.2719  0.0461  0.5099
 9358W        W26205   0.404   8.798   0.153 -0.1195 -0.0723 -0.0964
 9359W        W26206   7.291   1.640   9.913  0.0122  0.0929 -0.1187
 9360W        W26207   9.088   5.195   4.734  0.3290 -0.1254 -0.0400
 9361W        W26208   4.194   0.993   4.538  0.1317 -0.1933  0.3393
 9362W        W26209   8.234  18.233  11.625 -0.0188  0.2617  0.1039
 9363W        W26210   2.537   8.039   2.339 -0.0801 -0.1562 -0.2976
 9364W        W26211   0.239   9.925  11.025  0.3245 -0.0054  0.3664
 9365W        W26212   6.952   3.870   3.436  0.3232  0.1150  0.0855
 9366W        W26213   3.533   6.278   3.828 -0.0549  0.3702  0.2180
 9367W        W26214   6.050  15.338   0.769 -0.0352 -0.2870 -0.2783
 9368W        W26215  17.306  19.408   4.004 -0.0058 -0.2559 -0.3080
 9369W        W26216   5.608  15.306   3.853 -0.0321  0.2425  0.1645
 9370W        W26217  18.807  16.823   3.820  0.1140  0.3535  0.0666
 9371W        W26218  19.509   6.988   0.907 -0.2950  0.0832 -0.4004
 9372W        W26219  13.345   2.456   0.673 -0.1065 -0.1566  0.0821
 9373W        W26220  18.305  13.132  10.512  0.4759 -0.1793  0.2641
 9374W        W26221   8.631  12.009   3.837  0.0100 -0.1212 -0.0631
 9375W        W26222  17.268   9.484  10.367  0.1898  0.0466  0.1976
 9376W        W26223  19.785   6.041  13.158  0.3966 -0.2160 -0.2309
 9377W        W26224   4.942  15.275   1.453  0.1671  0.0313  0.1870
 9378W        W26225   4.196  11.348   4.611 -0.3474  0.0426  0.0836
 9379W        W26226   6.732   6.542   2.221  0.2553 -0.3469  0.1834
 9380W        W26227   6.521   8.431  14.208  0.1150 -0.1096 -0.0890
 9381W        W26228  16.127   2.167   2.631  0.1078  0.3303 -0.3162
 9382W        W26229  11.711   2.438   0.712  0.0065 -0.3380 -0.1530
 9383W        W26230  13.418   8.574  11.536 -0.2426 -0.0617  0.1398
 9384W        W26231   4.726   1.908   0.594 -0.3683  0.1569  0.0608
 9385W        W26232  19.343   8.228   9.522 -0.0373  0.0624  0.0426
 9386W        W26233  12.863   1.265  13.870 -0.4738 -0.0277 -0.2317
 9387W        W26234  12.182   1.983   9.716  0.1137 -0.0726 -0.4635
 9388W        W26235  18.566   4.515  12.624  0.1429 -0.3236  0.1220
 9389W        W26236  18.083  10.329   0.709 -0.0487  0.1472 -0.1157
 9390W        W26237   2.426  13.599  12.703 -0.2379  0.1151 -0.3031
 9391W        W26238  10.447  12.242   5.232  0.2546  0.2771  0.0252
 9392W        W26239  13.991   1.460  12.510  0.0077 -0.1737  0.0761
 9393W        W26240   7.127   4.887   4.987  0.1449 -0.5261 -0.0559
 9394W        W26241  13.765   1.812  13.759 -0.4299 -0.0689  0.0886
 9395W        W26242   4.894  11.829   0.156  0.1855  0.0779  0.0279
 9396W        W26243   1.743   6.828   3.013  0.2019 -0.1891 -0.1172
 9397W        W26244   2.943   2.779   9.791 -0.0254 -0.0362 -0.0605
 9398W        W26245  14.791   5.476  11.588 -0.1080 -0.1513  0.2314
 9399W        W26246   9.326   0.611  11.225  0.1759 -0.1424 -0.5968
 9400W        W26247  17.330   8.446  10.932 -0.2366 -0.2295  0.0674
 9401W        W26248   8.729  10.341  12.196  0.1939  0.3691  0.0470
 9402W        W26249  18.779  19.521   5.022 -0.2737  0.3522  0.0823
 9403W        W26250   7.656   0.710  10.267  0.3642 -0.4442 -0.2638
 9404W        W26251  16.136  11.350   3.407 -0.2644  0.2724  0.0115
 9405W        W26252  14.771   7.694  12.157 -0.1580  0.1331 -0.2678
 9406W        W26253   1.327   8.862   3.404  0.1350 -0.1157 -0.0243
 9407W        W26254   5.419   9.126   4.569 -0.3179  0.2980 -0.2748
 9408W        W26255  13.918  18.214   1.252  0.2483 -0.4150  0.0045
 9409W        W26256   8.480  15.977  12.284  0.2646  0.3357 -0.0877
 9410W        W26257   6.844  12.863  12.504  0.1676 -0.1864 -0.0472
 9411W        W26258   3.597  10.882   2.209 -0.1321  0.2860 -0.2537
 9412W        W26259  16.738   8.601  10.225  0.1226  0.1314 -0.1288
 9413W        W26260   2.791   6.170   2.585 -0.1264  0.0264 -0.0680
 9414W        W26261   1.835  10.225  12.146  0.0476  0.0772  0.1423
 9415W        W26262   7.114  19.014   2.204  0.0976 -0.0530  0.3144
 9416W        W26263   3.899  13.599  13.967  0.3486 -0.0048 -0.0042
 9417W        W26264   5.456  10.690  14.095  0.1250  0.1672  0.4934
 9418W        W26265  16.488  13.543   1.745  0.0190  0.3710 -0.1105
 9419W        W26266   2.901  17.296   4.840  0.0343 -0.0076  0.2310
 9420W        W26267   8.675   8.829   1.690 -0.2093  0.2484  0.2469
 9421W        W26268  14.006  10.500  13.218 -0.0226 -0.0902 -0.0098
 9422W        W26269   2.708   4.616   4.290  0.2194  0.1070 -0.2257
 9423W        W26270  14.378  18.691   9.972 -0.0423 -0.0541 -0.2298
 9424W        W26271   6.318  17.721  12.611  0.0141  0.0785 -0.1102
 9425W        W26272   3.571  15.882   4.154 -0.3485  0.1107  0.0748
 9426W        W26273   0.909   1.341   2.832 -0.0687  0.1089 -0.3215
 9427W        W26274   0.369   7.201   1.413  0.1471  0.1444  0.0949
 9428W        W26275  19.768   5.633   2.107 -0.2310 -0.0044 -0.0422
 9429W        W26276  14.854   5.535  14.136  0.3428  0.1574 -0.2620
 9430W        W26277  17.353  16.427   1.090 -0.0494 -0.0934  0.0460
 9431W        W26278  18.946  17.476   1.401 -0.0154  0.0723 -0.0276
 9432W        W26279  13.342  18.912  11.551  0.0015 -0.7779 -0.0109
 9433W        W26280  12.130  12.400  11.775  0.0502  0.1213  0.1087
 9434W        W26281   5.692  18.835  10.828  0.1857  0.0436 -0.4269
 9435W        W26282  17.730  16.609   1.538 -0.1251  0.1397 -0.1233
 9436W        W26283   3.861  17.483   2.235  0.2726  0.0554  0.1581
 9437W        W26284   3.414  10.051  13.111  0.2773 -0.0628 -0.1759
 9438W        W26285  15.980  17.030   2.998  0.0508 -0.0503 -0.0503
 9439W        W26286   9.569   0.369   3.060 -0.2514  0.5774  0.3761
 9440W        W26287  15.692  11.126  11.653  0.0900 -0.1353  0.1065
 9441W        W26288   9.667   1.502   4.314  0.0209 -0.1284  0.1198
 9442W        W26289   2.688   3.396   1.889  0.0585  0.3367 -0.1247
 9443W        W26290   9.365   0.689  10.051 -0.2437  0.1440  0.1384
 9444W        W26291   9.422   6.158   2.842 -0.0281 -0.0820  0.1843
 9445W        W26292   6.736  15.421   2.844 -0.1936 -0.0176 -0.0492
 9446W        W26293  14.964   6.000  10.391 -0.1945  0.1862  0.3279
 9447W        W26294   1.631  14.885  13.190  0.1859 -0.2239 -0.0117
 9448W        W26295   4.228  10.332   0.964 -0.0147 -0.2281  0.1831
 9449W        W26296   8.976  13.194   4.153 -0.1069  0.1568  0.2076
 9450W        W26297  10.350  14.634  10.512  0.1248 -0.1538  0.3514
 9451W        W26298   5.511  16.341  13.640  0.0489 -0.3068 -0.0513
 9452W        W26299  14.103  17.074  13.745 -0.0514 -0.0677  0.0228
 9453W        W26300   5.743   4.394   3.907  0.1747 -0.0921 -0.2082
 9454W        W26301  18.510  11.636  12.372 -0.1154  0.0964 -0.1384
 9455W        W26302   2.387   0.107   4.448 -0.0663 -0.1949 -0.0730
 9456W        W26303  11.062  17.697   9.584  0.0359  0.1379  0.1503
 9457W        W26304  10.297  16.316   0.657 -0.3997  0.0507  0.0773
 9458W        W26305   0.819   2.750  14.053  0.1447  0.1836  0.2855
 9459W        W26306  18.611   2.349  10.647 -0.0829  0.0022 -0.0063
 9460W        W26307   3.139   5.223   1.774 -0.0143 -0.0354  0.0001
 9461W        W26308  11.907  17.630   4.099  0.0465  0.0249 -0.1508
 9462W        W26309  11.547   3.581   2.076 -0.4213  0.1661 -0.2128
 9463W        W26310   2.395   8.502   2.623 -0.0151 -0.2235 -0.0003
 9464W        W26311   4.386  16.916   0.028  0.1516  0.1444 -0.0395
 9465W        W26312  12.900   5.508   1.852  0.2035 -0.3229 -0.2083
 9466W        W26313  16.703   7.235  13.986  0.2109 -0.1650 -0.1304
 9467W        W26314  18.571  10.179   0.613  0.2131  0.0635  0.0422
 9468W        W26315   8.992   1.582   4.752  0.2871  0.3317  0.1664
 9469W        W26316  12.809  19.852  13.719  0.0770 -0.3887  0.1384
 9470W        W26317  19.428   8.194   1.843 -0.0886 -0.0944  0.2463
 9471W        W26318   1.615   6.946   2.403 -0.0067  0.0383 -0.0082
 9472W        W26319  12.134   8.360   4.546  0.1397 -0.2151  0.0457
 9473W        W26320  16.798  18.596   0.483  0.0443 -0.1162 -0.0685
 9474W        W26321  18.866  16.925   1.081 -0.2511  0.0650  0.0015
 9475W        W26322   5.368   3.145  13.251  0.1874 -0.1596 -0.1289
 9476W        W26323  11.419   8.182  11.592  0.0953 -0.0251  0.0675
 9477W        W26324  16.964  11.383  11.476 -0.1436 -0.1066 -0.1201
 9478W        W26325   9.739   7.554   4.856  0.3149 -0.1884  0.2090
 9479W        W26326  18.983  11.582   4.630 -0.0991  0.1979 -0.1540
 9480W        W26327   5.515  15.539   9.432  0.4090 -0.0514  0.2724
 9481W        W26328   5.781  13.964   1.922  0.1750  0.1336 -0.1559
 9482W        W26329   0.817   2.246  14.091 -0.0414 -0.2269  0.2517
 9483W        W26330  15.886   7.259   2.794 -0.1911  0.1822 -0.2589
 9484W        W26331   0.470  14.118  13.797 -0.5502 -0.2571 -0.0541
 9485W        W26332   5.676  15.594   0.402  0.1653  0.1498  0.0039
 9486W        W26333  12.479   2.355   1.903  0.1942  0.4136 -0.1007
 9487W        W26334   5.721  11.907  11.753  0.0552 -0.0584  0.2150
 9488W        W26335   5.633  16.652  10.350  0.1693 -0.1188 -0.1173
 9489W        W26336   9.738   2.901   1.383  0.0226  0.3486  0.1952
 9490W        W26337  10.080  15.666   5.568  0.2245 -0.3482  0.1222
 9491W        W26338  11.444   7.378  10.488  0.0419 -0.1680 -0.2676
 9492W        W26339   3.931   6.914  12.508  0.2544  0.0659  0.1670
 9493W        W26340  13.863  11.126  13.042 -0.2275  0.1123 -0.0477
 9494W        W26341  14.909   9.747   2.612  0.1816 -0.2531 -0.0479
 9495W        W26342   9.556   1.016  10.496 -0.2304  0.1699 -0.4408
 9496W        W26343  19.344   6.054   0.147 -0.2125  0.0859  0.0884
 9497W        W26344  18.560  16.323   2.499  0.0313  0.0320  0.1766
 9498W        W26345  16.228  10.743   4.334  0.1802 -0.0449 -0.2382
 9499W        W26346  18.956   0.805  10.055  0.1327  0.1017 -0.1380
 9500W        W26347   2.574  17.482   2.324 -0.1391 -0.1177 -0.0442
 9501W        W26348  16.926   5.197  13.810  0.4011  0.4235 -0.0275
 9502W        W26349  18.695  11.880  13.991 -0.1475 -0.0324  0.0128
 9503W        W26350   3.367  13.608  11.164  0.3007 -0.1997  0.1695
 9504W        W26351   4.033  14.743  12.701 -0.1211  0.2033 -0.1321
 9505W        W26352  12.299  13.697  13.377 -0.1877  0.0750 -0.1490
 9506W        W26353   1.430   2.752   3.169  0.1383 -0.2005  0.1222
 9507W        W26354   5.457   3.638   2.639 -0.0938  0.2874 -0.2149
 9508W        W26355  16.846   5.749   3.791  0.1888  0.2128  0.1332
 9509W        W26356   8.780   9.970  11.306  0.2448 -0.2019 -0.0074
 9510W        W26357  13.346  17.789   2.584 -0.3288  0.0106 -0.0599
 9511W        W26358   0.165   9.291   4.028  0.2356 -0.1329 -0.1896
 9512W        W26359  14.378  19.343   1.692 -0.2131 -0.0592 -0.0262
 9513W        W26360  12.815  11.857   3.520 -0.1824 -0.1351 -0.1750
 9514W        W26361   2.393  18.084   1.607  0.1628 -0.1583  0.0928
 9515W        W26362  17.143   0.017  13.185 -0.2572 -0.1104 -0.1018
 9516W        W26363  18.249   6.323   1.742  0.2244 -0.0112  0.0207
 9517W        W26364   9.142  10.976  10.587  0.2239  0.0271  0.1228
 9518W        W26365   4.310   9.719   2.935  0.1081 -0.0431 -0.2096
 9519W        W26366  14.536  14.217   1.053  0.4756 -0.0386  0.0239
 9520W        W26367   7.350   0.064  13.450  0.2725  0.1114 -0.3897
 9521W        W26368   6.818  14.609  11.452 -0.2384 -0.1209 -0.1193
 9522W        W26369   8.651   6.519   2.007 -0.1522 -0.1436 -0.0073
 9523W        W26370  11.140  12.793   1.879 -0.0696 -0.0027 -0.1024
 9524W        W26371  18.889   8.012   3.807  0.4883 -0.3699 -0.2204
 9525W        W26372  11.975   3.855   1.727 -0.0572 -0.4295 -0.0055
 9526W        W26373   4.876  12.767   1.071 -0.1085 -0.1647 -0.1493
 9527W        W26374   2.764   4.070  10.634 -0.3034 -0.1032  0.0521
 9528W        W26375  15.753   9.026  12.118 -0.3752 -0.1080 -0.1448
 9529W        W26376  13.950   6.253   9.105 -0.2018 -0.3005 -0.1570
 9530W        W26377  16.731   0.021   2.764 -0.0564 -0.0119 -0.1850
 9531W        W26378  10.034  15.024  11.175 -0.0922  0.0469  0.2049
 9532W        W26379  17.913   7.139   5.568 -0.1361 -0.0947 -0.1707
 9533W        W26380  17.357  10.657   2.311 -0.2505  0.4841 -0.1302
 9534W        W26381  19.815  16.170   3.054  0.0339  0.0813  0.2446
 9535W        W26382   7.528   6.105  12.827 -0.4309  0.0525 -0.2010
 9536W        W26383   1.800   6.234   2.960 -0.0627  0.0697 -0.1700
 9537W        W26384   7.466   4.966   2.542  0.1033 -0.1623  0.0857
 9538W        W26385   2.057   2.615   2.368  0.1858  0.2496  0.1554
 9539W        W26386  15.747   0.404  14.290  0.0715 -0.4372  0.0397
 9540W        W26387   8.735  17.966  13.325  0.0909  0.0935  0.0375
 9541W        W26388  13.641   6.321   4.628  0.2502 -0.2676 -0.4628
 9542W        W26389   9.445   4.397   3.718 -0.1160  0.0091  0.0160
 9543W        W26390  18.411  11.152   3.002  0.1410 -0.0428 -0.1725
 9544W        W26391  14.325   5.852  13.315  0.0361 -0.3427 -0.1359
 9545W        W26392   2.088   2.209   0.223  0.3814 -0.1632 -0.2161
 9546W        W26393  19.695  14.725  10.995 -0.0300 -0.0561  0.0256
 9547W        W26394  10.477  13.942   4.743  0.1058 -0.0952  0.0771
 9548W        W26395  11.341  19.179  11.393 -0.0946  0.3371  0.0982
 9549W        W26396   4.871   5.708  11.662 -0.0085  0.0964 -0.1892
 9550W        W26397   1.289  16.019  10.503  0.1702  0.1478  0.3039
 9551W        W26398  18.942   4.233  12.774  0.0275  0.1544  0.1926
 9552W        W26399   1.297  10.963  12.970  0.2242 -0.1109 -0.1077
 9553W        W26400   6.916  16.557  11.523  0.1352 -0.3373 -0.0482
 9554W        W26401  13.128   0.483  11.358  0.0280 -0.0354  0.0409
 9555W        W26402  17.113   1.633   1.303 -0.1264 -0.2601 -0.0287
 9556W        W26403  14.638  14.600  10.110  0.1240  0.2818 -0.2839
 9557W        W26404  14.450   6.250  12.550 -0.1397  0.2292 -0.0772
 9558W        W26405  19.030  10.192   0.799  0.2423 -0.3878  0.2497
 9559W        W26406   5.678   1.470   2.274  0.0568  0.0841  0.2389
 9560W        W26407   4.878  10.114   4.036 -0.0107 -0.1916  0.0783
 9561W        W26408  14.461  17.938  13.304 -0.1111 -0.0799 -0.0803
 9562W        W26409   8.941  12.545   0.530 -0.0537  0.0396  0.1769
 9563W        W26410   7.114   0.033   0.352  0.0056 -0.3255  0.0047
 9564W        W26411   1.565  12.763   2.290  0.2439 -0.0234 -0.0833
 9565W        W26412   0.112   5.440  10.706  0.1961 -0.0637 -0.0708
 9566W        W26413  15.630  11.074  12.921  0.1420 -0.4906  0.0323
 9567W        W26414   6.552  13.366  13.600  0.4255  0.0187  0.0125
 9568W        W26415  10.132  14.313  13.689 -0.0422 -0.1980 -0.2729
 9569W        W26416  10.566  10.639   1.821 -0.0790 -0.0547 -0.2307
 9570W        W26417   5.169   5.039   0.236 -0.2902  0.0216 -0.0514
 9571W        W26418  11.028  15.303   0.346  0.1794  0.1139 -0.1090
 9572W        W26419  10.598  16.229  13.955 -0.2272 -0.0457  0.0618
 9573W        W26420   0.652  17.463  10.790 -0.3207  0.0107  0.0857
 9574W        W26421   1.281  18.968   3.580  0.0157 -0.0750 -0.0322
 9575W        W26422  10.944   0.235   2.478  0.0937  0.0977 -0.0349
 9576W        W26423  11.953   8.722   3.178 -0.4355 -0.1409  0.2131
 9577W        W26424  17.395   3.292   4.179  0.0080  0.0342  0.3070
 9578W        W26425  18.893  10.606   3.981 -0.0985 -0.0804 -0.3460
 9579W        W26426   3.513  13.366   1.064 -0.2849  0.5001 -0.0684
 9580W        W26427  15.426  15.432  13.761  0.0748 -0.0006 -0.0413
 9581W        W26428   4.364  14.408  13.900 -0.0987  0.0882  0.3720
 9582W        W26429   0.486   6.417  11.688  0.4051 -0.3652  0.3276
 9583W        W26430   8.988  17.578   4.087 -0.0227 -0.4922  0.2901
 9584W        W26431   0.730  11.398  11.548  0.1769 -0.4002  0.1385
 9585W        W26432   6.390   3.735   9.152 -0.0477 -0.0925 -0.1205
 9586W        W26433   9.285  10.503   4.244 -0.1138 -0.1985 -0.2177
 9587W        W26434   3.340  15.312   1.015  0.1136  0.2703  0.2277
 9588W        W26435  18.261   2.741   9.378  0.1545 -0.4564  0.1433
 9589W        W26436   9.192  18.901  12.358  0.1222 -0.1228  0.1668
 9590W        W26437   9.412   1.358  13.028 -0.0375  0.0856 -0.0016
 9591W        W26438   9.386   8.556   1.563 -0.1913 -0.1912 -0.0900
 9592W        W26439  18.414  10.768  13.303  0.0198  0.1925  0.1554
 9593W        W26440   0.325  15.016  10.711 -0.1182 -0.1000  0.1497
 9594W        W26441  17.534  16.645   5.160 -0.0271 -0.0877  0.1352
 9595W        W26442   1.640  16.473  13.102  0.1747 -0.3923 -0.5446
 9596W        W26443   7.143  14.117   2.402  0.2979  0.0829 -0.0318
 9597W        W26444  10.899  11.619   4.180  0.0148  0.0990 -0.1153
 9598W        W26445   9.724   3.179  11.037 -0.0058 -0.2423  0.1257
 9599W        W26446   0.973  11.771   1.092  0.1281 -0.0427 -0.1496
 9600W        W26447   4.339  18.969  10.486 -0.1777  0.0522 -0.1976
 9601W        W26448   0.032   6.138  11.670 -0.2427  0.1732 -0.0660
 9602W        W26449  18.625   7.253   2.653  0.0551 -0.0303 -0.0015
 9603W        W26450   5.829   2.273  11.502  0.3649 -0.2048  0.0520
 9604W        W26451  14.307  18.636  12.138  0.1188  0.2503  0.1644
 9605W        W26452   0.660  14.558   0.266  0.0511  0.1229 -0.1697
 9606W        W26453   1.124   4.575   2.458 -0.0230 -0.0605 -0.0633
 9607W        W26454  16.729   5.801   2.833 -0.1771  0.1015  0.1287
 9608W        W26455  15.614  18.511  10.519 -0.1279 -0.0998  0.1370
 9609W        W26456  18.903  10.124   4.857  0.3024  0.0403 -0.0769
 9610W        W26457   2.791   4.608  11.944 -0.1286  0.1072 -0.0964
 9611W        W26458   1.315   1.871  14.281 -0.0285  0.1166 -0.1346
 9612W        W26459   6.227   9.063  11.216 -0.1684 -0.0676 -0.0676
 9613W        W26460   7.824  18.550  11.632  0.5544  0.2564 -0.2641
 9614W        W26461  18.367  13.707   3.643 -0.0846 -0.0788  0.0615
 9615W        W26462   3.155   8.945   2.333  0.1587 -0.0859  0.1095
 9616W        W26463   3.064  14.731  12.735  0.1217 -0.1214 -0.4298
 9617W        W26464   2.576   1.031  12.433 -0.2497  0.2722 -0.1721
 9618W        W26465   9.404  13.047  13.016 -0.1052  0.3420 -0.2302
 9619W        W26466  10.526   7.669  12.917 -0.1318 -0.2291  0.3695
 9620W        W26467  16.915   3.613  11.197  0.1301  0.2484  0.1175
 9621W        W26468   5.385   7.893   3.464 -0.0326  0.0996 -0.1023
 9622W        W26469   1.340   8.211   1.724 -0.1334  0.0533  0.2401
 9623W        W26470   6.944  17.296   1.581 -0.0235 -0.0199  0.2595
 9624W        W26471  14.947   7.848   1.674  0.0513 -0.4193 -0.0364
 9625W        W26472  15.543  11.038   2.834  0.1700 -0.0712  0.2405
 9626W        W26473  11.569  10.306  10.297  0.0670  0.2209 -0.0697
 9627W        W26474  18.896   8.408  10.886 -0.2998  0.2927  0.0600
 9628W        W26475   9.264  16.037   3.106 -0.3233 -0.1302  0.2276
 9629W        W26476   2.581   4.042  11.934 -0.1818  0.2179  0.3121
 9630W        W26477   5.712   4.616   2.179 -0.2148 -0.1535 -0.2118
 9631W        W26478  12.028   4.600  13.140 -0.3473  0.0855  0.0859
 9632W        W26479  15.314  19.502   1.617  0.1009  0.2789  0.2284
 9633W        W26480   8.128  13.985  10.565 -0.1394  0.1532 -0.0894
 9634W        W26481   0.436  15.267  13.397  0.0052 -0.2500  0.1362
 9635W        W26482   7.440   5.121  10.502 -0.0871  0.1675 -0.1531
 9636W        W26483   2.715   5.187  12.221 -0.0566  0.0422  0.2181
 9637W        W26484   8.836  16.065  11.259  0.0709  0.0633  0.0674
 9638W        W26485  16.534  19.153  12.331  0.1402 -0.1058 -0.1566
 9639W        W26486  13.264  13.430   0.007  0.1931  0.0275 -0.3185
 9640W        W26487  19.072   4.685   0.020  0.3510 -0.2105  0.0370
 9641W        W26488   1.993  19.816  11.000  0.0252  0.4469  0.1142
 9642W        W26489  18.651  11.091   3.795  0.1983 -0.1289  0.1838
 9643W        W26490  11.392   4.328  13.673 -0.0523  0.0310 -0.0328
 9644W        W26491  10.638  13.796   1.184 -0.3476 -0.2746  0.1351
 9645W        W26492   4.557  13.486  11.014 -0.0674  0.0408  0.1169
 9646W        W26493  10.083   3.877  14.125 -0.0391 -0.1619  0.0560
 9647W        W26494   4.384  12.756  12.712 -0.0427  0.5133 -0.4008
 9648W        W26495   6.727   2.838  14.124  0.0129 -0.0222  0.2250
 9649W        W26496   2.910  10.061  12.450  0.1816 -0.0168 -0.1576
 9650W        W26497  15.863  14.383   9.918  0.3508 -0.0640  0.3229
 9651W        W26498   3.552   8.666   1.794 -0.1097 -0.0675  0.1774
 9652W        W26499   5.340   7.765   1.238 -0.1326 -0.1103 -0.0475
 9653W        W26500  14.909  15.058  10.309  0.0288 -0.1829  0.2780
 9654W        W26501   9.864  18.157  14.064 -0.3921  0.4318 -0.7022
 9655W        W26502  17.226  16.384   0.571 -0.0113  0.0661  0.1250
 9656W        W26503  10.872   5.991  14.078 -0.0619 -0.1211 -0.2065
 9657W        W26504   3.176  17.182  14.032  0.3271  0.1206 -0.1094
 9658W        W26505  11.928  12.613  12.236 -0.1815 -0.1190  0.1776
 9659W        W26506  16.656  11.688   1.970  0.1505 -0.2709  0.0769
 9660W        W26507   4.906   8.917   1.892  0.1252 -0.0560  0.0190
 9661W        W26508   4.841   7.835   1.062  0.1274  0.0043 -0.0491
 9662W        W26509  17.553  10.865   8.990  0.0867 -0.0239 -0.3205
 9663W        W26510  17.858   3.401   1.178 -0.2895 -0.1774 -0.3027
 9664W        W26511  12.607  12.300   3.026 -0.2262 -0.1293  0.1868
 9665W        W26512  15.455   6.397   1.172  0.0571  0.0642 -0.0768
 9666W        W26513  15.393  17.160  12.553 -0.1516  0.1978 -0.0023
 9667W        W26514   0.812   5.959  13.625 -0.1060 -0.0493 -0.0075
 9668W        W26515   5.188  19.379  12.719 -0.1348 -0.2811 -0.0445
 9669W        W26516   5.278   6.169   3.792  0.0348  0.0639  0.1459
 9670W        W26517  19.713   3.579  11.369  0.2615  0.3690  0.2040
 9671W        W26518   3.344  17.961  12.252 -0.2601 -0.2471  0.1809
 9672W        W26519   2.967  11.775  13.880  0.1249 -0.1674 -0.0003
 9673W        W26520  14.204  13.791   4.781 -0.2090  0.0045 -0.0016
 9674W        W26521  13.375  12.171   4.459 -0.2373  0.1810  0.0761
 9675W        W26522  18.850  17.429   2.435 -0.0452 -0.2531 -0.5337
 9676W        W26523  12.842  19.037   2.597 -0.0909 -0.0135  0.1567
 9677W        W26524  16.022   7.946   0.471  0.2547  0.0295 -0.3944
 9678W        W26525   7.403  15.433   3.002 -0.1386  0.1244  0.0484
 9679W        W26526  17.199   6.667   4.166  0.1333 -0.0535  0.3923
 9680W        W26527   9.250  13.202  10.432 -0.1641  0.0370 -0.1208
 9681W        W26528   8.350  10.673   4.361 -0.0917 -0.0567 -0.0682
 9682W        W26529  10.691   0.749  12.573  0.1346 -0.2369 -0.3114
 9683W        W26530   3.168   8.758   5.670 -0.0103  0.0143  0.0957
 9684W        W26531  10.093  15.443   1.255 -0.0563 -0.1476  0.2652
 9685W        W26532   4.975  18.967  13.627 -0.1522 -0.2329 -0.1707
 9686W        W26533  16.193  15.727   2.742 -0.0616 -0.3988 -0.0827
 9687W        W26534  13.212  11.878  10.763  0.0453 -0.0843 -0.0321
 9688W        W26535   6.903   1.369  13.391 -0.4688  0.3534  0.1685
 9689W        W26536   4.514  10.165  12.634 -0.1609 -0.0112 -0.0879
 9690W        W26537  14.955   7.346   2.867  0.3465 -0.3244 -0.0191
 9691W        W26538  16.371  18.395  12.838  0.1748  0.3541  0.1871
 9692W        W26539  15.279   8.097   5.126 -0.0826  0.4688  0.1801
 9693W        W26540   6.287   5.923  13.285 -0.2155  0.1964  0.1791
 9694W        W26541  13.490  12.721  11.412  0.1929  0.2288  0.0331
 9695W        W26542  13.911   4.029   0.003  0.0144  0.1450  0.2502
 9696W        W26543  13.362   1.214  12.365  0.3360 -0.0709 -0.1901
 9697W        W26544  17.315  14.006   0.036  0.2553 -0.3523  0.3461
 9698W        W26545   2.781  14.893  11.290  0.0862 -0.0910 -0.1159
 9699W        W26546  12.571  15.103   3.935  0.0673 -0.0607  0.1863
 9700W        W26547  12.616  15.204   2.223  0.0866 -0.0223 -0.3163
 9701W        W26548   7.849  14.640   0.226  0.2882 -0.4006  0.2416
 9702W        W26549   1.226  15.669   0.364 -0.0363  0.0230  0.1878
 9703W        W26550   9.545  12.117  10.617 -0.1781 -0.0654  0.3236
 9704W        W26551  12.941   1.567  10.614  0.4162 -0.0693 -0.1920
 9705W        W26552   0.793   4.158  11.416  0.3978 -0.4371  0.1672
 9706W        W26553  16.022   1.390  10.362  0.0750  0.0073 -0.0157
 9707W        W26554  14.533  10.068   0.498 -0.2620 -0.0002 -0.0489
 9708W        W26555  12.421  13.096  12.118 -0.1725 -0.0240  0.1412
 9709W        W26556  18.515   1.065   4.609 -0.0854  0.0134 -0.0267
 9710W        W26557   6.326   5.120  10.180 -0.4071  0.0329 -0.0850
 9711W        W26558  10.519  12.993   0.703 -0.3039 -0.2233 -0.0734
 9712W        W26559   8.503  18.589   0.145 -0.2772  0.1771  0.1468
 9713W        W26560   6.633   0.874  13.453 -0.2191 -0.3339 -0.1453
 9714W        W26561   0.123   3.907   2.437  0.0074 -0.1274  0.0833
 9715W        W26562  18.910  14.820  11.003 -0.3073  0.2152 -0.0922
 9716W        W26563  16.443  16.586  12.920 -0.1004 -0.1800  0.0804
 9717W        W26564  16.386   8.513   2.949  0.0139  0.1402  0.0902
 9718W        W26565  10.832   0.357   3.423 -0.3265  0.2942 -0.2857
 9719W        W26566  18.405  15.519  13.194 -0.2322  0.1218 -0.1940
 9720W        W26567   0.221   9.241  12.885  0.2579 -0.0030  0.2096
 9721W        W26568   1.199   0.097  10.824 -0.3949 -0.0822 -0.1892
 9722W        W26569   0.555  17.629  14.141 -0.1145 -0.0478 -0.2597
 9723W        W26570   5.647   4.806   1.721 -0.2802 -0.0382  0.0411
 9724W        W26571  19.693  10.778   2.996 -0.1216 -0.1621  0.0650
 9725W        W26572   2.038  19.490  10.004 -0.2202 -0.2120 -0.3022
 9726W        W26573   8.159  19.672   9.866  0.0977  0.0575 -0.1463
 9727W        W26574  11.972   5.089   1.624  0.1195  0.1757 -0.1415
 9728W        W26575   1.341  15.452   1.806 -0.4525  0.2515 -0.3885
 9729W        W26576   7.076   8.664  10.565  0.0489  0.1858  0.2414
 9730W        W26577  11.661   2.400  10.657 -0.0595 -0.3013  0.3123
 9731W        W26578  10.806  14.543  13.213  0.1722 -0.3182  0.1587
 9732W        W26579   4.922  18.544   1.665  0.1023  0.1713 -0.0932
 9733W        W26580   9.711  19.234  10.905  0.2263  0.1014  0.0426
 9734W        W26581   9.139  10.596  10.245  0.1095 -0.2436  0.2560
 9735W        W26582  10.589   7.232  13.570 -0.1597 -0.0703 -0.0312
 9736W        W26583   9.294  12.866   4.364  0.3055  0.2597  0.0823
 9737W        W26584  11.754  19.431  12.373 -0.0659 -0.0646  0.2447
 9738W        W26585  17.943  19.261   2.311  0.1399 -0.0661  0.0241
 9739W        W26586   2.681   7.842  12.849  0.0742  0.0494  0.2612
 9740W        W26587  19.510  15.943  12.303 -0.0923  0.3199 -0.0137
 9741W        W26588   5.497   2.291  10.884  0.2269 -0.0842 -0.1456
 9742W        W26589   5.537  17.648  10.429  0.3336  0.1550 -0.0473
 9743W        W26590  17.274  12.982   1.564  0.0233  0.1725  0.1425
 9744W        W26591  14.719  10.817  11.712  0.2856  0.3646  0.0074
 9745W        W26592   1.827  14.264   1.699 -0.0633 -0.0205  0.0522
 9746W        W26593  13.404  14.185  12.566  0.0145  0.1727 -0.1931
 9747W        W26594  16.632  11.453   3.567  0.0632  0.2326  0.0196
 9748W        W26595  17.673  14.540  11.073 -0.0645 -0.0272 -0.0910
 9749W        W26596   0.878  14.876   9.968 -0.0841  0.0466 -0.1929
 9750W        W26597   0.416  16.823   1.063 -0.0760  0.2679 -0.0376
 9751W        W26598  16.694  16.228   3.048  0.2311  0.0368  0.1559
 9752W        W26599  13.069   3.472  13.344 -0.3803  0.0673 -0.0273
 9753W        W26600   1.829   2.907  12.165 -0.3883  0.0208 -0.0006
 9754W        W26601  19.638  17.269  13.315  0.1884 -0.1501  0.1514
 9755W        W26602   2.838  13.203   0.254 -0.1175  0.2621 -0.2369
 9756W        W26603   9.368   8.629  10.909 -0.0056 -0.0510 -0.2727
 9757W        W26604  18.990  12.402   1.289  0.0389  0.1595  0.1153
 9758W        W26605  17.768  11.806   1.089  0.0762 -0.2664  0.3692
 9759W        W26606   4.472  16.377   2.192  0.3845 -0.5581 -0.1668
 9760W        W26607  16.499   2.168  14.200 -0.2620  0.0861  0.1290
 9761W        W26608   0.988  10.743  11.932  0.3685  0.3343 -0.1219
 9762W        W26609   1.263  15.652   2.302 -0.0844 -0.0673  0.1720
 9763W        W26610  17.606   9.709  13.358 -0.3286 -0.1143  0.1390
 9764W        W26611  10.638   0.186  12.412  0.1876  0.0749 -0.1635
 9765W        W26612   0.139   9.861   3.159 -0.1314 -0.2349 -0.1813
 9766W        W26613  15.196   3.114   0.816  0.4199 -0.6109  0.0844
 9767W        W26614  14.537   3.052   4.577  0.0914  0.5104  0.0242
 9768W        W26615   2.425   2.843  11.424  0.3361  0.1322 -0.0126
 9769W        W26616  18.813  12.450  12.291 -0.1420 -0.2317  0.3527
 9770W        W26617   4.350  14.297  12.553 -0.0631  0.1680  0.2033
 9771W        W26618   4.543  12.891   4.957  0.0366  0.0970 -0.1664
 9772W        W26619  15.059  13.551   2.857 -0.2353 -0.0145  0.1304
 9773W        W26620   4.191  18.673   1.344 -0.3616  0.5030  0.1503
 9774W        W26621  11.987   5.870   2.244 -0.0051 -0.2283 -0.0707
 9775W        W26622   4.465   2.912   2.009  0.0290 -0.2197  0.1258
 9776W        W26623  11.801  12.936   3.701 -0.0002  0.6873  0.1333
 9777W        W26624   9.011  12.572   2.313 -0.2259  0.0355  0.0058
 9778W        W26625  15.322  10.913   9.470 -0.0746  0.2599  0.3352
 9779W        W26626  16.084   8.708   2.465 -0.1021  0.2854  0.4236
 9780W        W26627  17.155  13.767  12.890  0.0966  0.2085 -0.1226
 9781W        W26628   4.794   3.091  10.523  0.3130 -0.1493  0.2465
 9782W        W26629   6.813  12.068  13.679 -0.1499 -0.3973  0.2087
 9783W        W26630  18.139  17.578   0.789 -0.2423  0.0603 -0.2256
 9784W        W26631   0.636  13.805  11.548  0.4083  0.1610 -0.0376
 9785W        W26632   8.852   9.883   4.080 -0.1564  0.2162  0.1637
 9786W        W26633  16.222  18.146   3.123  0.2216  0.0250  0.0062
 9787W        W26634  16.329  17.930   4.534 -0.2379  0.2508 -0.1105
 9788W        W26635  16.556   5.332  12.730  0.0396  0.0660 -0.3477
 9789W        W26636   2.911   6.352   0.127  0.1640  0.2838 -0.0540
 9790W        W26637   9.147  12.832   1.804 -0.1240  0.1282  0.0972
 9791W        W26638   4.324   7.455   0.361 -0.1387  0.1773 -0.0231
 9792W        W26639   7.537   2.171   1.577  0.2620 -0.2061 -0.1050
 9793W        W26640  16.210  11.226  13.720  0.1293  0.1484 -0.0706
 9794W        W26641  12.081   1.769  13.768 -0.0495  0.4370 -0.0614
 9795W        W26642   8.210   1.593   2.344 -0.3002 -0.0887 -0.0889
 9796W        W26643  17.436  18.072  10.713  0.0395  0.2826  0.1730
 9797W        W26644  19.241  19.047  13.481 -0.0687  0.1600 -0.1686
 9798W        W26645  12.085   3.165  13.818 -0.2771 -0.1275  0.0584
 9799W        W26646  19.481  16.809  12.503  0.0639  0.2156 -0.2551
 9800W        W26647  10.285  18.149   4.998  0.1688  0.1537  0.1255
 9801W        W26648   0.331   0.787   5.235  0.1954  0.2190 -0.0991
 9802W        W26649  14.649   5.884  11.837 -0.2388 -0.0282 -0.0694
 9803W        W26650   2.120  18.599  11.748  0.3257 -0.1667  0.2338
 9804W        W26651  17.843   2.205   1.938  0.0186  0.1089  0.0197
 9805W        W26652   4.885   9.771   9.962  0.3281  0.2210  0.1534
 9806W        W26653   4.150  12.721   4.643  0.2016  0.1433 -0.0276
 9807W        W26654  10.507   0.245   0.219 -0.1529 -0.1883 -0.2902
 9808W        W26655  16.650  16.980  11.122  0.0758  0.1020  0.1363
 9809W        W26656   1.024  11.444   0.655 -0.2356  0.1420  0.1315
 9810W        W26657   0.499   8.449   3.214 -0.1067 -0.2191  0.0646
 9811W        W26658   9.190   9.408   2.131  0.2306 -0.0135 -0.1598
 9812W        W26659   7.365  13.857   9.016  0.3232 -0.0548  0.0460
 9813W        W26660   8.034   3.194  13.463 -0.0699  0.1329 -0.0300
 9814W        W26661  11.005   0.394   0.480  0.0244  0.2930  0.2530
 9815W        W26662  14.158   4.665  10.969  0.1260  0.1803  0.2344
 9816W        W26663  19.023  10.392  10.937  0.1040 -0.1053 -0.1982
 9817W        W26664  10.743   5.537  10.327 -0.2930 -0.3043  0.2405
 9818W        W26665   0.533  12.844   1.628 -0.3234  0.0572  0.1694
 9819W        W26666  16.761   9.046   3.824  0.0830  0.0257 -0.0232
 9820W        W26667   2.290   1.435   1.103 -0.2655  0.4648  0.1058
 9821W        W26668   2.255  12.283   0.904 -0.0484  0.0108 -0.0397
 9822W        W26669   0.387   0.218  12.171 -0.0143 -0.2132  0.1264
 9823W        W26670  11.752  19.192   1.471 -0.0672 -0.1443  0.2662
 9824W        W26671  15.189   0.974  13.680  0.0467  0.2096  0.2849
 9825W        W26672  18.746  17.857  11.963 -0.2105 -0.2787  0.0789
 9826W        W26673   6.479   0.665   2.917 -0.1970 -0.2704 -0.1422
 9827W        W26674   1.436  18.982  13.289 -0.2416 -0.0114  0.1702
 9828W        W26675   7.768   3.890   3.041 -0.0284 -0.1364 -0.2544
 9829W        W26676   8.357  15.445   2.986 -0.0403  0.0933 -0.1393
 9830W        W26677  17.124  13.486   1.842 -0.2485  0.0094 -0.0434
 9831W        W26678  11.103   9.272   2.774 -0.2054 -0.1479 -0.0109
 9832W        W26679  17.397   4.219  10.407 -0.2085  0.2578  0.3890
 9833W        W26680  16.532   2.147   1.841 -0.0753  0.1508 -0.2698
 9834W        W26681   6.169  17.234  10.951  0.0181 -0.1266  0.0080
 9835W        W26682  18.044   5.787   4.719  0.2271  0.1383 -0.0430
 9836W        W26683  16.387   1.614   0.576 -0.2284  0.0754  0.0326
 9837W        W26684   8.099  14.252   3.948 -0.0554  0.1003  0.1901
 9838W        W26685   8.276  19.402   0.147 -0.0118 -0.4650 -0.0239
 9839W        W26686  11.982   8.295  13.616 -0.1534 -0.1470  0.0181
 9840W        W26687  10.407  13.302   1.486 -0.1440  0.4691 -0.1495
 9841W        W26688  17.766  15.943  14.040 -0.0355  0.0936  0.0899
 9842W        W26689   0.830  10.684   1.747 -0.2217 -0.0482  0.1157
 9843W        W26690  13.693   3.430  12.159 -0.0395  0.0709 -0.0535
 9844W        W26691  14.608   2.414   2.764 -0.0331  0.0742 -0.1944
 9845W        W26692  12.086  12.580   4.614 -0.0604 -0.1612  0.1941
 9846W        W26693  14.269  13.954   2.560 -0.1781  0.0988  0.2194
 9847W        W26694   2.995  11.274   1.340 -0.1985 -0.3945 -0.0415
 9848W        W26695  15.021  18.429   2.113  0.3223  0.0864 -0.1465
 9849W        W26696  19.797  13.862  10.108 -0.0621  0.0320  0.0577
 9850W        W26697  18.653   1.114  13.653 -0.0309 -0.3051 -0.1999
 9851W        W26698   1.916   3.297   0.859  0.2992 -0.4902  0.3960
 9852W        W26699   9.361  15.938   2.486  0.0363  0.1865 -0.3044
 9853W        W26700   6.893  13.748  12.750  0.1344 -0.0477  0.0336
 9854W        W26701  15.861  13.845  14.277  0.1294  0.0661 -0.1694
 9855W        W26702  10.691   7.991  10.404  0.0177 -0.2384 -0.0268
 9856W        W26703   7.063   5.483  12.414 -0.1921 -0.3474  0.0067
 9857W        W26704   4.025  17.122  11.281  0.3710  0.0774 -0.1955
 9858W        W26705  17.958   1.617  13.003 -0.2665  0.2930  0.1429
 9859W        W26706   9.457   7.592   2.681 -0.1259  0.2061 -0.0829
 9860W        W26707  17.008   6.960  10.431 -0.0149  0.1072 -0.2259
 9861W        W26708   8.774  11.035   2.277  0.1888 -0.1896  0.1735
 9862W        W26709  16.093  19.230  12.202  0.0533  0.3589  0.2974
 9863W        W26710  18.994  17.087  10.721 -0.0483 -0.0570 -0.2189
 9864W        W26711  19.235  15.137   1.756 -0.0036  0.1012  0.1743
 9865W        W26712   9.871   0.547  13.005  0.0116 -0.2072  0.0217
 9866W        W26713  11.788  15.357  11.464 -0.0997 -0.0145 -0.1349
 9867W        W26714   1.164  12.265   2.312  0.1239  0.0834 -0.1808
 9868W        W26715   1.407   3.661  13.290  0.1437 -0.4723 -0.2043
 9869W        W26716   4.984  19.488  10.653  0.0958 -0.1124  0.2097
 9870W        W26717  11.486   2.733  12.818 -0.1325  0.0953  0.2639
 9871W        W26718   9.803   0.328   0.869  0.0752  0.4016 -0.2008
 9872W        W26719  12.831   0.432   3.098  0.0819  0.1339  0.0112
 9873W        W26720   1.937  14.933   4.121 -0.1755 -0.0791  0.3780
 9874W        W26721  16.077  10.299   0.845  0.0945 -0.0480 -0.3307
 9875W        W26722  12.513  16.119   4.522 -0.1025 -0.1136  0.0000
 9876W        W26723   7.701   4.710  10.740 -0.0717 -0.0678 -0.1838
 9877W        W26724   0.051  12.867   0.655 -0.1835  0.0391  0.4222
 9878W        W26725   5.036  16.830   4.263 -0.0705  0.2747 -0.1089
 9879W        W26726   7.881  11.237  13.425  0.0509  0.1254  0.2522
 9880W        W26727  12.806   8.101  10.933 -0.0070 -0.2054  0.0200
 9881W        W26728   3.803   7.713  12.964 -0.1727 -0.2680  0.2970
 9882W        W26729  11.667   9.387  12.077 -0.1256  0.3690  0.1966
 9883W        W26730   2.662   6.907  14.121 -0.3602 -0.1341  0.0652
 9884W        W26731   6.268   4.644  10.704 -0.0411 -0.1049  0.1789
 9885W        W26732  10.273  16.626  14.028  0.2029 -0.1478 -0.2830
 9886W        W26733  14.471   2.818  10.695  0.1123 -0.1103  0.2790
 9887W        W26734  18.898  11.437  13.808 -0.2062 -0.3310 -0.3908
 9888W        W26735   1.966   0.582  13.973  0.3145  0.0156  0.3150
 9889W        W26736  17.448  16.058   2.224 -0.1815 -0.2241  0.1264
 9890W        W26737   9.850  12.985  11.158  0.1177  0.0104 -0.3317
 9891W        W26738  13.034   3.510  13.844 -0.1287 -0.1381  0.1658
 9892W        W26739   6.314   8.540   0.354  0.2057  0.4750  0.0526
 9893W        W26740   0.380  10.509   2.055 -0.2449 -0.0843 -0.3131
 9894W        W26741  10.313   2.840  13.126  0.0378  0.2178 -0.0186
 9895W        W26742   8.640  12.379   0.897 -0.0607 -0.1900 -0.3251
 9896W        W26743   6.285   9.932   3.109  0.0623  0.0641 -0.1835
 9897W        W26744  19.429   5.599   3.426  0.1301  0.1642  0.2168
 9898W        W26745   5.306   1.588   2.680  0.0567 -0.1067 -0.1299
 9899W        W26746  12.741   9.153   1.426 -0.0836 -0.1926 -0.0161
 9900W        W26747  11.267  18.255  12.096 -0.1984  0.0252 -0.1342
 9901W        W26748   9.964   6.543   4.433  0.0541 -0.1098  0.1763
 9902W        W26749  13.944  12.028   4.087 -0.0550 -0.0366  0.2308
 9903W        W26750  13.553  18.895   9.495  0.1214 -0.1772 -0.1759
 9904W        W26751   9.276  19.397  14.084  0.0378  0.0918 -0.1593
 9905W        W26752  16.645  13.137   5.009 -0.0062  0.0887 -0.0582
 9906W        W26753   0.987  19.123  14.214 -0.4334 -0.1676  0.2223
 9907W        W26754  11.615  18.565  12.333 -0.1352  0.4122  0.1651
 9908W        W26755   3.064   0.392   0.561  0.0969  0.2609  0.1034
 9909W        W26756   8.245  12.940   0.709 -0.4076  0.1726  0.0793
 9910W        W26757   8.003   5.158   1.816  0.0322 -0.1543 -0.2401
 9911W        W26758   0.245  14.240   5.753 -0.0930 -0.1174  0.1035
 9912W        W26759  12.931   3.038   2.444  0.0404 -0.0636 -0.0749
 9913W        W26760   5.721  14.186   5.038  0.4031 -0.1052  0.1732
 9914W        W26761   6.441  12.854   0.604 -0.3120 -0.0434  0.0671
 9915W        W26762   4.419   8.085  13.341  0.0129 -0.3340  0.1138
 9916W        W26763  15.642  13.465  11.025 -0.1340 -0.2466 -0.1611
 9917W        W26764   1.155  16.663  13.026  0.1025 -0.1075 -0.0952
 9918W        W26765   8.670  17.241   3.899 -0.1472 -0.1042  0.2428
 9919W        W26766  17.419  16.990  13.104  0.2920  0.1923 -0.2278
 9920W        W26767   4.898  16.509  10.860  0.0754  0.2710  0.1139
 9921W        W26768  16.502  14.949   3.387  0.1590 -0.0397  0.3336
 9922W        W26769   7.988   4.202  13.366 -0.4710 -0.0436 -0.1946
 9923W        W26770   4.466  10.039  10.489 -0.4244  0.1216  0.1365
 9924W        W26771   9.100  18.398  13.572  0.2474  0.3097 -0.1576
 9925W        W26772   3.545  17.370  12.813  0.3022 -0.0593  0.4328
 9926W        W26773   5.589   3.611  13.197 -0.3971  0.3735  0.4250
 9927W        W26774  19.150   8.947   2.474 -0.1297  0.3346  0.1025
 9928W        W26775   6.476   5.893   3.525  0.1007 -0.1679 -0.1478
 9929W        W26776   7.399  18.170   4.717 -0.3561  0.3506 -0.1659
 9930W        W26777   4.702   8.697   0.210 -0.1608  0.0518 -0.1846
 9931W        W26778   8.509  16.567  10.478  0.0571  0.1391 -0.0973
 9932W        W26779  14.589   4.552   0.214 -0.0805 -0.5124  0.0425
 9933W        W26780  13.296  12.147  13.943 -0.2242  0.0750  0.1411
 9934W        W26781  16.390  18.868  11.905 -0.2356  0.1145 -0.1692
 9935W        W26782  17.567  16.602   2.195 -0.3065  0.0350 -0.3003
 9936W        W26783  12.744   9.684   9.913  0.2498 -0.0484 -0.0887
 9937W        W26784  15.078   4.204   2.052  0.0435  0.0746  0.0289
 9938W        W26785   4.156   1.831  13.503 -0.0787 -0.1786  0.0492
 9939W        W26786  16.768  11.691   9.970 -0.1590  0.0351 -0.1697
 9940W        W26787   2.703   9.409  12.882  0.0445 -0.3265 -0.5914
 9941W        W26788  16.072   7.049   1.155 -0.1040  0.1008  0.2658
 9942W        W26789   3.652   5.935   2.066 -0.0462  0.0515  0.0561
 9943W        W26790   9.198   7.973  12.610  0.4343  0.2003  0.1870
 9944W        W26791  13.338   4.415  12.490 -0.0445 -0.3467  0.0026
 9945W        W26792  11.401   4.246  13.129  0.1394 -0.1958 -0.1663
 9946W        W26793   2.946  17.201  10.782 -0.0773 -0.2182 -0.1718
 9947W        W26794   8.617  13.188  10.452 -0.0808  0.1859  0.0752
 9948W        W26795  18.784   4.304  11.321 -0.0273  0.1179 -0.3594
 9949W        W26796   1.059  15.832  11.095  0.2617  0.3968  0.0482
 9950W        W26797   6.732   9.407   3.357  0.0331 -0.0448 -0.0919
 9951W        W26798   5.249  16.367   4.183 -0.0621  0.3090 -0.1959
 9952W        W26799  14.840  11.856   5.050  0.0069 -0.0300  0.0094
 9953W        W26800   2.623   7.269   1.554 -0.1184 -0.0405 -0.1345
 9954W        W26801   3.769   8.213   1.667  0.3694 -0.0581  0.0396
 9955W        W26802   3.463  15.660  13.388  0.0685 -0.4209  0.1486
 9956W        W26803   1.495  16.433   3.217  0.0413  0.0232 -0.2898
 9957W        W26804  15.194  10.567   1.518 -0.1311  0.0664  0.0853
 9958W        W26805  17.402   4.529   3.701 -0.1511  0.0331 -0.0859
 9959W        W26806   3.558   1.596   1.157 -0.4915 -0.1958 -0.1019
 9960W        W26807   8.897  18.180  11.079 -0.4335 -0.4435 -0.0194
 9961W        W26808  18.117  12.530   1.965 -0.0708  0.0197  0.1675
 9962W        W26809   8.329   5.468   5.261  0.1013 -0.2056  0.0255
 9963W        W26810   9.947  14.571  10.930 -0.3777 -0.3284 -0.0514
 9964W        W26811   4.543   9.242  12.882  0.1336 -0.0775 -0.0865
 9965W        W26812   3.133   7.585   3.524  0.0829  0.1108 -0.0760
 9966W        W26813  12.147   9.984   0.659  0.2912  0.4574  0.0417
 9967W        W26814   2.125   1.543  11.864  0.4699 -0.1242 -0.0636
 9968W        W26815  10.585  17.912   1.838  0.3042 -0.0258  0.1806
 9969W        W26816  18.877   9.820  11.924 -0.1548  0.0057 -0.0958
 9970W        W26817   0.829  15.088   0.301  0.0355 -0.0560  0.0529
 9971W        W26818   9.374  19.079  10.580  0.2540 -0.0034 -0.0653
 9972W        W26819   7.467   8.570   4.095 -0.4007 -0.0824 -0.3383
 9973W        W26820   3.142   0.879   0.504  0.0004  0.0566 -0.2312
 9974W        W26821  15.858  18.122   4.784 -0.0000  0.2384 -0.2354
 9975W        W26822   4.852   6.719   4.807 -0.0053  0.3713 -0.1745
 9976W        W26823   7.818   7.404   0.519  0.3593  0.4681 -0.1136
 9977W        W26824   0.201  13.966  11.746  0.1837  0.0350  0.0432
 9978W        W26825   5.502   2.229  10.283  0.1669  0.0087  0.0450
 9979W        W26826  17.485   5.924   4.723  0.4053  0.1609  0.2963
 9980W        W26827   8.404  17.793   0.697  0.0361 -0.0075 -0.1001
 9981W        W26828   3.411  10.478   0.724 -0.1171 -0.0164 -0.0492
 9982W        W26829  19.597  19.657   1.542 -0.2853  0.0803 -0.1117
 9983W        W26830  10.910  13.861   0.364  0.0553  0.1417  0.2466
 9984W        W26831  13.584   7.604  13.530 -0.1679 -0.1246  0.1138
 9985W        W26832  11.695  12.315   4.411 -0.0585 -0.1707 -0.0291
 9986W        W26833  17.716   3.223   2.269  0.4443  0.2032  0.0871
 9987W        W26834   1.691   3.769  12.304  0.3066  0.0781  0.0944
 9988W        W26835  17.034  14.928   8.718  0.3977  0.0673  0.2857
 9989W        W26836   4.479  17.510   1.497  0.1725 -0.1870  0.1825
 9990W        W26837  13.039  13.630   3.860  0.2676 -0.0434 -0.1509
 9991W        W26838  12.549  14.195   1.270  0.0082  0.2073 -0.0073
 9992W        W26839  11.426  10.057   2.428  0.1889  0.2031 -0.1611
 9993W        W26840   3.822  11.235  11.268 -0.0530  0.2726  0.0030
 9994W        W26841   2.280   3.207  14.154 -0.0914  0.0388  0.2670
 9995W        W26842   4.755  11.914   4.679  0.0770  0.0061  0.0041
 9996W        W26843   9.838   8.133  14.195 -0.1015 -0.3319 -0.2308
 9997W        W26844  16.839   1.398  10.490  0.1175  0.0776  0.0931
 9998W        W26845  19.594   5.753   4.311 -0.3134  0.2969  0.0545
 9999W        W26846   4.145  12.763   2.722 -0.3304 -0.0487 -0.0434
10000W        W26847   9.608   7.808  12.354  0.1202 -0.2553 -0.0652
10001W        W26848  14.882   7.698   3.752 -0.1121  0.1508  0.0254
10002W        W26849   2.751   2.294  10.027 -0.2411 -0.0006  0.2326
10003W        W26850  13.786  17.078  11.737  0.1629 -0.1662  0.1643
10004W        W26851  13.749  11.202  10.437 -0.1405 -0.0805  0.1701
10005W        W26852   0.872   5.710   0.145 -0.0506  0.1159 -0.0020
10006W        W26853  13.899  13.376   1.999 -0.2292 -0.0823 -0.1950
10007W        W26854   9.826  14.243  13.256 -0.0780 -0.0421  0.3035
10008W        W26855   7.595  14.401   3.970 -0.1812  0.3944  0.0786
10009W        W26856   1.171  14.449  13.857  0.0209 -0.0608 -0.0681
10010W        W26857  12.563  10.266   1.899  0.0046 -0.0232  0.0988
10011W        W26858  11.011  15.612   5.342 -0.3251  0.1507  0.1328
10012W        W26859  16.003  13.504   9.989  0.1159  0.1001 -0.3979
10013W        W26860  13.573  11.230   3.137  0.1807 -0.1638 -0.0562
10014W        W26861   7.697   6.522   0.437 -0.0483 -0.4026 -0.0068
10015W        W26862   0.364   0.181   3.510  0.1632 -0.1489 -0.2859
10016W        W26863  14.558  16.228   2.180 -0.0293 -0.3051  0.2188
10017W        W26864   6.014  17.152  13.908 -0.2742 -0.2400 -0.0220
10018W        W26865  14.310   9.948   2.115  0.1650 -0.2252 -0.0336
10019W        W26866  11.656   1.040  13.841  0.0066 -0.1491 -0.1114
10020W        W26867   8.756   3.881  10.328 -0.1337 -0.0130  0.1344
10021W        W26868   5.210   9.143   1.507  0.2415 -0.0653 -0.3543
10022W        W26869   2.785  11.720  13.294 -0.2306 -0.2597 -0.0025
10023W        W26870   8.528   0.507   2.910 -0.1159 -0.0148 -0.0399
10024W        W26871   9.410   2.348   0.193 -0.0779 -0.1514 -0.0507
10025W        W26872  10.827  14.486   2.760 -0.0500 -0.0672 -0.1550
10026W        W26873  11.593  15.538  13.284  0.2885  0.0213 -0.2420
10027W        W26874  16.177   1.557   4.025  0.3110 -0.0172  0.2393
10028W        W26875  13.666  14.790   4.897 -0.1680  0.0906  0.0806
10029W        W26876  11.881  14.405   1.685 -0.0384 -0.1251 -0.0959
10030W        W26877  14.849  14.609   2.379  0.0049 -0.0093  0.2395
10031W        W26878   9.288   4.843   0.860  0.3636 -0.1444 -0.4814
10032W        W26879  18.675   1.098   0.729  0.2022 -0.3033 -0.0806
10033W        W26880  18.356  19.452   2.739  0.0486  0.1209 -0.2053
10034W        W26881   7.155   0.697   4.143  0.3946 -0.1361  0.2402
10035W        W26882   9.673   3.680   3.547  0.0043  0.0233  0.0586
10036W        W26883  18.047   6.505  13.070  0.0350 -0.2083 -0.1784
10037W        W26884  10.009   1.603   2.102 -0.0679 -0.1595  0.1278
10038W        W26885   1.012   5.888  12.615 -0.1775  0.0695 -0.3542
10039W        W26886   0.981  10.210   3.506  0.2401  0.3291 -0.1885
10040W        W26887  10.663  19.078   0.057  0.2561 -0.1521 -0.3989
10041W        W26888   8.482  11.855   4.283  0.2224  0.1157 -0.1406
10042W        W26889  10.286   1.053  11.339 -0.0845 -0.1108 -0.0312
10043W        W26890  13.656   0.161  12.001 -0.0611 -0.0737 -0.1675
10044W        W26891  14.911   0.749   1.845  0.0880 -0.1801  0.3951
10045W        W26892   0.666   2.993  11.557 -0.0311 -0.1481  0.1600
10046W        W26893   9.880  14.723  13.533 -0.1116 -0.2052  0.1271
10047W        W26894   3.719  16.139  11.906 -0.0390 -0.0154  0.0199
10048W        W26895   0.202   2.597  10.603 -0.2626  0.1106 -0.0707
10049W        W26896   4.802  19.569   3.401  0.1387 -0.0058 -0.2089
10050W        W26897   2.850   5.478   9.690 -0.2061  0.2805 -0.1732
10051W        W26898  14.215  13.399   4.350 -0.0933 -0.2295  0.0807
10052W        W26899   1.982   3.569  10.387 -0.0011 -0.1283 -0.1522
10053W        W26900  19.283   8.796  10.646 -0.0692 -0.0222  0.0838
10054W        W26901  18.284   9.856   2.246  0.1308 -0.2543  0.1292
10055W        W26902   0.275  18.900   4.716 -0.0235  0.5754  0.0428
10056W        W26903   7.751  11.722   1.096 -0.0469  0.0859  0.2428
10057W        W26904   1.097  14.928   5.414  0.1845 -0.1366  0.1758
10058W        W26905  15.201  17.916   0.841  0.1699  0.1109  0.1974
10059W        W26906  19.730   5.846  11.272  0.0180 -0.0565 -0.0376
10060W        W26907   2.555   7.981   1.156 -0.1245 -0.0126  0.1271
10061W        W26908  13.602   6.987   0.889  0.2053  0.0142 -0.2627
10062W        W26909   0.145  13.587  11.463  0.1676  0.1061 -0.1037
10063W        W26910  11.497   4.221   0.330  0.2367 -0.1252 -0.2620
10064W        W26911  11.272   1.408  14.047  0.1568 -0.1273  0.1609
10065W        W26912  10.422   4.026   2.405 -0.0027  0.2887  0.2100
10066W        W26913   2.967   6.836  10.344  0.3760  0.1738 -0.0739
10067W        W26914  12.240  10.927  11.330  0.2212 -0.3758 -0.0975
10068W        W26915   9.109  19.664  10.835 -0.1578 -0.5352  0.4169
10069W        W26916   3.549   2.628  14.014  0.2756 -0.2100  0.0712
10070W        W26917  19.794  11.860   2.184  0.1778 -0.1674  0.1702
10071W        W26918   1.876   6.622  13.801  0.0078 -0.1853  0.1285
10072W        W26919   2.341  11.627   3.392 -0.0813  0.2981 -0.1009
10073W        W26920   5.960  15.053   0.355 -0.2976  0.0225 -0.0303
10074W        W26921  19.408   5.669  14.211  0.0181  0.2636  0.2022
10075W        W26922  12.967  18.768   5.363  0.3579  0.0395  0.2244
10076W        W26923  18.663   0.579  13.831 -0.1059  0.2269  0.1248
10077W        W26924  15.392  15.200   4.404  0.0300 -0.0166  0.1411
10078W        W26925  18.145   2.379   1.127  0.0298 -0.0335 -0.0848
10079W        W26926   1.455   8.008  10.867 -0.0811  0.0778 -0.0865
10080W        W26927  16.688   7.690   9.946  0.2935 -0.3702 -0.1409
10081W        W26928   3.248   4.338  14.298 -0.0467  0.1244  0.2834
10082W        W26929   8.378   2.254  13.406  0.2685  0.1051 -0.1083
10083W        W26930  10.299   4.447  13.050 -0.1588  0.0823 -0.1594
10084W        W26931  14.545   2.220   9.982 -0.1108  0.0365  0.4087
10085W        W26932   3.551   0.393  13.480 -0.0835 -0.0361 -0.1705
10086W        W26933  16.729   0.460  12.506  0.0658  0.4496 -0.0539
10087W        W26934   8.540  12.674   3.908 -0.0670 -0.0375 -0.2881
10088W        W26935  16.056  10.708  11.645  0.3097 -0.2326  0.0388
10089W        W26936   5.630  14.737  13.139 -0.2376  0.3272  0.1853
10090W        W26937   2.625  16.879   4.796  0.1122  0.0333  0.1066
10091W        W26938   4.554  13.285  10.504  0.2679  0.0185  0.0917
10092W        W26939  12.595   7.117   4.868  0.0050 -0.2639 -0.0275
10093W        W26940   7.148   2.011   3.867  0.3429 -0.0326 -0.2880
10094W        W26941  17.298   4.186   4.156  0.2198 -0.0417 -0.1607
10095W        W26942   9.911  13.808  10.150 -0.1708  0.0039  0.0104
10096W        W26943   0.050  10.954  12.143 -0.3342 -0.0935 -0.1173
10097W        W26944   2.423  19.341   1.436 -0.3178 -0.0196 -0.0518
10098W        W26945   1.759  14.174  13.197 -0.1503 -0.0244  0.0155
10099W        W26946  10.469   1.050   0.441  0.0238 -0.2152 -0.0998
10100W        W26947   9.965   4.685  12.265  0.1484 -0.2132  0.1083
10101W        W26948   5.292   6.260   4.325  0.0947  0.0786 -0.0166
10102W        W26949  16.589  10.932  13.478 -0.1763  0.1401 -0.1983
10103W        W26950   5.670  17.463   0.998  0.2078  0.2805 -0.1154
10104W        W26951   8.813  18.224  12.812  0.1359  0.1655 -0.1751
10105W        W26952   9.941   5.681   0.254  0.0230  0.1799 -0.3961
10106W        W26953   4.632  15.765   5.133  0.0043  0.0352 -0.0973
10107W        W26954   8.534   6.960  11.094 -0.1030 -0.2216 -0.0343
10108W        W26955  15.630   4.687  10.772  0.0541  0.1875 -0.2080
10109W        W26956   2.001   0.996   0.993  0.0475 -0.1402 -0.5922
10110W        W26957   5.502  11.961   4.076 -0.0984  0.1660  0.2214
10111W        W26958   6.153  15.506  10.735  0.0259 -0.1408  0.1142
10112W        W26959  16.757   4.028   4.163 -0.3383 -0.2774  0.0821
10113W        W26960   6.718   0.943  10.505 -0.0675 -0.2384  0.1489
10114W        W26961  19.724  11.453   4.110  0.0987 -0.0466 -0.2134
10115W        W26962  17.154  13.930  13.913  0.2603 -0.1179 -0.1174
10116W        W26963   3.685  18.045  14.034 -0.0755 -0.0011 -0.0127
10117W        W26964  16.995   7.513  11.024 -0.0048  0.1237  0.3203
10118W        W26965   6.056   0.258  13.063 -0.1435  0.0625  0.0700
10119W        W26966   7.796  13.763   1.057 -0.1766 -0.2021 -0.1181
10120W        W26967  19.227   0.681  12.165  0.2930  0.0482  0.0543
10121W        W26968   4.527  11.635  12.513 -0.2008 -0.2762  0.5035
10122W        W26969   5.000  19.329   0.089 -0.1958  0.0998 -0.1187
10123W        W26970  12.663  19.191   1.406 -0.0603 -0.1147 -0.2372
10124W        W26971   9.238   4.258  12.393  0.1348 -0.1001 -0.0577
10125W        W26972   1.163   4.407  11.073  0.1292 -0.1927  0.2782
10126W        W26973   3.835  15.684   2.388 -0.1938  0.2422 -0.1301
10127W        W26974   9.850   9.867   0.403  0.0276  0.0040  0.2857
10128W        W26975   8.489   2.289   1.505  0.0319  0.3485 -0.3430
10129W        W26976  16.093   0.565   3.723  0.0045  0.0560 -0.1420
10130W        W26977   5.401  18.815   5.843  0.0150 -0.4527  0.1173
10131W        W26978  10.714  15.489   1.160  0.1410  0.2035 -0.1549
10132W        W26979   7.198  16.419   0.200 -0.1209 -0.4144  0.2435
10133W        W26980  11.720  12.048   2.664 -0.1187  0.1608 -0.4276
10134W        W26981  10.673  11.309   1.247  0.0939  0.1554 -0.0769
10135W        W26982  11.814   7.192  11.037  0.0194  0.2750 -0.1367
10136W        W26983   9.261  17.106   1.253  0.2000  0.2303  0.6305
10137W        W26984   5.464   7.455   3.811  0.2235 -0.3567  0.2210
10138W        W26985   8.700  10.805  12.364  0.0774 -0.1257  0.1626
10139W        W26986   1.807   9.326   2.542  0.1830 -0.1399 -0.0602
10140W        W26987   0.855   9.986   2.851  0.2285 -0.1075  0.0388
10141W        W26988  19.184  11.136   3.863  0.0625 -0.0381  0.2132
10142W        W26989  16.696   6.294  11.970  0.0207 -0.1921  0.0178
10143W        W26990  12.108  10.430   0.426 -0.1183  0.1951  0.0455
10144W        W26991   8.387  13.207  12.341 -0.0652 -0.3786  0.0838
10145W        W26992   0.843   0.195   3.516 -0.1279  0.2103  0.0453
10146W        W26993  11.120   3.392   3.379 -0.3788 -0.1265  0.2091
10147W        W26994  15.050   4.756   4.380  0.0403  0.2126  0.0431
10148W        W26995   2.238  10.722   4.723  0.0393  0.2576  0.1659
10149W        W26996  14.500  10.647   4.744 -0.0961 -0.0025 -0.1250
10150W        W26997   1.916  13.879   3.260  0.0662 -0.3542  0.2490
10151W        W26998  18.882   2.004   0.800 -0.1549 -0.1825 -0.1462
10152W        W26999   2.748   8.337   3.548 -0.0507 -0.2179 -0.0778
10153W        W27000  16.055  18.606   3.452 -0.1019 -0.1386  0.0522
10154W        W27001  12.314  19.490  11.134 -0.0546  0.2163 -0.1282
10155W        W27002  13.042  16.965   3.748  0.2958 -0.0370  0.0841
10156W        W27003  10.933   3.469   1.307  0.2778 -0.0850  0.1390
10157W        W27004   1.052   8.251   2.258  0.1572  0.0893 -0.0406
10158W        W27005   3.141   3.373  12.762  0.0141  0.1350  0.1615
10159W        W27006   6.434  11.339   0.427  0.3717  0.0535 -0.1725
10160W        W27007  12.135   8.414  12.918 -0.2461  0.0268 -0.2997
10161W        W27008   8.948  17.680   2.536 -0.0104 -0.5308 -0.0227
10162W        W27009   5.446  13.943   3.545 -0.1551 -0.1629 -0.3094
10163W        W27010   3.023   3.950   2.617  0.1698 -0.0079 -0.0033
10164W        W27011  17.851  13.947  13.756  0.0439  0.0864 -0.0735
10165W        W27012  12.818   4.287   2.476  0.0092  0.3390 -0.0814
10166W        W27013  18.228  19.629   1.353  0.0033 -0.0193 -0.4841
10167W        W27014  19.869   2.473  13.579  0.0704  0.2965 -0.0227
10168W        W27015  16.047  18.189  10.596  0.3685  0.0134  0.2016
10169W        W27016  15.924   3.938  11.813 -0.1794  0.1403 -0.0215
10170W        W27017   5.789  16.155   4.493  0.1951  0.0190 -0.2562
10171W        W27018  10.560   7.335   3.050 -0.0971  0.1356 -0.1470
10172W        W27019  17.728  15.241   2.730 -0.1012  0.2946  0.2229
10173W        W27020   5.281   4.564   0.749  0.0522  0.1506  0.1183
10174W        W27021  17.421  16.549   4.541 -0.2500 -0.1963 -0.0703
10175W        W27022  17.447  11.900  10.439 -0.0729 -0.1459  0.1588
10176W        W27023  19.332   4.862   0.880  0.1014  0.0428 -0.0415
10177W        W27024  12.849   6.344   1.936 -0.3521 -0.0744  0.1140
10178W        W27025   9.581  10.252  11.638  0.0173 -0.0883 -0.1675
10179W        W27026  15.680   3.786   2.642  0.3315  0.1688 -0.3885
10180W        W27027   3.438   0.914   3.126  0.2395  0.0863  0.2148
10181W        W27028   9.618   0.624   0.102  0.0675 -0.1333  0.0334
10182W        W27029   3.575   9.028  11.889 -0.0215 -0.1807 -0.3059
10183W        W27030   0.269   9.638  13.172  0.1624  0.0621  0.1155
10184W        W27031  19.113  19.599   1.532  0.1716 -0.0418 -0.1823
10185W        W27032  17.397  19.512   0.320  0.0548  0.1808 -0.3697
10186W        W27033  12.814   4.299   5.093 -0.2563 -0.0791 -0.0330
10187W        W27034  11.517  12.206  13.948 -0.3093 -0.0120  0.2617
10188W        W27035   0.158   3.686   3.387 -0.1189 -0.2830  0.2130
10189W        W27036   9.559  11.524   3.921  0.4185 -0.0719 -0.0434
10190W        W27037  11.013   4.218   4.662  0.0063 -0.0308 -0.1128
10191W        W27038   9.850   9.395   0.576 -0.1424  0.1524  0.3127
10192W        W27039  15.325  18.105   2.954 -0.1937 -0.0576 -0.1341
10193W        W27040  14.867  18.520   1.576 -0.0007  0.2336  0.0353
10194W        W27041   6.882   0.289   1.628 -0.0655 -0.3381 -0.1631
10195W        W27042  17.692   9.184  12.805 -0.0999  0.0089  0.0356
10196W        W27043   8.169   3.874   0.853 -0.1927 -0.0816 -0.0447
10197W        W27044  18.613   1.241  11.703 -0.0470 -0.0030  0.1761
10198W        W27045  13.576  18.116   0.360  0.1665  0.0737 -0.1073
10199W        W27046  12.882  16.137  13.205 -0.1226  0.1598 -0.2940
10200W        W27047  14.906   0.113  11.040 -0.0804 -0.1278 -0.1094
10201W        W27048   0.336  11.323   5.636 -0.0352 -0.0901  0.2949
10202W        W27049   2.564   0.310   0.512 -0.1839  0.1060  0.0603
10203W        W27050  14.371  10.382   1.856 -0.2656 -0.0531  0.2167
10204W        W27051  13.965   7.596   3.367 -0.3535 -0.0941 -0.1049
10205W        W27052   0.344  13.966   3.601 -0.1308 -0.3031  0.0168
10206W        W27053  11.266   3.490  12.736  0.1238 -0.3027  0.3209
10207W        W27054  12.114  11.814   2.480  0.1789  0.0661  0.1668
10208W        W27055   8.648   0.490  14.125  0.2776 -0.1160 -0.1856
10209W        W27056  18.749  12.963   4.212  0.0265  0.0140  0.1964
10210W        W27057  16.976  16.754  12.010 -0.2910  0.0358 -0.2303
10211W        W27058  13.463   8.649  10.161 -0.0828  0.0751 -0.2101
10212W        W27059   7.513   1.138  10.067 -0.1626  0.0094 -0.2479
10213W        W27060   4.921  13.024  11.675 -0.1744 -0.0741  0.1633
10214W        W27061  12.468  13.430   9.761  0.0345  0.0112  0.1413
10215W        W27062   7.900   5.367   1.339  0.1678  0.2122 -0.0831
10216W        W27063  11.519   4.889   4.321 -0.3485  0.4629 -0.5770
10217W        W27064   1.076   8.869   2.426  0.0765 -0.0338  0.0273
10218W        W27065  14.876  14.715   1.432 -0.1619 -0.2267 -0.3313
10219W        W27066  16.880   0.038  12.750 -0.2124  0.1156  0.3273
10220W        W27067  13.218  19.115  11.074 -0.0983  0.0630  0.1056
10221W        W27068  13.431   4.157  14.279 -0.1366  0.2559 -0.0205
10222W        W27069   3.079   8.734  11.187  0.0146 -0.3569 -0.1663
10223W        W27070   8.790   0.007   0.568  0.3414  0.2034  0.0253
10224W        W27071   1.175  13.473   1.359 -0.0565  0.2933  0.2640
10225W        W27072   6.796  19.624  12.806  0.2043 -0.3907  0.0960
10226W        W27073  13.798  16.874   4.910 -0.2333 -0.1899 -0.1001
10227W        W27074   0.381   0.618   9.220  0.3082 -0.0390 -0.0144
10228W        W27075  18.825  10.012   4.351  0.3154 -0.0222  0.2506
10229W        W27076   0.838   1.284  10.359  0.3659 -0.3217  0.3724
10230W        W27077   5.019  16.661   3.472  0.1827  0.1099  0.2313
10231W        W27078  16.873   7.215   9.954  0.1822 -0.0159  0.2172
10232W        W27079   8.672   0.033   2.732 -0.3571 -0.2867 -0.3178
10233W        W27080  10.396   7.860  11.440  0.0151  0.1668 -0.1663
10234W        W27081   1.456  15.651  10.838  0.2484 -0.2374 -0.4062
10235W        W27082  18.384   9.708   1.329  0.1990  0.0307 -0.1398
10236W        W27083   6.237   2.804  13.308  0.0036 -0.1271 -0.0461
10237W        W27084  11.496  16.818   3.418  0.1414  0.2043  0.0632
10238W        W27085  19.483  10.172  10.873  0.0667 -0.0664  0.3286
10239W        W27086   5.741  14.465  12.393 -0.0848  0.0001  0.0915
10240W        W27087   4.813   1.425   9.717  0.3153 -0.0543 -0.3075
10241W        W27088   5.287   6.587   5.022 -0.0749  0.0255 -0.0981
10242W        W27089  13.777  10.031  14.133  0.2056 -0.1866  0.2687
10243W        W27090  12.999  15.709  12.911 -0.1774 -0.2874  0.1345
10244W        W27091   7.262   5.498  10.995  0.3651 -0.1438  0.1974
10245W        W27092   4.350   3.431  12.892  0.1432  0.0268 -0.1543
10246W        W27093  16.741  16.177  13.308  0.3143  0.1434  0.0407
10247W        W27094   7.899  16.415  11.637  0.3865  0.2050  0.0595
10248W        W27095  10.445   3.403   0.989  0.1498 -0.0881  0.1850
10249W        W27096  12.833  16.400  10.335  0.0025 -0.0991 -0.1373
10250W        W27097   4.800   9.079  11.512 -0.1542  0.1125 -0.2659
10251W        W27098   4.664  18.379   2.988  0.1062  0.2163 -0.0401
10252W        W27099   8.098   1.927  13.167  0.2883 -0.2802 -0.3031
10253W        W27100  15.923   9.376   0.979 -0.1842 -0.3102 -0.0046
10254W        W27101  10.992   1.487   3.550 -0.1186  0.0530 -0.0320
10255W        W27102   8.520  12.762  12.360  0.0715 -0.5493 -0.1182
10256W        W27103   0.433  14.105   1.540 -0.0737 -0.2680  0.0581
10257W        W27104  10.376   2.727  13.664  0.2587  0.0943  0.0326
10258W        W27105   0.727   7.994  10.184 -0.1943  0.2624 -0.4692
10259W        W27106   2.129   1.867  12.245  0.2615  0.0588 -0.0405
10260W        W27107  15.961   7.131   9.320 -0.1663  0.2329  0.0910
10261W        W27108   6.606   6.823  12.561  0.1439 -0.0787  0.0510
10262W        W27109   2.142   4.125  12.384  0.1121 -0.0786 -0.0788
10263W        W27110  15.294  10.167   1.212  0.1413  0.1445  0.1615
10264W        W27111  19.227   0.567   2.597  0.1739  0.1715  0.0718
10265W        W27112   4.466  10.871   3.992 -0.2095  0.2599  0.0154
10266W        W27113  14.488   7.466  13.949 -0.1375  0.0563 -0.0131
10267W        W27114  15.317  19.067  13.162  0.4048  0.3903 -0.2120
10268W        W27115  14.454   5.558   5.070 -0.0215 -0.0008  0.0420
10269W        W27116  16.265   7.420   9.822  0.0479 -0.0527  0.3786
10270W        W27117   0.894   1.058   0.226 -0.0524  0.2630 -0.0852
10271W        W27118   8.814   5.117   2.324 -0.0923 -0.2080 -0.1677
10272W        W27119   3.667  12.376  13.440  0.1178  0.2231  0.0408
10273W        W27120   6.131  15.426  11.278 -0.0831  0.0674  0.3681
10274W        W27121   4.973  18.453  11.516 -0.4257 -0.0166 -0.2191
10275W        W27122  11.245  19.017   0.255 -0.0717  0.0432 -0.2738
10276W        W27123   9.675  15.778   0.380 -0.1092  0.1273 -0.3621
10277W        W27124   1.830  17.750   1.213  0.0389 -0.0374 -0.2129
10278W        W27125  11.120   4.356  12.532 -0.0996 -0.2463  0.0460
10279W        W27126  14.955  15.856  12.358 -0.2403  0.1290 -0.0607
10280W        W27127  12.409   7.116  11.362  0.1994 -0.1710  0.1953
10281W        W27128  13.905  15.700   9.040 -0.0695  0.4079  0.0427
10282W        W27129  15.638   6.293  13.944 -0.2731  0.0279  0.0063
10283W        W27130  17.572   3.772  12.509 -0.0101 -0.2703  0.1934
10284W        W27131  12.958   5.051  10.290  0.2492 -0.1047 -0.3358
10285W        W27132  12.393   4.058   0.194  0.0597 -0.4458  0.2568
10286W        W27133   1.455  19.068  12.292 -0.1348  0.1153 -0.1592
10287W        W27134   1.568   0.853  10.580  0.2032  0.1153  0.2453
10288W        W27135   8.214  13.574   0.726 -0.3232  0.0383 -0.0744
10289W        W27136  11.993  10.875   3.302  0.4786  0.2138 -0.2017
10290W        W27137   6.411  14.307  13.030  0.0215  0.3539 -0.2923
10291W        W27138   1.014  19.568   4.342 -0.1648 -0.1340  0.0549
10292W        W27139   6.004  17.013  13.408  0.0426 -0.0671  0.0360
10293W        W27140  15.521   6.028   0.465  0.3033  0.4368  0.0151
10294W        W27141  10.616   1.964   4.235  0.0025 -0.0156  0.2054
10295W        W27142  11.646   0.363   4.051  0.3280  0.0686  0.2089
10296W        W27143   7.966   3.641   2.640  0.0312  0.0141  0.0821
10297W        W27144   3.024  11.800   2.413 -0.2061 -0.3335  0.1963
10298W        W27145   9.302  14.722   3.970 -0.0533 -0.0406  0.2488
10299W        W27146  19.750   1.994   1.256  0.3418  0.2232 -0.2116
10300W        W27147  11.076   3.617  10.759  0.0919 -0.0092 -0.3095
10301W        W27148  16.519   6.921  10.077 -0.0895 -0.0047 -0.2753
10302W        W27149  17.643  14.117  12.044 -0.3434  0.2937  0.0050
10303W        W27150  16.142  12.873  10.398 -0.3548  0.2257 -0.2476
10304W        W27151  11.033   1.315   4.554  0.1397 -0.2127  0.2210
10305W        W27152  15.240  17.050   2.885 -0.1942  0.0115  0.1655
10306W        W27153   3.198   3.401   2.094 -0.0911  0.0840 -0.0438
10307W        W27154   8.882  17.220  10.976  0.2239  0.1933  0.0308
10308W        W27155   4.533   8.336  12.615  0.0334 -0.0246  0.0079
10309W        W27156   4.280   0.373  12.637 -0.2145 -0.5097 -0.0344
10310W        W27157   3.104   0.007   0.234 -0.2470 -0.1056 -0.3478
10311W        W27158   2.140  12.203  12.611  0.2325 -0.0820  0.0880
10312W        W27159   6.248   1.082  12.720  0.0006 -0.1144 -0.0100
10313W        W27160   6.868   0.847   3.247 -0.0616 -0.2681 -0.4195
10314W        W27161  17.711  10.321   3.933 -0.2849  0.1916 -0.3441
10315W        W27162   2.615  10.609  10.126 -0.2044 -0.0718  0.0919
10316W        W27163   7.453  15.901  10.449  0.4738 -0.3744  0.3552
10317W        W27164  19.763   1.712   0.865  0.1261  0.0587 -0.3935
10318W        W27165  10.398   8.760  11.003  0.1772 -0.1521  0.3227
10319W        W27166   0.748   3.753  12.556 -0.0623 -0.3248 -0.1798
10320W        W27167   6.415  18.404   2.294 -0.2041 -0.0575  0.1797
10321W        W27168  11.145  11.472   3.458 -0.1547  0.1962 -0.2115
10322W        W27169  12.646  11.001   1.364 -0.1966  0.1539 -0.0844
10323W        W27170   4.692  13.789   0.797  0.0059  0.3030  0.0317
10324W        W27171  17.011   4.570  10.082  0.0151 -0.2222  0.5262
10325W        W27172   5.658   1.168   0.143 -0.3392 -0.1133 -0.0296
10326W        W27173  19.068   4.053   4.124  0.2609  0.0341 -0.0871
10327W        W27174   3.912  13.334  13.537 -0.1379  0.1086  0.0691
10328W        W27175   0.368  16.194   3.376  0.0566  0.0341 -0.0070
10329W        W27176   7.345  19.352   2.586  0.0443 -0.3069 -0.3213
10330W        W27177   5.579   5.777  13.907 -0.0145 -0.3279 -0.0525
10331W        W27178  12.873  16.601  11.788 -0.3901  0.1539  0.0341
10332W        W27179   8.312  13.389   2.293 -0.1445 -0.0878 -0.1202
10333W        W27180   0.323   3.209   3.840 -0.0382  0.0090  0.0062
10334W        W27181   0.129  16.775  11.214 -0.2998 -0.1009  0.1586
10335W        W27182  16.032  17.664   4.885  0.0382 -0.0409  0.1574
10336W        W27183   4.446   7.847  11.949  0.1756  0.0659 -0.2927
10337W        W27184  10.450   3.145  10.191 -0.0382 -0.0001 -0.2097
10338W        W27185   1.087  15.392   1.167  0.0096 -0.2060 -0.3647
10339W        W27186  11.190   8.242   2.815  0.0267 -0.4162 -0.0030
10340W        W27187   2.313  12.787  12.025 -0.0850 -0.0963 -0.1378
10341W        W27188  16.637  12.039   2.856  0.1121 -0.0526 -0.1055
10342W        W27189  16.823   9.088   0.357  0.2222 -0.4587 -0.0095
10343W        W27190   2.119   7.240   2.291 -0.0362  0.1233  0.2080
10344W        W27191  19.383   4.331   0.085 -0.0153 -0.1384 -0.2279
10345W        W27192  12.063   2.916   3.209  0.0470 -0.0304  0.0174
10346W        W27193   5.620   6.498   3.574 -0.1514  0.0154  0.2302
10347W        W27194   9.734  18.631  14.033  0.0452 -0.1357  0.2885
10348W        W27195  16.234  10.394  12.031  0.5155  0.0668 -0.0066
10349W        W27196   7.365  16.416  12.781 -0.1897  0.0014 -0.0273
10350W        W27197   6.901   7.207   3.979  0.2313  0.1441  0.0156
10351W        W27198  15.267  10.602   2.954  0.0420 -0.0319  0.1167
10352W        W27199  14.129  15.424   0.027  0.1600  0.2197  0.1276
10353W        W27200  13.383   4.169   2.425 -0.0061  0.3804 -0.0720
10354W        W27201  16.771   8.506   1.154  0.0537 -0.0882  0.4156
10355W        W27202   7.730   5.570   9.761 -0.0242  0.2830  0.0624
10356W        W27203  12.764  10.494   3.654 -0.0214 -0.1173 -0.0991
10357W        W27204  17.365   4.618   4.371  0.1047 -0.0856 -0.2926
10358W        W27205   4.464   6.022   2.514 -0.1773 -0.0564  0.1121
10359W        W27206  16.415   9.972  14.362  0.3210  0.4084  0.0826
10360W        W27207  19.179   1.810  11.490 -0.0724 -0.0558 -0.1937
10361W        W27208   6.600  19.839   4.552  0.1528 -0.0601 -0.0592
10362W        W27209   5.736   4.301  12.521  0.2491  0.0673 -0.1539
10363W        W27210   0.560   4.295  10.580 -0.0604  0.1748 -0.2549
10364W        W27211  19.722  12.939  10.260  0.0379 -0.2772  0.4681
10365W        W27212  11.445   2.726  11.007 -0.0974  0.2529  0.0570
10366W        W27213   7.719  12.203  11.891 -0.1704  0.3214 -0.1275
10367W        W27214  13.132   5.924   1.649 -0.0039 -0.0245 -0.0323
10368W        W27215   3.956  10.662   5.034 -0.0384  0.0309 -0.0238
10369W        W27216  11.815  14.820   3.831  0.0247  0.1807  0.1100
10370W        W27217  17.845   4.935  10.826  0.4443 -0.2081  0.5198
10371W        W27218  11.224   1.595   4.947  0.2993 -0.1486  0.0557
10372W        W27219   3.199  12.586   1.523  0.2102  0.3549  0.0181
10373W        W27220   6.227  18.328   0.940 -0.0687  0.3845  0.0627
10374W        W27221   8.584  11.901   1.022 -0.2089 -0.0611 -0.0791
10375W        W27222  19.170   5.165   0.548 -0.3129  0.0170 -0.1933
10376W        W27223  18.556   1.473  10.268 -0.1838 -0.0861  0.1993
10377W        W27224   7.409  16.109  11.509  0.0980  0.0686 -0.0340
10378W        W27225  18.627   2.386  12.975  0.0075  0.1933 -0.0786
10379W        W27226   1.828  10.710  12.306  0.0530 -0.0139  0.2267
10380W        W27227   8.566  17.155  13.186  0.2409 -0.2840  0.2571
10381W        W27228  14.712  16.750  10.762 -0.0461 -0.2313 -0.1535
10382W        W27229  16.412  10.716  11.166  0.0537 -0.0213  0.1023
10383W        W27230  15.067   4.664  10.616 -0.0362  0.0129  0.3584
10384W        W27231   9.035  15.960   1.834 -0.0040  0.0684  0.1834
10385W        W27232   1.644   7.221   9.230 -0.1481  0.0109  0.0612
10386W        W27233  11.972   7.713   3.171 -0.0219 -0.1943 -0.1558
10387W        W27234  17.773  17.815  12.206  0.0378 -0.0391 -0.1047
10388W        W27235   4.121   9.332  10.931  0.0493  0.5258  0.2923
10389W        W27236  11.443  17.513   2.122 -0.0593  0.0841 -0.2306
10390W        W27237   8.285  15.460  12.314  0.1450 -0.0549  0.1115
10391W        W27238  15.384   2.800  13.932 -0.1456  0.4110 -0.2138
10392W        W27239  10.701  12.765   2.137  0.0111  0.1527 -0.0152
10393W        W27240   7.134   0.609  10.580  0.2187 -0.0727 -0.1807
10394W        W27241   8.292  16.106  10.411 -0.0932  0.0577  0.2010
10395W        W27242  19.275  11.228   9.690  0.2454 -0.1025  0.1406
10396W        W27243   4.620  16.967  13.631 -0.0233  0.1940 -0.0095
10397W        W27244   8.517   8.857  12.153  0.0462  0.1196 -0.0339
10398W        W27245  18.269  17.496  11.352 -0.1886 -0.4705  0.0383
10399W        W27246  15.123   4.572  14.273  0.0338 -0.0407 -0.2518
10400W        W27247   9.359   5.346  13.079  0.0241  0.0013 -0.0523
10401W        W27248  19.371   9.188   0.464 -0.2785  0.0586 -0.0854
10402W        W27249  15.388  16.295  10.180 -0.1609  0.1747 -0.1919
10403W        W27250   1.273  18.274   1.764 -0.0963 -0.2113  0.0666
10404W        W27251   2.660  10.303  10.503  0.2109 -0.0101 -0.1271
10405W        W27252  15.429  16.347   5.002  0.0217  0.2852 -0.3483
10406W        W27253   1.552   5.444  10.394  0.1639 -0.2203 -0.0728
10407W        W27254   3.220  18.122   1.344  0.2695  0.3513  0.0799
10408W        W27255   8.926   0.378   1.880  0.0734  0.3815 -0.0009
10409W        W27256  18.068  15.264  11.755  0.0999  0.0834  0.1589
10410W        W27257   1.652   4.844   1.035  0.2504 -0.0810 -0.1645
10411W        W27258   4.495  12.414  13.736 -0.2060 -0.3332  0.0450
10412W        W27259  13.545   3.877  10.134 -0.2405 -0.2992 -0.1455
10413W        W27260  15.880   3.352   1.336 -0.3316 -0.2847 -0.3292
10414W        W27261  14.856  18.386   4.555 -0.1119 -0.3136  0.2371
10415W        W27262   3.329  19.594  12.384 -0.1928 -0.2739  0.1927
10416W        W27263   4.883  18.325  10.230 -0.1642  0.1077  0.0475
10417W        W27264  14.141   4.974   4.818 -0.1055 -0.2294  0.0256
10418W        W27265  17.811  17.301   4.566 -0.2094  0.0788  0.0766
10419W        W27266   0.698  19.247   2.917 -0.0926 -0.0657  0.1804
10420W        W27267  15.196   3.134   3.780  0.0635  0.0258 -0.2123
10421W        W27268  10.540  10.176  11.719  0.2838  0.3641  0.2439
10422W        W27269  13.605   2.071   0.897  0.0649  0.2172  0.0719
10423W        W27270   2.710  11.396  11.016 -0.1343  0.0584 -0.2556
10424W        W27271  19.115   6.284   5.130  0.0083 -0.0577 -0.1067
10425W        W27272  16.279  17.585   1.967 -0.2072  0.1244 -0.0979
10426W        W27273   3.459  11.306  12.047  0.1699  0.0757 -0.3516
10427W        W27274  14.598  12.135  11.261 -0.2164  0.1152 -0.1294
10428W        W27275  16.971   5.961   0.112 -0.1547  0.0642  0.1093
10429W        W27276  15.887   3.935  10.804  0.0552 -0.0169  0.0510
10430W        W27277   6.173  10.566   2.105  0.1713  0.1743 -0.2117
10431W        W27278  18.072   4.489  13.521 -0.0880 -0.0304  0.0957
10432W        W27279  12.342  18.260   3.703  0.0579 -0.2811  0.2659
10433W        W27280  19.143   3.097  13.234 -0.4051  0.0832 -0.1990
10434W        W27281   8.107  17.571  14.018 -0.2878  0.2795  0.1818
10435W        W27282   9.888  11.456   0.609  0.0046 -0.1867 -0.1449
10436W        W27283   1.058   2.897   9.594  0.0319 -0.1871  0.0503
10437W        W27284  17.737   1.300  10.525  0.0846 -0.1154 -0.5288
10438W        W27285   0.900  17.334   0.106  0.0427 -0.0978 -0.3394
10439W        W27286  18.905   7.675   1.941  0.0724 -0.5047  0.0642
10440W        W27287  17.976   1.976   4.666  0.2796 -0.5549 -0.2243
10441W        W27288  14.979  19.024  11.525  0.1158 -0.1642  0.1853
10442W        W27289   1.833   8.951   4.110  0.0210 -0.0587  0.1710
10443W        W27290  19.320   6.491   1.230  0.2118  0.0827  0.4052
10444W        W27291  14.075  13.124  11.359 -0.0324  0.1898 -0.0265
10445W        W27292   8.988  11.905  13.052  0.3748 -0.0282 -0.1073
10446W        W27293   4.085  17.379   3.653 -0.0851  0.1598  0.4315
10447W        W27294  18.410   1.454  13.377 -0.4151  0.0624  0.2994
10448W        W27295  10.517  12.408  11.525  0.4315 -0.4379 -0.1711
10449W        W27296   4.256  11.458  11.312  0.1320 -0.2549  0.0656
10450W        W27297   4.913   6.884  10.299 -0.1529  0.0108  0.1147
10451W        W27298  18.490   4.304  13.729  0.2799 -0.2570  0.0388
10452W        W27299   3.938  13.395   5.268  0.1905  0.1031  0.0111
10453W        W27300  15.775   5.746  11.253  0.2488  0.3281 -0.0508
10454W        W27301  19.147  12.953  11.043 -0.2214 -0.1630 -0.2343
10455W        W27302  16.358   3.213   0.113 -0.0247 -0.4950  0.2065
10456W        W27303  17.204  18.339   2.074 -0.1829 -0.1359  0.0658
10457W        W27304   3.152   7.060   3.653 -0.1568  0.0751  0.0491
10458W        W27305   4.754  18.004   0.995  0.0020  0.1940 -0.0509
10459W        W27306   4.553   4.161  11.033  0.1754  0.2674 -0.0420
10460W        W27307  18.640  12.488   1.649 -0.4563  0.0836  0.0115
10461W        W27308   2.292  17.072  12.325  0.0703  0.2399 -0.0006
10462W        W27309   0.459  19.619  11.659  0.0995 -0.0753 -0.0929
10463W        W27310   6.678  15.444   2.247  0.1348 -0.1428  0.0102
10464W        W27311  15.599   7.616   4.527  0.1801  0.0475 -0.0772
10465W        W27312  11.129   5.080   4.572 -0.1101  0.2012 -0.0132
10466W        W27313  10.901  16.982  13.065 -0.0970  0.2995 -0.3427
10467W        W27314   1.153   3.913   3.985 -0.1776 -0.1604  0.3559
10468W        W27315  12.369   3.030   2.701  0.2134  0.1649  0.1644
10469W        W27316  19.374  16.933  13.611  0.2800 -0.2466 -0.3019
10470W        W27317  11.213  15.818  13.888  0.1656 -0.0321 -0.0462
10471W        W27318   9.097  11.009  12.661  0.1864  0.2758  0.1448
10472W        W27319  18.886   4.475   9.345  0.3949  0.2406 -0.0850
10473W        W27320   2.807   0.702   1.295 -0.0180  0.0643 -0.1361
10474W        W27321  13.900   5.258  11.861  0.1317 -0.0370 -0.0852
10475W        W27322  14.590   4.271   3.246 -0.0523 -0.0018  0.0804
10476W        W27323  19.588   9.878   1.714  0.2771 -0.0240 -0.0259
10477W        W27324   7.857   3.793  10.325  0.2585  0.0744  0.0633
10478W        W27325   9.223  17.914   4.487  0.2375 -0.0561 -0.1340
10479W        W27326  11.298  11.750   3.026 -0.4161 -0.0163  0.0112
10480W        W27327  10.283   3.256  13.413 -0.1131  0.2033  0.1234
10481W        W27328  16.861   9.678  14.234 -0.0226  0.0074 -0.1413
10482W        W27329   3.242   3.918  13.536  0.1343 -0.0234  0.0789
10483W        W27330   2.179   5.579   4.495  0.0319  0.0890 -0.0570
10484W        W27331   2.049  13.281  12.653 -0.1179  0.3623 -0.1317
10485W        W27332  13.100   9.862   4.357  0.0193 -0.0112 -0.0254
10486W        W27333   9.953   3.629  10.754  0.0446 -0.0780  0.2524
10487W        W27334   7.861   7.590   1.950  0.1186  0.0326  0.0655
10488W        W27335   5.972   0.901  13.143  0.2144  0.0815 -0.2012
10489W        W27336  14.128  18.047  12.855  0.1799  0.2584 -0.0174
10490W        W27337   7.730   5.665  11.276  0.4899 -0.0404 -0.1271
10491W        W27338   0.766  12.105   3.559 -0.0987  0.3102  0.1606
10492W        W27339  11.343  15.337   2.828 -0.2042  0.0503  0.0962
10493W        W27340   8.539  15.086   2.680  0.0815 -0.0625  0.0341
10494W        W27341   7.231  13.962   1.921 -0.1102 -0.3314 -0.0761
10495W        W27342  18.813  16.593  10.759 -0.0321 -0.0392 -0.1122
10496W        W27343   6.931  15.544   3.995 -0.1289 -0.1730 -0.0725
10497W        W27344  15.541  17.731   2.397 -0.1257  0.0572  0.0853
10498W        W27345  15.602  15.884   0.573  0.0934  0.0820  0.0610
10499W        W27346   6.479  19.851  13.915 -0.0090  0.0811 -0.0893
10500W        W27347   1.065   5.954   3.676  0.0133  0.2691 -0.0689
10501W        W27348   9.775  13.897   3.871  0.3172  0.5998  0.0843
10502W        W27349  10.397   0.589  12.140  0.1791 -0.2742 -0.2299
10503W        W27350  12.234  19.366  12.909  0.1814 -0.0224  0.0274
10504W        W27351   9.092  13.817   0.410 -0.2066 -0.0090  0.0962
10505W        W27352   9.528   6.091   1.437  0.1098  0.2238  0.2071
10506W        W27353  17.135   0.498  12.773  0.1624  0.1820 -0.0601
10507W        W27354  18.835   2.911  10.707 -0.2379 -0.1709 -0.2957
10508W        W27355   9.378  16.477  14.314 -0.1977  0.0210 -0.3016
10509W        W27356  18.008  15.419   3.488 -0.5103  0.1865 -0.0740
10510W        W27357  17.673   4.873   3.212 -0.2924 -0.3204 -0.1336
10511W        W27358  12.370  19.636  13.901 -0.1964 -0.0657 -0.0859
10512W        W27359  10.494   8.377  11.791 -0.3961  0.2863  0.2283
10513W        W27360  18.237  13.491  12.529  0.0908 -0.2287  0.0341
10514W        W27361   4.028  10.898  13.977  0.1568  0.0173 -0.3344
10515W        W27362  14.117  19.451  12.652 -0.0893 -0.2227  0.1016
10516W        W27363   7.923  16.315  12.852 -0.2025  0.0903 -0.0075
10517W        W27364  12.099  14.260   2.154 -0.1771  0.0920 -0.2906
10518W        W27365  11.824  11.979  14.295 -0.2857 -0.2515  0.1621
10519W        W27366   8.750   2.496   0.062  0.3333  0.1507  0.4299
10520W        W27367   2.559  15.970  13.214  0.0753  0.2847  0.0930
10521W        W27368   6.815  19.393   4.671 -0.3317  0.0948 -0.2227
10522W        W27369  15.974   2.190  14.297 -0.0428 -0.1078 -0.3292
10523W        W27370  15.843   1.720   0.122 -0.2576 -0.3285 -0.0651
10524W        W27371   1.100  16.509   2.178  0.0813 -0.2052 -0.0237
10525W        W27372   6.845   2.218   1.318  0.2352 -0.2581 -0.1254
10526W        W27373  18.504  16.139   3.679 -0.1844  0.4187  0.1594
10527W        W27374  18.602  18.619  11.182 -0.0064  0.0404  0.3549
10528W        W27375  13.321   6.466   0.418  0.0677  0.0365 -0.1294
10529W        W27376  11.119   4.771  14.138 -0.0508 -0.0793 -0.0464
10530W        W27377   1.170  19.274  11.197  0.1906 -0.0834  0.3228
10531W        W27378  17.718   1.557  11.957 -0.1115 -0.1932  0.0468
10532W        W27379   2.146   9.507  13.433 -0.0938  0.0533 -0.0349
10533W        W27380   4.082  12.407  11.402  0.0775 -0.4495 -0.0272
10534W        W27381   2.540   0.518   2.463  0.1020 -0.0235  0.4799
10535W        W27382   4.569   9.937   3.688 -0.0312  0.1504  0.0298
10536W        W27383  19.249   2.751   3.910 -0.2015 -0.0480 -0.2548
10537W        W27384  14.051   7.212   3.025 -0.2764  0.1546 -0.0128
10538W        W27385  17.317  14.486   3.366  0.3079  0.0663  0.3209
10539W        W27386  16.328   3.862   2.069 -0.0609  0.3923 -0.2621
10540W        W27387   0.025  13.939  13.580  0.0355  0.0397  0.0555
10541W        W27388   2.049  10.461   0.986  0.1541  0.3594 -0.0342
10542W        W27389  10.451   9.973  12.923  0.1275 -0.1664 -0.0260
10543W        W27390  18.208   6.362   4.912 -0.1456  0.1993  0.0595
10544W        W27391  17.107  15.516   9.979  0.0159 -0.1234  0.0302
10545W        W27392  17.851  12.174   9.705  0.1232  0.2630 -0.2483
10546W        W27393   9.623   6.789  12.773 -0.0704  0.1989  0.1499
10547W        W27394   3.298   8.428   1.403  0.1380  0.3931 -0.1318
10548W        W27395  17.155  10.991  13.942  0.1537  0.0795  0.2192
10549W        W27396   7.882  11.178  11.768  0.1366  0.0378  0.0881
10550W        W27397  10.142   2.398  13.298  0.2015 -0.1375  0.0214
10551W        W27398   9.720  10.813   3.457 -0.2320 -0.4557 -0.0200
10552W        W27399  15.365   4.787  11.201 -0.0032  0.1163  0.0955
10553W        W27400   4.074  17.976   3.929 -0.0548 -0.2067 -0.2366
10554W        W27401   5.735   9.399   0.104 -0.1258  0.1834 -0.5662
10555W        W27402   5.599  16.744   3.457 -0.0156  0.3096  0.0622
10556W        W27403   7.000  16.215   4.661  0.1321  0.3148 -0.0210
10557W        W27404   6.211  15.701  13.306 -0.1726 -0.0344  0.0117
10558W        W27405   4.592  17.988  13.941  0.3360 -0.0039 -0.0004
10559W        W27406  19.461  13.795   1.112  0.1067  0.1969 -0.0887
10560W        W27407   3.013  13.280  13.715 -0.0554 -0.0723 -0.0702
10561W        W27408  11.602  11.680  11.510 -0.1265 -0.3947  0.1857
10562W        W27409  12.807   3.657   0.253  0.2271 -0.1626  0.1078
10563W        W27410   0.647  19.586  12.136 -0.1068 -0.1016  0.1358
10564W        W27411  10.001   1.833   0.896 -0.3042  0.0699 -0.2019
10565W        W27412  12.150   2.622   2.882  0.1323  0.1559  0.3363
10566W        W27413  12.800   9.767   0.713  0.2824 -0.0668  0.0160
10567W        W27414   6.044  16.977   1.252  0.0909  0.0579 -0.2830
10568W        W27415   1.307  15.292   9.175 -0.0316  0.0366  0.1337
10569W        W27416   1.653   7.246   1.546 -0.2383 -0.1389  0.1033
10570W        W27417  11.680   3.435   3.146  0.2249  0.0409 -0.1064
10571W        W27418   8.037  19.150   2.581  0.1766 -0.0668  0.0967
10572W        W27419   4.596  12.225  11.341  0.1677 -0.0952  0.0042
10573W        W27420   8.370  18.866  10.935  0.5333 -0.0369 -0.3262
10574W        W27421  17.098  12.812   3.569  0.2378 -0.1934 -0.2106
10575W        W27422   1.918  17.894   8.909 -0.1355 -0.0763 -0.0448
10576W        W27423  12.404   6.956   0.378  0.2284  0.3785  0.2225
10577W        W27424   7.533   1.229   2.712  0.0354  0.2729 -0.3332
10578W        W27425  12.292  14.877   3.549 -0.2161  0.2205  0.1591
10579W        W27426  10.283   2.344   0.509 -0.0389 -0.0796  0.0302
10580W        W27427   3.626  14.568  11.402 -0.0477  0.2795 -0.0539
10581W        W27428  12.457   5.633   4.417  0.0060  0.0761  0.1114
10582W        W27429   5.495   7.848  11.835  0.2724 -0.2766  0.0648
10583W        W27430   0.748  13.603  12.345  0.1414 -0.2075 -0.1637
10584W        W27431  12.684   4.974   3.175 -0.0284  0.1526 -0.0454
10585W        W27432  15.669  15.419  12.728 -0.4033 -0.3065  0.0952
10586W        W27433   3.362  10.226   1.712  0.0396  0.2203  0.1090
10587W        W27434   1.506  16.908   1.833 -0.1841  0.1244  0.0835
10588W        W27435   8.976   8.138   9.845 -0.0420  0.0632  0.2350
10589W        W27436  17.839   6.433  10.151 -0.3600  0.4156  0.1863
10590W        W27437  10.941  14.838   9.877 -0.0286  0.1360  0.1661
10591W        W27438  17.639   5.510   3.929  0.1639 -0.1471  0.2193
10592W        W27439  13.313  12.853  12.257  0.1595 -0.0738  0.1303
10593W        W27440  12.219  14.216  10.519  0.2369  0.2597  0.1091
10594W        W27441  11.580  17.441  11.599  0.1916 -0.2728 -0.0818
10595W        W27442  10.530   7.747   1.403  0.1127  0.1374  0.2169
10596W        W27443   3.376   7.776   0.349 -0.2389  0.1382 -0.0257
10597W        W27444  14.110  11.598  10.865  0.0548 -0.1266 -0.0542
10598W        W27445  10.295   1.613   3.077  0.1482 -0.1960  0.1137
10599W        W27446  17.526   5.781   1.285 -0.2101 -0.4581 -0.0777
10600W        W27447   8.812   7.288   0.204 -0.1785  0.2002  0.1934
10601W        W27448  16.961   2.048  13.869  0.0953 -0.2402  0.2599
10602W        W27449   8.459  19.854  14.063 -0.5060  0.3376 -0.1740
10603W        W27450   6.498   8.760   3.874  0.0970  0.1674 -0.1721
10604W        W27451   1.664   3.680   4.228  0.3753  0.0429  0.0161
10605W        W27452  12.434   1.338  10.817 -0.0186  0.0071  0.0828
10606W        W27453   2.884   4.883   2.529 -0.2719  0.0046 -0.1533
10607W        W27454   0.982   8.565   1.928 -0.1538  0.2077  0.2192
10608W        W27455   8.499   4.863   2.619  0.1170  0.0161 -0.1876
10609W        W27456   9.613   9.641  12.152  0.1336  0.4355 -0.4018
10610W        W27457   7.447   8.873   3.752  0.0926 -0.0656 -0.0564
10611W        W27458  12.370  17.746   3.866  0.1776  0.7111 -0.1330
10612W        W27459   9.074  18.858   4.121  0.0885 -0.1127  0.2657
10613W        W27460  17.887   5.317  10.523 -0.0108  0.1972 -0.1522
10614W        W27461   8.520  18.147  14.270 -0.2233  0.1843 -0.0139
10615W        W27462  10.281  18.516  12.583 -0.2245 -0.1443  0.2658
10616W        W27463   8.945  16.479  12.146 -0.0272  0.1733 -0.0944
10617W        W27464  15.197  16.246  13.706  0.0514  0.1246 -0.0693
10618W        W27465   9.475  10.868   0.080 -0.1571  0.1983  0.0216
10619W        W27466  18.179  15.630   9.186 -0.1913  0.0547 -0.2571
10620W        W27467   9.568  14.202   1.526 -0.5664  0.1147 -0.1065
10621W        W27468   6.728  14.788   1.662  0.1109 -0.1530  0.2896
10622W        W27469   3.596   1.547  11.203 -0.1210 -0.0216 -0.2506
10623W        W27470  19.708  15.452  11.604  0.2258 -0.0326  0.1043
10624W        W27471  11.597  11.292   0.636  0.1384  0.1786 -0.1739
10625W        W27472   3.514  17.237   1.219 -0.0516 -0.0288  0.0720
10626W        W27473  17.264   1.066   1.311 -0.2345 -0.2633 -0.0526
10627W        W27474  12.210  13.549   1.792 -0.1181  0.2407 -0.0470
10628W        W27475   3.416  16.224  12.331 -0.2303 -0.1934  0.0810
10629W        W27476   3.764  15.372  11.310 -0.1246 -0.0112  0.0089
10630W        W27477  10.016  10.994   3.041 -0.3025  0.1448 -0.0522
10631W        W27478  12.218  15.898   0.610 -0.5159  0.0157 -0.2797
10632W        W27479   9.199  11.325   1.420  0.1437 -0.1006  0.0887
10633W        W27480   5.125  15.473  13.612  0.0306  0.1731  0.0281
10634W        W27481  10.678   2.721  14.094 -0.0887 -0.0808  0.1632
10635W        W27482   2.202  11.129  10.817  0.0014 -0.1644  0.0482
10636W        W27483  19.078   8.550   3.906 -0.0515  0.0153  0.0716
10637W        W27484   8.885   6.520  12.034 -0.0051  0.2595 -0.2010
10638W        W27485   3.812   8.217   4.251  0.3626  0.3977  0.2306
10639W        W27486  10.478  15.306   2.090  0.1306 -0.1065 -0.0235
10640W        W27487   3.072   0.916  11.242  0.2369  0.0313  0.1426
10641W        W27488  12.165   1.044   4.571  0.1051  0.1801  0.0672
10642W        W27489   9.345  19.442   2.907 -0.2238 -0.2232  0.1012
10643W        W27490  13.073   6.342   4.745 -0.0404 -0.0783  0.2960
10644W        W27491   9.102  19.821  10.258  0.1072 -0.1933  0.3768
10645W        W27492   1.552   8.255   3.244  0.0551 -0.0188 -0.4369
10646W        W27493   6.862   6.571   3.953 -0.0374 -0.2680  0.1121
10647W        W27494  13.491  14.521   0.532  0.5177  0.3669  0.2573
10648W        W27495  16.111  15.864  12.086 -0.0018 -0.3292 -0.1131
10649W        W27496  17.591  13.097   0.147 -0.0992 -0.1669  0.1718
10650W        W27497   1.503   4.980   2.945 -0.1795  0.1611 -0.0239
10651W        W27498   3.115   4.866   4.798 -0.2624  0.3489 -0.4762
10652W        W27499   6.418  19.776  13.219  0.2843 -0.0566  0.0777
10653W        W27500  18.139   5.918  11.108 -0.0292  0.2704 -0.2559
10654W        W27501   9.369  15.679   4.853  0.1400 -0.3165  0.0583
10655W        W27502  12.992   4.348   4.581 -0.2078 -0.0900  0.0548
10656W        W27503  10.878  13.733   3.125 -0.0158  0.1080  0.2689
10657W        W27504   2.666  19.760   1.791 -0.1958  0.1264 -0.0881
10658W        W27505   6.299  13.537  10.970 -0.0781  0.2200  0.3160
10659W        W27506   3.036  14.472  13.681 -0.0114 -0.1239 -0.1493
10660W        W27507  13.843   6.745   3.823 -0.0078 -0.3121  0.0669
10661W        W27508   8.353  16.895   0.543 -0.0931  0.1641  0.1607
10662W        W27509  19.354  14.443   4.782  0.2367  0.2611  0.2057
10663W        W27510  12.435   8.964   2.579  0.0116  0.2097  0.1098
10664W        W27511   1.431  14.227   3.059 -0.3051 -0.1657  0.3202
10665W        W27512   6.046  12.679  12.084 -0.2632 -0.0102 -0.0549
10666W        W27513   7.054  17.604   9.944 -0.1514 -0.0431  0.0305
10667W        W27514  13.296   4.359  13.545 -0.0744 -0.1166 -0.3785
10668W        W27515   7.575   2.847   3.245  0.0854 -0.0844  0.0782
10669W        W27516  15.608   5.927  14.272 -0.2685  0.1475  0.1160
10670W        W27517  19.228   7.214   3.688 -0.0194 -0.0910 -0.2152
10671W        W27518  19.814   7.556   1.685 -0.3187 -0.5719  0.0457
10672W        W27519   2.309   5.108   2.096  0.2270 -0.0294 -0.0726
10673W        W27520   8.007  15.698   2.044  0.0815  0.1071  0.1077
10674W        W27521  19.678  16.891   4.042  0.1570  0.0369 -0.1451
10675W        W27522  17.044  18.621  13.669 -0.0765  0.3325 -0.2649
10676W        W27523  14.720   1.691  10.310 -0.1927 -0.0825 -0.0850
10677W        W27524   7.281  14.830  10.359 -0.0965 -0.1299  0.1094
10678W        W27525   9.684   1.787  11.670 -0.0243  0.0678 -0.1296
10679W        W27526  16.208   4.969  10.327  0.1485 -0.1621  0.0975
10680W        W27527   2.467   6.003   0.982 -0.1736  0.0689 -0.2866
10681W        W27528   1.965  12.146  11.227 -0.1451  0.3283  0.0574
10682W        W27529  11.848   6.803  11.942 -0.0832 -0.1087 -0.2271
10683W        W27530  14.126  13.931   1.628 -0.0603  0.0185 -0.0588
10684W        W27531   0.628  11.007   4.596 -0.1335  0.1134 -0.3326
10685W        W27532   5.461   8.092   2.181  0.0486 -0.0003  0.3205
10686W        W27533   0.180  13.729   0.117 -0.1579  0.2621  0.0788
10687W        W27534  13.588   1.877   1.385 -0.0509  0.2034  0.0310
10688W        W27535  18.524  11.998   3.019 -0.0801  0.3529  0.0785
10689W        W27536  19.513  12.704  13.942 -0.0155 -0.0501  0.3708
10690W        W27537  15.132  14.651  10.964  0.3085 -0.0087 -0.0595
10691W        W27538  16.935   7.180   2.845  0.2147  0.1457  0.0312
10692W        W27539  16.386  14.050   4.891 -0.2937  0.4696  0.0191
10693W        W27540   0.330   4.390  12.696  0.0135 -0.1103 -0.0949
10694W        W27541   8.754   1.697   9.713  0.1565  0.1480 -0.1672
10695W        W27542   9.188   6.831  11.761  0.1642 -0.1954  0.0159
10696W        W27543  11.764   4.663   0.560  0.0017 -0.2195 -0.1840
10697W        W27544  13.318   6.766  10.698 -0.3615  0.1955 -0.1265
10698W        W27545  15.264  19.496   9.533 -0.1937  0.1977 -0.3779
10699W        W27546   5.471   1.870  11.507  0.4090 -0.3548 -0.3018
10700W        W27547  12.644   1.153   4.732 -0.1255 -0.3980  0.0330
10701W        W27548   7.320  13.874  13.198 -0.0487 -0.3560 -0.0533
10702W        W27549   9.964  16.387  11.428 -0.5034 -0.2045  0.0618
10703W        W27550   7.045   8.680  11.522  0.2273 -0.0968  0.0322
10704W        W27551   3.273   9.390  10.477 -0.2434  0.4809 -0.2206
10705W        W27552  13.074  14.522  10.262  0.0496  0.1487  0.1658
10706W        W27553  12.212   1.685  12.196  0.0836  0.0435  0.0983
10707W        W27554   1.806   1.284  10.365 -0.1614  0.3478  0.3221
10708W        W27555   9.168   3.899  10.716 -0.0325  0.2519 -0.2152
10709W        W27556  18.584   0.746  14.315 -0.1483 -0.0789  0.0148
10710W        W27557  14.479   3.012   1.245  0.1300  0.2190 -0.0325
10711W        W27558   9.487  16.800   2.442  0.2377 -0.0197 -0.5058
10712W        W27559  12.483  11.539   1.022 -0.0036 -0.1021 -0.3567
10713W        W27560  11.396  16.561  14.341  0.2284 -0.0545 -0.1001
10714W        W27561  17.571  15.132  10.097 -0.3329 -0.1780 -0.0284
10715W        W27562  13.048   9.279  14.228  0.2113 -0.2100  0.3194
10716W        W27563   9.440  13.080  11.545  0.3822 -0.2812  0.1608
10717W        W27564  11.146  13.368   2.795  0.0084  0.2713  0.1516
10718W        W27565  16.624   9.162  14.087 -0.0431  0.0559 -0.2744
10719W        W27566   8.634   3.013   0.341  0.0276  0.0722 -0.2734
10720W        W27567   6.878   5.796   3.187 -0.0380  0.2670  0.1140
10721W        W27568   4.238  18.272  14.132 -0.2575 -0.0901 -0.1277
10722W        W27569   7.237  14.572  11.122 -0.0482  0.0852 -0.6250
10723W        W27570  14.185  14.445   3.046 -0.0690  0.0913 -0.1069
10724W        W27571  17.842   7.381  11.495 -0.2417 -0.2479  0.0055
10725W        W27572   4.561  14.114   0.443  0.0275  0.2598  0.0869
10726W        W27573   4.154   6.368   1.388 -0.1834 -0.1304  0.0050
10727W        W27574  18.942   8.870   0.292  0.2180 -0.2407 -0.2860
10728W        W27575   7.763  15.170   4.541 -0.1330 -0.0617  0.2516
10729W        W27576   9.011   5.407  14.292  0.0390  0.0064  0.1785
10730W        W27577   2.005   6.214   1.024  0.1825  0.0979  0.1603
10731W        W27578  13.789   5.942  12.527 -0.1751  0.1020  0.1158
10732W        W27579  10.204  12.674   4.290 -0.0421 -0.0507 -0.0289
10733W        W27580   6.186  14.071   3.165 -0.0965  0.1529 -0.4318
10734W        W27581  13.276  17.326   0.497 -0.1365 -0.3338 -0.0796
10735W        W27582  14.936  18.500  11.309  0.0127  0.1521 -0.2325
10736W        W27583   2.864  18.128  11.118  0.0245  0.2324  0.2588
10737W        W27584   1.968   2.280   4.383  0.1614  0.1350 -0.3259
10738W        W27585  16.033   8.880   2.981  0.2058 -0.3146 -0.5099
10739W        W27586   6.329  16.518  13.923 -0.0692  0.1154 -0.1144
10740W        W27587  13.443  18.775  12.584  0.2079 -0.0742  0.0324
10741W        W27588  17.501  14.564  12.063 -0.1764  0.3257  0.1471
10742W        W27589   4.578  17.755  11.099 -0.5339 -0.1210  0.1492
10743W        W27590   1.634  15.426   2.960 -0.3741 -0.1969 -0.4076
10744W        W27591   0.782  17.033  12.783  0.2828 -0.2347 -0.4728
10745W        W27592  14.822  12.973   9.046 -0.3155 -0.0967  0.0659
10746W        W27593  19.079   0.889   0.981 -0.1924  0.0302 -0.1665
10747W        W27594  16.433  15.739   2.258 -0.0812 -0.0830 -0.3695
10748W        W27595   3.820   4.898   2.127 -0.2952  0.0403 -0.3009
10749W        W27596   6.449  13.111   2.073 -0.2609  0.2260 -0.0054
10750W        W27597   0.645  17.489  12.939 -0.6691 -0.1149 -0.3441
10751W        W27598   8.063   5.665   2.676 -0.1461  0.1490 -0.1297
10752W        W27599  14.808   3.309   3.536 -0.0407  0.0276 -0.1006
10753W        W27600  16.382   1.793  10.461 -0.1912  0.2495  0.0446
10754W        W27601   1.201   6.771  10.026 -0.1502 -0.1223  0.2623
10755W        W27602  11.532  14.838  12.614  0.0366  0.2864 -0.1926
10756W        W27603   2.141  18.133  13.031 -0.1161 -0.1142  0.1114
10757W        W27604   9.000   3.903   0.561  0.3564  0.0526 -0.1462
10758W        W27605  11.211   9.409  13.601  0.0605 -0.0438 -0.3784
10759W        W27606  19.441   2.575  11.464 -0.0592  0.0678  0.0884
10760W        W27607   8.889  11.075  13.118  0.1081  0.0710  0.1755
10761W        W27608   7.004  18.218   2.637  0.3450 -0.1070 -0.1956
10762W        W27609  15.155   1.897   2.922  0.1777  0.2512 -0.2161
10763W        W27610   3.451  11.093   4.407 -0.1184  0.2319 -0.2654
10764W        W27611  13.550  10.409   0.648  0.0464  0.5009 -0.0745
10765W        W27612  12.654   0.927   3.027 -0.0061 -0.0498  0.0353
10766W        W27613   9.693   1.437  10.667  0.0258  0.0740  0.3101
10767W        W27614  11.133  15.769   2.699  0.1284  0.0677 -0.0414
10768W        W27615  17.554  17.334   1.654 -0.1822  0.0342 -0.0353
10769W        W27616  10.189   4.544  10.223 -0.1161  0.0868 -0.0656
10770W        W27617  19.274  10.305   4.085 -0.1102 -0.2547 -0.0984
10771W        W27618   0.934  14.205  11.404 -0.1251  0.2045  0.1567
10772W        W27619   7.684  14.523  12.514  0.0835  0.0708 -0.2286
10773W        W27620   4.533   1.480  10.154 -0.0836 -0.3094  0.1161
10774W        W27621  12.836   1.513   2.918  0.0231 -0.3076  0.0814
10775W        W27622   1.540   6.464   0.946  0.1408  0.1671 -0.0801
10776W        W27623   6.900   6.754   0.024  0.1501  0.1033  0.0781
10777W        W27624  18.961  16.179   1.041 -0.0235 -0.1664 -0.0485
10778W        W27625  15.965   4.105  13.767  0.1641  0.0186 -0.2842
10779W        W27626  18.299  14.933  12.934  0.1137 -0.1777  0.0664
10780W        W27627   1.836   5.185  12.153 -0.1892  0.3201  0.0337
10781W        W27628   2.710   8.386  12.113  0.0691  0.0264  0.3112
10782W        W27629  15.155  11.207  11.922 -0.1952  0.0279 -0.1276
10783W        W27630  18.043   3.738  12.458 -0.1434 -0.3163  0.1589
10784W        W27631  10.064  12.595   1.309  0.3442 -0.1304 -0.2402
10785W        W27632   3.630   2.506   2.398  0.2624 -0.2516 -0.2352
10786W        W27633   1.885   8.521  12.954 -0.4770 -0.1652  0.0947
10787W        W27634  13.884   5.229  10.297 -0.1129  0.2239 -0.2362
10788W        W27635   6.049   0.990   3.500  0.2022  0.0878 -0.1651
10789W        W27636  19.802   0.727   2.576  0.1674  0.3597  0.0875
10790W        W27637   2.715  13.060   1.331  0.1338 -0.2018 -0.0765
10791W        W27638  14.404  18.689   1.010 -0.0970 -0.1199  0.0904
10792W        W27639  17.046  14.749   2.632 -0.0108  0.2360 -0.3113
10793W        W27640  16.367  18.542  11.281 -0.0943  0.0108  0.0989
10794W        W27641   5.658  12.785   2.166 -0.0046  0.0379  0.2950
10795W        W27642  18.024  16.814   2.603 -0.0429 -0.0539  0.2815
10796W        W27643   7.666   0.904   4.451 -0.1688 -0.1294  0.0566
10797W        W27644  16.486  14.607   2.408 -0.3053  0.3179 -0.1742
10798W        W27645   7.432   0.839  14.281  0.0763 -0.0170  0.3264
10799W        W27646   8.241  19.414  10.857  0.1006  0.0825 -0.0976
10800W        W27647   0.462  17.451   2.897 -0.0426 -0.1918 -0.3180
10801W        W27648  13.484  13.662  11.744 -0.2145 -0.3491 -0.1615
10802W        W27649   4.953  14.356   1.889  0.4281 -0.3296 -0.0350
10803W        W27650   2.262  10.329   9.942 -0.3647  0.1189 -0.0703
10804W        W27651   4.710   7.141  13.502 -0.0248  0.0446  0.0526
10805W        W27652   7.109   4.316   2.165  0.1174 -0.0804  0.1503
10806W        W27653   1.358   3.107   1.347  0.1958 -0.0718 -0.2308
10807W        W27654   5.052  16.555  11.866  0.1224 -0.1793 -0.1389
10808W        W27655   5.241  12.537  10.809 -0.0868 -0.1408 -0.2491
10809W        W27656  13.517  13.615   0.972  0.2081  0.1949 -0.1975
10810W        W27657  15.165   1.100  12.657  0.1481 -0.0761  0.1478
10811W        W27658  13.032  16.025  11.813  0.0734 -0.0608 -0.0893
10812W        W27659   6.826  19.185   9.185  0.3182  0.0067 -0.1398
10813W        W27660   1.519   7.706  12.505 -0.2202 -0.1889  0.0379
10814W        W27661   2.742   2.243   5.118 -0.1180  0.2004  0.1079
10815W        W27662  14.033   1.174   0.230  0.0185  0.3702 -0.1964
10816W        W27663  16.026   9.126  13.141 -0.0024  0.0979  0.1642
10817W        W27664  19.160   2.227   2.819  0.0750  0.2338  0.2360
10818W        W27665   7.026  12.072  12.555 -0.0727  0.0640  0.0216
10819W        W27666   8.267   3.868   3.111 -0.2339  0.2506  0.0780
10820W        W27667  17.084   5.860  10.853  0.2135 -0.1946  0.0234
10821W        W27668  19.284   9.126   2.910 -0.1639  0.0891  0.3706
10822W        W27669  17.722  14.084   2.477 -0.0468 -0.2657 -0.1182
10823W        W27670  11.527  17.439   0.592 -0.0958  0.2759  0.2185
10824W        W27671   0.345  13.863  12.782 -0.0596 -0.1659  0.0818
10825W        W27672  15.087  13.764   9.100 -0.0145 -0.0466  0.3786
10826W        W27673   6.887  14.327  11.996  0.0003 -0.1902 -0.1785
10827W        W27674  10.450  14.178   3.107 -0.2316  0.1468  0.1229
10828W        W27675  13.376   6.170  13.351 -0.1606  0.0586 -0.0018
10829W        W27676   0.377  14.075  13.302  0.4625  0.2996 -0.1110
10830W        W27677  11.054   1.277  10.837 -0.1909 -0.3739  0.0283
10831W        W27678   3.438   0.182  14.212 -0.0300 -0.1926  0.1419
10832W        W27679   3.615   6.834   3.608  0.1439 -0.1835  0.2984
10833W        W27680   2.488  13.834   0.009  0.1592 -0.2746  0.0606
10834W        W27681  15.377  10.695  11.890  0.0052 -0.1214  0.0543
10835W        W27682  18.393  18.486   3.324  0.1970 -0.1975  0.2762
10836W        W27683  11.180   3.939  12.052  0.0649 -0.1710 -0.0459
10837W        W27684  13.020  15.272   0.332  0.0571  0.3493 -0.0989
10838W        W27685  10.912   5.817  12.189  0.2812 -0.3372  0.0465
10839W        W27686   8.237  11.741  11.276  0.1764 -0.1405 -0.0224
10840W        W27687  16.828   8.123   2.119 -0.0474 -0.1175  0.0027
10841W        W27688  16.267   0.784  12.527 -0.1672  0.2895 -0.1050
10842W        W27689   6.898  19.101   3.054 -0.0635 -0.2319  0.0277
10843W        W27690   1.621  17.993  13.955 -0.0246  0.0312  0.0059
10844W        W27691   8.904   3.267   1.049 -0.1163 -0.1800  0.2174
10845W        W27692  19.693   5.745   3.045 -0.4438 -0.3351 -0.1377
10846W        W27693   8.912  11.718   2.907 -0.0386  0.2113 -0.0730
10847W        W27694   0.703   0.691  13.315 -0.2081  0.2553 -0.2587
10848W        W27695  10.538  15.028  10.157  0.0825  0.3015  0.1077
10849W        W27696  12.040   2.743  10.733 -0.3987  0.2866 -0.0947
10850W        W27697   7.148   2.482  10.265 -0.1999 -0.3215 -0.2358
10851W        W27698  15.298   5.128   0.043  0.2479  0.1039 -0.0104
10852W        W27699   9.366   0.982  10.932 -0.0188  0.0619 -0.0698
10853W        W27700   0.272  16.261  10.041  0.1676 -0.0791 -0.1917
10854W        W27701   4.786  13.660  13.038 -0.3321 -0.0079  0.0061
10855W        W27702   1.297   7.008   2.866  0.0127 -0.1401 -0.1697
10856W        W27703   9.757   0.881  11.412 -0.0701  0.2102 -0.1083
10857W        W27704   3.638   1.604   2.516 -0.0730 -0.1227 -0.3861
10858W        W27705  17.882  19.243  12.958 -0.3302 -0.1542  0.1808
10859W        W27706  15.126   8.853   2.576 -0.0742 -0.1366  0.3196
10860W        W27707   6.390  12.139   4.417  0.1929  0.1183 -0.0642
10861W        W27708  15.273  12.599   3.435  0.4464 -0.0510 -0.2458
10862W        W27709  13.332  11.187   2.159  0.1104 -0.2140 -0.3318
10863W        W27710  17.412   1.972   2.793 -0.2189  0.0218 -0.2315
10864W        W27711  15.184   9.130   5.049 -0.1488  0.0012  0.3785
10865W        W27712  19.076   0.322   2.148 -0.1173 -0.3867  0.0172
10866W        W27713   4.362   6.795   1.625  0.2213 -0.2133 -0.4197
10867W        W27714   6.950  18.831   4.821  0.1267 -0.2856  0.4267
10868W        W27715  12.547  12.941  14.352 -0.0424 -0.0862 -0.0264
10869W        W27716  12.176  14.100  12.135 -0.0204  0.2779  0.1419
10870W        W27717  18.291   3.912  10.340 -0.1491 -0.0367 -0.1938
10871W        W27718  10.299  11.991   2.372  0.4241  0.1144  0.0992
10872W        W27719  13.925  18.075  11.152  0.1785 -0.3709 -0.1264
10873W        W27720   2.558  15.316   2.964 -0.1873 -0.0947 -0.2172
10874W        W27721   3.518  16.976   3.851 -0.0024  0.1216  0.2973
10875W        W27722  15.069  19.504   1.176  0.3442  0.1681 -0.0630
10876W        W27723   0.999   6.468   0.117 -0.2061  0.2485  0.1584
10877W        W27724   3.361  12.792  12.645  0.0441 -0.0729 -0.0022
10878W        W27725   0.085  14.456   2.919  0.0660  0.1687  0.0776
10879W        W27726   8.698   5.990   4.332 -0.3323 -0.2200 -0.1585
10880W        W27727  10.288  19.328   0.275  0.5808 -0.0150  0.1348
10881W        W27728   2.804  12.313  10.623  0.0561  0.0180  0.3530
10882W        W27729  15.429  12.426   0.438  0.1346 -0.1135 -0.0068
10883W        W27730  10.879   9.763   1.892 -0.3164  0.1370  0.2230
10884W        W27731   5.761   5.540   2.306 -0.0495  0.0220 -0.0474
10885W        W27732  12.166  18.467   4.396 -0.1442  0.2819  0.1444
10886W        W27733  11.532  16.753  10.736  0.1390  0.0244  0.0923
10887W        W27734  11.906  18.557  14.072 -0.2750  0.0019  0.0224
10888W        W27735   2.593  16.456   1.254  0.2802  0.1394 -0.0312
10889W        W27736  13.036   0.950  14.278  0.3063 -0.1618  0.2864
10890W        W27737   3.293   4.337  13.206  0.0650 -0.3051  0.1607
10891W        W27738   2.243  19.008  13.467 -0.0143 -0.1724  0.0630
10892W        W27739   4.104  12.929   4.121 -0.3143  0.2950  0.0964
10893W        W27740  18.748  16.845  13.598 -0.4412  0.1165  0.0212
10894W        W27741   1.250   4.272  11.616 -0.1620  0.1184  0.2183
10895W        W27742  10.873   8.121   5.300 -0.0507  0.1518  0.2414
10896W        W27743  18.063   1.812  13.967  0.0936  0.3850  0.0200
10897W        W27744   0.413  17.512   3.388 -0.3885  0.0600 -0.1096
10898W        W27745  18.750  19.756  12.555  0.3603 -0.1569  0.2411
10899W        W27746   1.674  13.550  10.633  0.1012  0.2797 -0.0710
10900W        W27747   8.378   1.921   3.218  0.1416  0.1330  0.1158
10901W        W27748  12.118  10.158  13.516  0.0869  0.3177  0.1248
10902W        W27749   2.388  15.504   1.074  0.0183 -0.0867 -0.1874
10903W        W27750  14.346   8.780  14.120  0.2984 -0.1732  0.0319
10904W        W27751  12.293  19.861   2.540  0.0103  0.1499  0.1114
10905W        W27752   6.663  16.451  14.336  0.1969  0.4680 -0.0952
10906W        W27753   7.906  12.875  14.136  0.4192 -0.1200  0.1568
10907W        W27754   6.688   2.962  10.209 -0.2693 -0.2221  0.0408
10908W        W27755  10.490   0.270   9.613 -0.0292 -0.0525 -0.1326
10909W        W27756  18.396   1.879   2.454 -0.1969  0.1088  0.1381
10910W        W27757   3.092  16.649   2.980  0.0047 -0.1605 -0.1246
10911W        W27758  14.957  12.653   0.544  0.0375  0.2666  0.0372
10912W        W27759  15.791   7.906   2.158 -0.2249  0.0604 -0.0109
10913W        W27760  13.467  13.342   0.471  0.0997 -0.3312 -0.2697
10914W        W27761   7.848  19.529  11.647  0.2238  0.3007  0.1041
10915W        W27762  17.525  17.375   3.808  0.2622 -0.1513  0.0899
10916W        W27763  14.881  10.325  13.184  0.1320 -0.0565  0.1549
10917W        W27764   0.902  13.956  10.162 -0.2247  0.0448 -0.4707
10918W        W27765   8.660   2.049   2.588  0.0440  0.0605  0.0008
10919W        W27766  10.659   3.543   2.010  0.4456  0.0590  0.0644
10920W        W27767   6.157   9.522  11.008 -0.2289  0.0611 -0.2372
10921W        W27768  12.104  19.010  13.306 -0.1960 -0.0387 -0.5987
10922W        W27769   0.568  19.825   0.042  0.1243  0.2124 -0.1901
10923W        W27770  15.611   8.756   2.839 -0.2237  0.2624  0.1768
10924W        W27771  17.452   4.280  12.867 -0.1119  0.0783  0.0255
10925W        W27772  11.788   5.214   2.823  0.0712  0.2007  0.0316
10926W        W27773  19.789  10.318  11.201  0.3987 -0.1253 -0.0230
10927W        W27774  18.331  16.037   1.331  0.1064  0.1519  0.2975
10928W        W27775  15.314  11.271   0.376  0.0479  0.0237 -0.1427
10929W        W27776   6.991   5.208   0.015 -0.2525  0.1374  0.0402
10930W        W27777  16.569  12.033  12.721  0.4218  0.5364 -0.2194
10931W        W27778  12.577  15.930   3.624  0.0868 -0.0153  0.1526
10932W        W27779   3.148  15.282   1.790  0.1699  0.2498 -0.1288
10933W        W27780   1.765  10.633   4.785  0.0616  0.0820  0.0614
10934W        W27781  19.312   1.675   1.466  0.4381  0.0631  0.2740
10935W        W27782  18.969   2.512   1.452 -0.2397  0.0538 -0.1474
10936W        W27783   9.588   2.374   2.841  0.1264  0.0791 -0.1182
10937W        W27784  11.165   5.985   3.380  0.2145 -0.1503 -0.2776
10938W        W27785  11.953  17.557   5.028  0.1112  0.0141  0.0736
10939W        W27786   8.899   5.205   1.709 -0.0661 -0.0352  0.2995
10940W        W27787  14.228  16.203   9.408  0.0316 -0.3646  0.5831
10941W        W27788  11.796   1.227   0.555  0.3229  0.1291  0.1834
10942W        W27789  12.216   9.110  12.478  0.3219 -0.0032  0.1786
10943W        W27790   4.008  13.453  11.395  0.0704  0.1284  0.1189
10944W        W27791  15.527  11.774   3.371 -0.2200  0.0544 -0.0838
10945W        W27792  10.192   9.980  13.343 -0.0928  0.2886 -0.2681
10946W        W27793   8.763   7.484   2.245  0.1450  0.1093  0.2099
10947W        W27794  19.549  16.456  10.109  0.2441 -0.2007  0.1859
10948W        W27795  12.062   1.707   3.854 -0.0749 -0.2258 -0.0184
10949W        W27796  10.653   4.451   4.851 -0.4205  0.3931  0.2779
10950W        W27797  15.326  14.694   4.360  0.0774  0.0585  0.2578
10951W        W27798   3.219   5.259   2.446 -0.0711  0.0945  0.0147
10952W        W27799   7.021   6.302   4.773  0.4234  0.2461  0.1817
10953W        W27800  18.285   3.931   1.762 -0.1068 -0.0435  0.5372
10954W        W27801  16.712  18.154   1.758  0.0920 -0.3765 -0.1266
10955W        W27802   5.397  13.168   3.219  0.6028 -0.1819 -0.1375
10956W        W27803  16.746   1.772   3.925 -0.0290 -0.0756  0.1209
10957W        W27804  14.224   8.569  12.146  0.0729 -0.1392 -0.0251
10958W        W27805   2.029  13.482   4.542 -0.0430  0.1095 -0.0325
10959W        W27806   8.164  14.484   3.457 -0.2805 -0.0407  0.0386
10960W        W27807   7.984   5.637  12.802  0.0209 -0.0093  0.0105
10961W        W27808  12.057   8.349  14.288 -0.1287 -0.2583 -0.1174
10962W        W27809  16.123  11.845   2.541  0.1115  0.1000 -0.1749
10963W        W27810  19.581   6.437  13.456  0.2146 -0.3422 -0.0520
10964W        W27811  14.187  16.106  13.578  0.1184  0.0973  0.5155
10965W        W27812  13.421  11.434  11.595 -0.1829 -0.4315 -0.0577
10966W        W27813   8.488   6.013   2.224  0.0932 -0.2198  0.4234
10967W        W27814  13.339   0.845   3.671  0.2570 -0.1533  0.1137
10968W        W27815   9.584  14.605  11.968 -0.3624 -0.0303  0.0990
10969W        W27816  17.286  12.435  11.540  0.1019  0.0492  0.2356
10970W        W27817  10.093   9.177  10.776 -0.4936 -0.0563  0.2403
10971W        W27818   8.577  17.288   2.771  0.0543  0.0427 -0.0390
10972W        W27819   1.319   1.074   3.013  0.0751  0.1308 -0.1316
10973W        W27820   6.928   5.992  11.681  0.5406 -0.3220  0.0391
10974W        W27821   3.778   2.248  10.177  0.1224  0.1468  0.0575
10975W        W27822  12.640   1.544   1.410 -0.3303  0.1223  0.0475
10976W        W27823   8.355   2.002  12.323 -0.3873 -0.0419 -0.2002
10977W        W27824   2.095  15.392   0.723  0.0685  0.0873  0.1195
10978W        W27825  16.932  11.156   4.375  0.1194  0.0331 -0.2698
10979W        W27826  14.738   9.293  12.505 -0.3307  0.1545  0.0826
10980W        W27827  10.480  14.402   2.275 -0.5022  0.2374 -0.0694
10981W        W27828  12.704   3.839  14.095 -0.0276  0.2510 -0.1894
10982W        W27829   7.030  13.199  14.291 -0.2484  0.1990  0.0789
10983W        W27830  19.229   6.154   3.915  0.0618  0.1181  0.1513
10984W        W27831  18.410   8.681  14.296 -0.1495 -0.1308 -0.1532
10985W        W27832  14.172  15.714   0.446  0.1771  0.0094  0.0969
10986W        W27833   5.207  12.139  13.008  0.1977  0.2354  0.0102
10987W        W27834  18.116   2.206   3.709  0.3688  0.4784  0.2757
10988W        W27835  13.389   4.889   0.564 -0.0276  0.1268 -0.0030
10989W        W27836   9.968   0.443  14.055 -0.1129 -0.0393  0.1355
10990W        W27837   2.588  10.554   4.282  0.0584 -0.1352  0.1730
10991W        W27838  17.635  10.221  13.586  0.0951  0.0952  0.0239
10992W        W27839   6.125  10.071   2.238 -0.0105  0.3537 -0.0353
10993W        W27840   1.441  12.553  10.921 -0.1386 -0.1176  0.0080
10994W        W27841  12.841   0.757   3.515  0.2000  0.0766 -0.1942
10995W        W27842  17.909   2.040   2.695  0.0333 -0.1833 -0.0676
10996W        W27843  18.118  18.646  11.185  0.0377  0.0075 -0.2482
10997W        W27844  11.349  19.345  10.236  0.1817  0.2207 -0.3408
10998W        W27845   2.260  11.719  13.772 -0.0393 -0.1474 -0.2910
10999W        W27846   4.212   7.222   2.475 -0.1504 -0.0315 -0.0609
11000W        W27847  10.148   8.618  11.563  0.0126  0.1274  0.2362
11001W        W27848  13.077   5.655   3.954 -0.1230  0.3372  0.1509
11002W        W27849   3.376   3.879  11.459 -0.2260 -0.0156 -0.1454
11003W        W27850   1.356  14.561  10.513  0.3599 -0.0063  0.2470
11004W        W27851  18.854   6.111   0.103 -0.0390 -0.4053  0.0216
11005W        W27852  13.100  10.759  13.866  0.0474  0.0344  0.2160
11006W        W27853  10.824   0.569  11.829  0.3054  0.2026  0.0862
11007W        W27854  12.177  13.454  11.365  0.0824 -0.0317 -0.1140
11008W        W27855   7.441  10.947  11.101 -0.1845 -0.1686 -0.0529
11009W        W27856  19.662   2.504   4.344 -0.4743 -0.1792  0.0361
11010W        W27857  12.266   5.826   3.252 -0.1907 -0.0905 -0.1006
11011W        W27858   1.083  16.634   1.446 -0.0131  0.2628 -0.1088
11012W        W27859  18.298  10.364  14.153 -0.3283  0.1705 -0.0241
11013W        W27860  12.450   5.613  13.063 -0.1541  0.1964 -0.0610
11014W        W27861  11.339  16.183  10.229  0.2264 -0.3139  0.3253
11015W        W27862  15.699   5.902  11.766 -0.1928 -0.2236 -0.0970
11016W        W27863  18.641   5.135  12.843  0.3165 -0.2827  0.4258
11017W        W27864   0.505  15.864  14.126 -0.0288 -0.1101  0.0613
11018W        W27865  14.749  12.151  11.900 -0.2284 -0.0719 -0.1787
11019W        W27866   9.193   3.904  12.823  0.1854 -0.1538  0.0036
11020W        W27867   4.121  14.505  10.691 -0.2226 -0.0156 -0.0415
11021W        W27868  12.786  12.918  12.886  0.0639  0.0053 -0.0624
11022W        W27869  18.837  19.257  11.182 -0.1967 -0.0476 -0.0035
11023W        W27870  11.098  10.417   0.917 -0.2508 -0.0567 -0.0009
11024W        W27871   5.698   4.555   3.467 -0.1476 -0.0530  0.0253
11025W        W27872   4.290  12.947  13.637 -0.0551 -0.2137 -0.0877
11026W        W27873  18.693  19.297   3.236 -0.0474 -0.2255 -0.3800
11027W        W27874  16.050  11.135  14.178  0.2207  0.0258 -0.1131
11028W        W27875   4.972   2.758   0.797 -0.2546  0.0896 -0.2087
11029W        W27876   9.825   9.348   9.878  0.0897 -0.1521  0.2406
11030W        W27877  14.425  16.406  11.961  0.0470 -0.0492  0.0688
11031W        W27878  19.115  19.702  10.208  0.0847  0.3646 -0.0090
11032W        W27879  10.594  14.189  10.331  0.2172  0.1739  0.0159
11033W        W27880  13.232   3.105  10.289 -0.1397 -0.0543 -0.3623
11034W        W27881   8.482  19.643   3.900  0.1325 -0.2909  0.0563
11035W        W27882   7.594   4.324   3.427 -0.0958 -0.1580  0.1474
11036W        W27883  17.014   4.587  12.484  0.0220 -0.1130 -0.0721
11037W        W27884  10.050   1.433  14.064  0.2085 -0.1383  0.1129
11038W        W27885   1.472   6.240  13.158 -0.2069  0.3357 -0.1751
11039W        W27886  18.083  15.169   3.045 -0.2172 -0.2865  0.1582
11040W        W27887  10.294  11.051  11.307  0.1063 -0.2220 -0.0347
11041W        W27888  19.550  17.723   0.407 -0.2945  0.2747 -0.1916
11042W        W27889  16.583  19.320  13.310  0.0308  0.2125 -0.1334
11043W        W27890  12.588  17.312  11.132  0.0053 -0.2157  0.0409
11044W        W27891   8.509   9.027   0.035 -0.2424  0.2646  0.2044
11045W        W27892  14.777   5.823   2.083 -0.1706  0.1535  0.4180
11046W        W27893  10.080   0.541   1.367 -0.1916 -0.3194  0.0632
11047W        W27894   4.141  15.042  10.621 -0.3832 -0.2253 -0.1709
11048W        W27895  10.443   1.556  11.353  0.2140 -0.2961 -0.1334
11049W        W27896   2.687  19.351  12.047  0.0302 -0.1928  0.0551
11050W        W27897  11.341   4.799  10.132  0.2788  0.1219  0.0521
11051W        W27898   5.998  11.422   0.724  0.1604  0.2581  0.0299
11052W        W27899   3.367  15.875   2.260 -0.3052  0.2996  0.0864
11053W        W27900   9.817  11.583   4.313 -0.0025  0.2115  0.2178
11054W        W27901   0.238   5.536  11.212  0.1439 -0.1490  0.3899
11055W        W27902   3.962   6.435  13.326  0.0223  0.2572  0.0885
11056W        W27903  10.402  15.224  13.635 -0.0741  0.2304  0.1728
11057W        W27904   8.896  10.772   4.182  0.0499 -0.0374 -0.1317
11058W        W27905  12.654  16.576   1.212  0.3451  0.0980 -0.0927
11059W        W27906  16.766  14.585   0.511  0.2378  0.2198  0.2516
11060W        W27907  11.383  16.964  12.043 -0.4172 -0.1317 -0.2085
11061W        W27908  17.212   4.170  10.909 -0.1619  0.1553 -0.0738
11062W        W27909  14.109   4.813   4.321 -0.0343 -0.2329 -0.0506
11063W        W27910  11.365   6.172  14.173  0.0804 -0.3517 -0.0175
11064W        W27911   1.097   2.492  12.582  0.0091 -0.1532 -0.0994
11065W        W27912   3.695  11.916   4.246 -0.0239 -0.1137 -0.1801
11066W        W27913  10.870   8.503   2.130  0.0262 -0.2120 -0.1713
11067W        W27914   4.034  18.494  11.212 -0.1841  0.3702 -0.0279
11068W        W27915  17.619   0.771  11.175  0.1734 -0.0989  0.0958
11069W        W27916  16.638  17.121  12.138  0.3125  0.2056  0.3240
11070W        W27917  12.228   3.544   4.855 -0.3302  0.1323  0.1451
11071W        W27918   4.860   0.944   5.145  0.1294 -0.2758 -0.1517
11072W        W27919  10.474  16.841  12.795  0.3096 -0.0142 -0.3794
11073W        W27920   3.865   2.415  13.692  0.0334  0.0091 -0.2247
11074W        W27921   7.160  11.379   3.678 -0.1432  0.0165 -0.3652
11075W        W27922   5.473   0.441  10.040 -0.0189  0.2653  0.1077
11076W        W27923  14.013   6.237   3.958  0.1534  0.0491 -0.2735
11077W        W27924  13.317   9.449  11.666 -0.0218  0.2444 -0.1662
11078W        W27925   0.261  10.147  11.551 -0.0403 -0.3178 -0.0940
11079W        W27926  11.772   9.562   0.614 -0.0306 -0.3123  0.1533
11080W        W27927   2.169   3.309  11.972  0.2683 -0.1653 -0.2029
11081W        W27928  16.966  12.496   0.338  0.0226 -0.0200 -0.1899
11082W        W27929   6.468   2.043   0.321 -0.0485 -0.1064 -0.0298
11083W        W27930   0.383   7.945   0.857 -0.1433  0.0764 -0.2223
11084W        W27931   5.020  16.141   0.580  0.3444  0.1160 -0.1050
11085W        W27932  10.037  18.688  13.402  0.2630  0.2089  0.1692
11086W        W27933   1.261   3.371  12.605 -0.3369  0.0284  0.2257
11087W        W27934   2.872  15.921   3.794  0.0934 -0.2681 -0.1767
11088W        W27935   6.675  13.724   0.210 -0.1070  0.0773 -0.1448
11089W        W27936  16.437  15.652  11.384 -0.4939 -0.4592  0.1306
11090W        W27937   0.112   5.223   4.668  0.3420  0.1362  0.2300
11091W        W27938   2.869   8.098   4.184 -0.1416 -0.2839  0.2224
11092W        W27939   4.875   3.680   1.976 -0.1292  0.0402 -0.2595
11093W        W27940   5.161   9.441  13.589  0.0404 -0.1358  0.3070
11094W        W27941  13.825  12.678   9.536 -0.2634  0.2083 -0.1817
11095W        W27942   2.558   0.523  14.013 -0.2334  0.1321 -0.1721
11096W        W27943   9.277  19.634   8.967 -0.1752 -0.3210 -0.0876
11097W        W27944   2.947   8.380   4.645 -0.5399  0.0928  0.0404
11098W        W27945   8.478  10.216   2.044  0.0135 -0.4067  0.2717
11099W        W27946  10.394  17.038  10.467  0.0164  0.0162  0.1213
11100W        W27947  13.957   2.934  12.258  0.2303  0.1717 -0.3020
11101W        W27948  15.235  17.632  13.661  0.0483 -0.1083 -0.0343
11102W        W27949  10.579   0.474  14.165 -0.1487  0.0169  0.0084
11103W        W27950   5.327  10.292   0.686 -0.1321  0.1883 -0.0224
11104W        W27951   9.852   4.134  11.833  0.0563  0.0237 -0.2888
11105W        W27952  17.663  14.635  13.396  0.3284 -0.1953  0.1120
11106W        W27953  19.626   2.326   3.791 -0.1637  0.0550  0.3866
11107W        W27954   1.929  11.113  13.089  0.1066  0.2025  0.6106
11108W        W27955   7.811  10.667   0.012  0.2022 -0.0107  0.1041
11109W        W27956   7.857  15.722   3.186  0.1095 -0.1223  0.0833
11110W        W27957   9.626   7.799   4.355 -0.0048 -0.1094 -0.6089
11111W        W27958  13.073   0.474  12.866 -0.0326  0.0856 -0.2217
11112W        W27959  16.060  10.978   3.832 -0.1695  0.1153 -0.2613
11113W        W27960  14.654  12.091  12.457 -0.0907  0.0304  0.0957
11114W        W27961   3.874   1.785  13.889 -0.1024  0.1001  0.2043
11115W        W27962   9.821   0.635   2.245  0.1575  0.2166  0.1812
11116W        W27963   2.230   6.822   4.522 -0.1691  0.1018 -0.2661
11117W        W27964   5.976  13.390   5.238  0.0156  0.0763 -0.2007
11118W        W27965   9.937   1.813  12.655  0.1401 -0.0097 -0.1543
11119W        W27966   2.493  11.452  11.821  0.2115  0.2376  0.3449
11120W        W27967  15.882   7.831   4.107 -0.0435 -0.1498  0.0857
11121W        W27968   2.163   5.948   0.552 -0.3521  0.2504  0.0418
11122W        W27969  17.967  14.590  13.021  0.1407  0.1843  0.3041
11123W        W27970   0.892   1.794   0.215 -0.0616 -0.2677 -0.0569
11124W        W27971   3.326   5.098   1.177 -0.2818 -0.2047  0.0441
11125W        W27972   1.180   0.845  13.390 -0.0712  0.0572  0.4343
11126W        W27973  11.971  14.577   4.644  0.0704  0.1630  0.0072
11127W        W27974  12.782   1.985  10.290  0.0129 -0.1544 -0.0154
11128W        W27975   4.546   4.778  14.061  0.0995 -0.0692 -0.1955
11129W        W27976  11.509  16.161   0.333 -0.0959  0.2432 -0.0995
11130W        W27977  16.131  19.090   3.338  0.0301  0.0943  0.2251
11131W        W27978   7.567  11.246   1.118 -0.2762 -0.0354 -0.1013
11132W        W27979   7.350   4.931   3.117  0.1709  0.2233 -0.1063
11133W        W27980   2.829   6.094   4.611 -0.2340 -0.1278 -0.0502
11134W        W27981   1.444   5.875   4.505  0.4224  0.0161 -0.1129
11135W        W27982   2.124   7.153  13.678  0.0346 -0.4159 -0.0606
11136W        W27983  19.052  15.571  12.288  0.2724  0.0776  0.0315
11137W        W27984  19.379  11.046  14.019 -0.0969 -0.1693  0.0051
11138W        W27985  13.388  12.468  11.869  0.2199 -0.4586 -0.1010
11139W        W27986   4.269   6.744  12.934 -0.0626  0.1492  0.0174
11140W        W27987  18.329   7.067   3.398  0.2240  0.0612 -0.2967
11141W        W27988   4.717  16.979  12.018 -0.0145 -0.0887 -0.1591
11142W        W27989  11.909  10.747   2.421 -0.1801 -0.2554  0.0965
11143W        W27990  14.937  15.694  10.959  0.0781  0.1195 -0.2742
11144W        W27991  11.904   6.317   3.827  0.0747 -0.0085  0.0349
11145W        W27992   3.860   1.353  10.691  0.0387  0.3255 -0.4715
11146W        W27993  16.312   7.530   4.075  0.1144  0.0013 -0.0368
11147W        W27994   9.245  19.229   2.305  0.0082  0.2114 -0.0083
11148W        W27995   2.631  14.040  12.613  0.0966  0.2031 -0.0756
11149W        W27996   0.794  14.395  10.889  0.0113 -0.0602 -0.1709
11150W        W27997  19.056   9.195  10.425 -0.3214  0.1118  0.0685
11151W        W27998   9.991  10.028   4.770 -0.3763  0.2287  0.2002
11152W        W27999  17.611   7.867   5.238  0.1532  0.3165  0.2858
11153W        W28000   0.808   7.662  12.581 -0.0817  0.0127 -0.2195
11154W        W28001  16.944   7.784   3.048 -0.0284 -0.1131  0.0663
11155W        W28002   4.801   3.814  10.101 -0.2294 -0.0427  0.2755
11156W        W28003   1.792   1.842   0.244 -0.0842 -0.0753  0.2227
11157W        W28004  14.774  14.101   5.031 -0.2610  0.2974  0.1683
11158W        W28005   0.628  10.233   4.048 -0.1888  0.1912  0.0689
11159W        W28006   2.300   2.695   1.425 -0.0430  0.2922  0.2500
11160W        W28007  12.799   6.850  12.125  0.1661 -0.0759  0.1329
11161W        W28008   1.113  17.691  11.891  0.1348  0.1095  0.3390
11162W        W28009   1.271  14.847  11.362 -0.0934 -0.0053  0.0442
11163W        W28010  19.262  17.692   1.756  0.1966  0.2980  0.2976
11164W        W28011  18.422   4.174   9.136  0.3289 -0.2474 -0.2049
11165W        W28012  16.582  18.200  11.013  0.0338 -0.0951  0.0019
11166W        W28013  14.029   8.542  13.166  0.1462  0.0437  0.2356
11167W        W28014   2.494  10.541   5.128 -0.1232 -0.4180 -0.0135
11168W        W28015   9.879   3.575  13.249 -0.1026 -0.2275 -0.0792
11169W        W28016  19.314  11.915   4.420  0.2805 -0.0455 -0.0596
11170W        W28017  14.717  11.758  12.919 -0.3761 -0.0557  0.0553
11171W        W28018  13.881   8.576  14.219 -0.3367  0.0971  0.2668
11172W        W28019  13.207  10.921  13.439  0.2037 -0.3910  0.2243
11173W        W28020   4.542  15.536   0.620  0.0515 -0.0220 -0.0166
11174W        W28021  16.547  17.003   3.781 -0.2371 -0.1794  0.0108
11175W        W28022   9.667   2.172   9.442 -0.2383 -0.0181 -0.1060
11176W        W28023  15.461   6.637   2.771  0.0388 -0.0016 -0.0847
11177W        W28024  15.705   9.218   9.967 -0.1178 -0.3529 -0.0229
11178W        W28025   4.687  15.444   3.523 -0.1821 -0.0383  0.3084
11179W        W28026  12.091  17.837  12.636  0.0690 -0.3195 -0.3180
11180W        W28027   0.648   8.743  12.607  0.1763 -0.1431 -0.3352
11181W        W28028  19.331  17.821   3.897 -0.1856 -0.4615 -0.0061
11182W        W28029   1.806   7.371   2.969  0.0272  0.2968  0.0098
11183W        W28030   9.520  15.096  12.001 -0.2898 -0.3316 -0.1426
11184W        W28031  16.160   8.778   9.350 -0.0879  0.1935 -0.0593
11185W        W28032   3.243  13.883  13.261 -0.2157  0.0830 -0.1860
11186W        W28033   7.583   9.140  13.893 -0.2147 -0.1948 -0.1069
11187W        W28034  13.706  10.373   1.915  0.1705 -0.0994  0.1363
11188W        W28035   1.824   5.194   5.147 -0.0408 -0.3082  0.0807
11189W        W28036  19.697   9.151  13.926 -0.0269 -0.1018  0.2006
11190W        W28037  10.714  19.864   4.597  0.2991  0.2936 -0.0395
11191W        W28038  12.992  16.206   5.026 -0.3384  0.0765  0.0092
11192W        W28039  19.723  13.382   0.791 -0.1143 -0.0601  0.0208
11193W        W28040   4.951  11.670   2.005 -0.0011 -0.0378 -0.0552
11194W        W28041  19.873   9.235   3.406  0.0194 -0.3443 -0.2504
11195W        W28042   8.599   0.205  11.538 -0.0440  0.0194 -0.1125
11196W        W28043   5.249  12.891   1.410  0.1695 -0.3204 -0.0982
11197W        W28044   1.034  10.477   3.076 -0.3358  0.2933 -0.1076
11198W        W28045  15.962  18.515  10.119 -0.1725 -0.1525  0.0950
11199W        W28046  10.533   5.712   0.530  0.3575  0.1358  0.1496
11200W        W28047  14.793  18.502   4.055  0.0287  0.1386 -0.2519
11201W        W28048   0.903  16.392   2.692  0.1949 -0.0774 -0.0649
11202W        W28049  16.528   6.754  14.044  0.1228  0.1780  0.2250
11203W        W28050  18.982  15.963   2.514 -0.1450  0.0829  0.1097
11204W        W28051  17.683  18.118   1.810 -0.0279 -0.1488  0.4269
11205W        W28052  19.838   1.833   1.749  0.0603  0.2858  0.0546
11206W        W28053  11.658  15.055   3.445  0.1394 -0.4106 -0.3424
11207W        W28054   4.973  13.900   1.219 -0.2014 -0.2576 -0.1440
11208W        W28055  10.612  16.249   2.069 -0.0516  0.0365  0.1211
11209W        W28056  16.427  14.059  11.203 -0.0739  0.0560 -0.0640
11210W        W28057   6.590  10.104   1.928  0.2082 -0.3294  0.3302
11211W        W28058  19.314  18.457   3.277  0.0255  0.1063  0.6543
11212W        W28059  19.718   3.903  14.013 -0.0667  0.2469 -0.0175
11213W        W28060   3.342   0.857  14.191 -0.0763  0.1420 -0.2943
11214W        W28061  10.606   0.616   0.651 -0.4425 -0.2769 -0.2042
11215W        W28062   2.824  19.638  14.199  0.1389  0.0323 -0.0227
11216W        W28063   0.112  19.327   0.765  0.0547 -0.1423  0.2586
11217W        W28064   2.806  11.248  11.478  0.0697  0.2004  0.3100
11218W        W28065   1.952   2.069  11.770 -0.0904  0.0980 -0.1085
11219W        W28066   6.254  14.672   2.256 -0.0150 -0.1167  0.5018
11220W        W28067   2.104  10.605  13.113 -0.2680 -0.0714  0.3462
11221W        W28068   7.681  13.367  10.530 -0.3869 -0.2141  0.0609
11222W        W28069  19.726   1.648   2.205 -0.0746  0.0267 -0.1688
11223W        W28070  11.522  13.355  10.289 -0.3495  0.1286 -0.1651
11224W        W28071   8.010  15.665   9.879  0.1005  0.2345  0.1323
11225W        W28072   3.031   6.694   4.776 -0.2002 -0.1833  0.1278
11226W        W28073  17.736  19.000   4.076 -0.2235 -0.1041 -0.2156
11227W        W28074  12.933  12.282  12.732 -0.2041 -0.0865  0.0470
11228W        W28075   5.366  14.386  10.339  0.3299  0.0221  0.2782
11229W        W28076   4.512   3.469  10.554  0.1263 -0.5979  0.3939
11230W        W28077   8.283   9.498  12.291  0.0570 -0.3779 -0.2095
11231W        W28078   5.534   3.605  11.071 -0.1173 -0.3053 -0.0427
11232W        W28079  10.858   5.320   4.962 -0.1639 -0.1585  0.1188
11233W        W28080  11.120  11.226   4.561  0.0612  0.0482 -0.1915
11234W        W28081  14.247   3.091   0.205 -0.0113  0.0229  0.2749
11235W        W28082   5.030   3.563  12.877  0.1582 -0.1292 -0.2814
11236W        W28083  13.896  11.636   1.924 -0.0192  0.0178  0.4219
11237W        W28084   6.198   2.792  10.331  0.0346 -0.0592  0.0106
11238W        W28085   6.955   3.966  13.788 -0.1789  0.2708  0.0633
11239W        W28086   9.825  19.239  10.414 -0.1878  0.1030 -0.0767
11240W        W28087  17.820   4.804  13.895 -0.1247  0.0557 -0.1817
11241W        W28088  16.866  11.405   3.979 -0.2887  0.2982  0.2757
11242W        W28089   1.024  16.584  12.502  0.1973  0.2328 -0.0312
11243W        W28090  13.376   5.207  10.622 -0.1672 -0.0424 -0.0201
11244W        W28091  12.481  15.711   1.493  0.0226 -0.1017 -0.4909
11245W        W28092   9.478  11.580   2.372 -0.1491 -0.0551  0.3896
11246W        W28093  15.981   5.393   3.576 -0.1656 -0.4482  0.0936
11247W        W28094   7.030   1.376   0.036  0.0614 -0.0754 -0.1320
11248W        W28095  19.666  18.055  10.977  0.1015 -0.2896 -0.0291
11249W        W28096   5.841  14.661  11.636  0.0352 -0.2748 -0.1454
11250W        W28097  14.479  15.646   2.053  0.0438 -0.2499 -0.0444
11251W        W28098  10.820   9.050   4.429  0.0368 -0.2387 -0.0463
11252W        W28099  18.015   7.731   1.634  0.0576  0.3061  0.2140
11253W        W28100   9.280   0.988   3.103  0.0087  0.5651 -0.1379
11254W        W28101   4.060  18.623  10.719 -0.0107  0.0043 -0.4421
11255W        W28102  19.884   3.937  11.865 -0.0070  0.1177  0.1958
11256W        W28103  16.978   4.673   2.957 -0.0240  0.1052 -0.2568
11257W        W28104  14.428   0.575   1.958 -0.0837  0.1409 -0.2796
11258W        W28105   7.336   8.059   4.982 -0.0317 -0.3038  0.1769
11259W        W28106   0.513   4.213   4.157 -0.0897 -0.0802 -0.0738
11260W        W28107  10.969  16.261  14.356 -0.1266 -0.2493  0.3370
11261W        W28108   5.494  12.071   2.712 -0.1302  0.0435 -0.3082
11262W        W28109   2.528   7.189   4.316  0.0783  0.0038 -0.3112
11263W        W28110   4.151  13.806   0.664  0.1105  0.1930  0.1367
11264W        W28111   2.774   6.393   1.282  0.1279 -0.1127 -0.2577
11265W        W28112  10.466   9.272  14.285 -0.1989 -0.1008  0.1295
11266W        W28113   8.105   7.937  14.031 -0.1323 -0.0142  0.0128
11267W        W28114  13.506   2.193  11.182  0.6716 -0.0807  0.0653
11268W        W28115  19.233  19.053  12.627  0.0251 -0.3179 -0.0253
11269W        W28116   8.507  15.752   1.961 -0.1720 -0.1696  0.3287
11270W        W28117  11.562  12.845  10.146 -0.1283 -0.0471 -0.3096
11271W        W28118  19.231  19.000   4.032  0.0610 -0.0706 -0.1415
11272W        W28119  10.400  10.374  13.643  0.1208  0.1303  0.6558
11273W        W28120  12.932   8.989   2.392  0.2601  0.1277  0.0609
11274W        W28121  16.563   5.610  13.764 -0.0026 -0.1430  0.1127
11275W        W28122  18.088   0.413  11.774  0.0838  0.0728 -0.2303
11276W        W28123   2.750  16.951   0.643  0.1187  0.1342 -0.3027
11277W        W28124   4.701  12.560   0.050  0.3870  0.0318 -0.3634
11278W        W28125  10.473  15.654  11.722  0.1126  0.0597  0.2410
11279W        W28126  11.352   2.400  13.897  0.2597 -0.0598 -0.1293
11280W        W28127   2.861  18.957   3.066 -0.0321  0.3879 -0.2075
11281W        W28128   5.443   1.042   0.707  0.2985 -0.1083 -0.1425
11282W        W28129   5.606   1.735   3.869 -0.1973 -0.0235 -0.0405
11283W        W28130  18.067  18.912  13.313 -0.0207  0.0804 -0.0880
11284W        W28131   6.669   8.608  12.268  0.0347  0.3344 -0.3038
11285W        W28132   7.718   0.973   0.329  0.0346 -0.1151  0.0823
11286W        W28133   1.078  19.089   0.571  0.4500  0.1541 -0.0259
11287W        W28134  13.962   6.337   2.352  0.2044 -0.0386  0.3122
11288W        W28135  10.080  10.667   9.904 -0.0985  0.0773 -0.1574
11289W        W28136  15.164   2.860  11.530  0.1942 -0.1589 -0.2104
11290W        W28137   4.794   5.105  11.576 -0.5858  0.2056  0.1995
11291W        W28138  16.118   5.726   2.235  0.0637  0.2129  0.1093
11292W        W28139   0.496   5.762   1.251  0.2448  0.1271  0.1373
11293W        W28140  15.808  19.106   2.718  0.0033  0.2645  0.3095
11294W        W28141   9.636   9.447   0.126  0.1049  0.1359 -0.6760
11295W        W28142  18.996   7.644  12.135  0.1787  0.2358  0.0842
11296W        W28143   1.451  12.127   0.940 -0.2506  0.2459  0.1871
11297W        W28144  18.732   7.400  12.553  0.1569  0.1662 -0.1605
11298W        W28145   4.622  17.266  14.107 -0.2292 -0.1075 -0.0644
11299W        W28146   5.390   2.115   9.423 -0.0752 -0.0161 -0.0085
11300W        W28147  16.653  11.033   1.427  0.0210  0.1597  0.2482
11301W        W28148  17.976  17.277  11.007 -0.1239  0.2980 -0.0640
11302W        W28149   8.845   4.678  12.520 -0.2085  0.0804  0.2047
11303W        W28150   5.891   5.755   3.058  0.0048  0.2409  0.0866
11304W        W28151  14.977   8.154  14.241 -0.2552 -0.1754 -0.0557
11305W        W28152  13.535   8.218  12.004  0.3670  0.1307 -0.2814
11306W        W28153   0.268  14.994   1.505 -0.1303  0.0781  0.1805
11307W        W28154  10.034  16.654   0.383  0.2268  0.0484 -0.2337
11308W        W28155  16.809   0.511  12.013  0.0234 -0.1380 -0.1987
11309W        W28156  12.365   6.247   2.795  0.1808 -0.0899  0.2314
11310W        W28157   5.559   5.018   0.893 -0.0200 -0.0932  0.0284
11311W        W28158  13.687   0.771   1.482  0.0526 -0.2741 -0.1718
11312W        W28159   5.703  10.295  13.941 -0.0443  0.0217 -0.0658
11313W        W28160   3.908   9.671  11.200 -0.0242 -0.1232  0.1845
11314W        W28161  17.773  12.150   9.232 -0.1516  0.4176  0.3286
11315W        W28162  14.873   2.604  10.183 -0.0136 -0.0270  0.3976
11316W        W28163   5.237   5.105  13.507  0.3188  0.0394  0.2852
11317W        W28164  17.933  14.395   2.850 -0.0736 -0.0064 -0.1259
11318W        W28165  12.059  10.088   3.213 -0.4136 -0.0810  0.3423
11319W        W28166  12.045   4.898  12.686 -0.3259  0.0717 -0.0878
11320W        W28167   5.002  11.886   2.873  0.1428 -0.1089 -0.2814
11321W        W28168   8.329   4.762   3.453  0.1473 -0.0707  0.1205
11322W        W28169   0.170  13.854  10.550 -0.1283 -0.1093  0.2023
11323W        W28170   5.491   7.473  11.448 -0.2968  0.3086  0.0259
11324W        W28171  17.914   8.126   1.181  0.1699  0.0726  0.0457
11325W        W28172  17.677  18.537   4.887  0.0996  0.0407 -0.2020
11326W        W28173   0.361   8.697  10.626 -0.1981  0.0551  0.2029
11327W        W28174  15.261  16.614   2.170  0.4204  0.2298 -0.0721
11328W        W28175   6.775   5.012   9.841  0.4049 -0.3268 -0.1006
11329W        W28176  18.336   1.235  11.191 -0.1725 -0.0673 -0.2067
11330W        W28177   0.755   1.077   3.466 -0.3609 -0.1436 -0.1125
11331W        W28178   9.078  19.867   3.572 -0.1170  0.2050 -0.2338
11332W        W28179   8.629  12.019   1.645 -0.1152 -0.0511  0.1036
11333W        W28180  18.647  14.421  14.342  0.0826  0.5936  0.4103
11334W        W28181  17.966  13.246   4.430  0.1309  0.4860  0.1602
11335W        W28182   4.572   8.811   2.935  0.0196  0.3433 -0.1650
11336W        W28183  16.664  10.693  10.691 -0.1304 -0.0496 -0.1854
11337W        W28184  17.246   8.127   3.994 -0.0240 -0.0361 -0.1102
11338W        W28185  19.369  13.765   3.215 -0.4032  0.0468 -0.2145
11339W        W28186  12.449  14.327   5.015 -0.3457 -0.0738  0.0870
11340W        W28187   1.888   2.425   1.104  0.0169 -0.0350  0.2678
11341W        W28188  10.813   6.932   3.274 -0.5260  0.1598  0.0205
11342W        W28189   3.446   0.990  12.001  0.2097  0.4368 -0.2039
11343W        W28190   6.406  16.672  13.314  0.1553  0.0346  0.1616
11344W        W28191  17.779   4.889   3.810  0.0182  0.0755  0.1614
11345W        W28192   5.823  17.666  12.643 -0.1415  0.1899  0.3348
11346W        W28193  14.702  12.990  11.659 -0.0297 -0.0143  0.2632
11347W        W28194   0.926   9.444   2.545 -0.3086 -0.4350 -0.2411
11348W        W28195  14.281  11.710   2.871  0.0385 -0.1491  0.0271
11349W        W28196  12.662  17.746   1.963  0.2898  0.0413  0.0672
11350W        W28197  16.538   7.000  11.340  0.0243 -0.1239  0.4781
11351W        W28198   8.600   9.036  10.766  0.2373 -0.1459 -0.0900
11352W        W28199   5.625   4.033  10.124 -0.0263  0.0362  0.2646
11353W        W28200  18.333   0.148  10.716 -0.2509 -0.1651 -0.2448
11354W        W28201  13.401  13.544  13.468 -0.3421 -0.0682 -0.2131
11355W        W28202   1.653   6.339   1.855  0.2609  0.0151 -0.0738
11356W        W28203   8.961  13.750   2.908  0.2168  0.1876 -0.2190
11357W        W28204  13.332  17.607   3.159 -0.0206  0.0541  0.0482
11358W        W28205  12.088   1.586   9.456 -0.1238 -0.2234 -0.1102
11359W        W28206  11.855  13.761   5.282  0.0695  0.1225 -0.1038
11360W        W28207   7.364   9.182  10.229  0.0410 -0.2667 -0.0989
11361W        W28208  16.311  11.342   2.756  0.0460  0.2353  0.2121
11362W        W28209   7.389   7.142   2.073 -0.0466 -0.2582 -0.0827
11363W        W28210   2.089  17.435   0.344  0.0992 -0.0595 -0.1109
11364W        W28211   0.219  16.581   1.937  0.1835 -0.3594 -0.1010
11365W        W28212   6.488  17.236   4.951 -0.0339 -0.0971  0.3965
11366W        W28213  19.144  17.858  11.168  0.1750  0.0449  0.3414
11367W        W28214   8.138  10.503  13.071 -0.2091  0.0624 -0.1164
11368W        W28215   1.787  16.852  11.435 -0.0304  0.1764  0.0276
11369W        W28216   6.020   3.075   4.189 -0.3811 -0.0254  0.0207
11370W        W28217  10.247   1.907   0.281 -0.0707  0.2234 -0.2059
11371W        W28218   5.479   4.886   2.549  0.4801  0.2326  0.1563
11372W        W28219   9.076   4.414  12.889 -0.3230 -0.1869 -0.0616
11373W        W28220   8.709   1.584  11.965 -0.2071 -0.1255 -0.1626
11374W        W28221   1.397  18.880  10.351  0.0903  0.1192  0.1030
11375W        W28222  15.804  15.782  12.999 -0.1527 -0.2057 -0.2118
11376W        W28223  11.660  15.354  10.281 -0.0433  0.0750 -0.0430
11377W        W28224  12.581   0.818  13.800  0.1452  0.1076  0.0279
11378W        W28225   5.602  19.578   0.215 -0.0390  0.0931  0.0316
11379W        W28226  17.367  10.609   2.859 -0.0881  0.1715  0.0432
11380W        W28227   6.238  14.058   0.609  0.1877 -0.2878  0.2886
11381W        W28228  18.067  10.289   2.041 -0.0096 -0.0344  0.0815
11382W        W28229   6.038  13.088   0.374 -0.0626 -0.2270 -0.0736
11383W        W28230   3.160  15.301  12.594  0.3964 -0.4838 -0.0392
11384W        W28231  10.795  11.918   1.611  0.0477  0.1110  0.1228
11385W        W28232   2.366   4.852  12.084  0.2097  0.1118 -0.2437
11386W        W28233  13.588  18.592   2.849  0.2847 -0.0211 -0.3649
11387W        W28234   4.911  11.730   4.233  0.2413  0.0538  0.1946
11388W        W28235  19.126  10.943   4.819 -0.5050  0.2298 -0.0553
11389W        W28236   7.727   4.149   2.130 -0.0448 -0.2622 -0.3862
11390W        W28237   5.145  15.899   3.425  0.3932 -0.3546 -0.2830
11391W        W28238  19.272   7.501  12.497 -0.0340  0.0259 -0.1747
11392W        W28239   7.317  18.409   9.504 -0.0325  0.1644  0.0340
11393W        W28240  19.381   4.568   4.728  0.1085 -0.1586 -0.2062
11394W        W28241   6.197  14.264  10.084  0.2456  0.2512 -0.1311
11395W        W28242  15.023  18.727  13.717  0.0321  0.1425 -0.1146
11396W        W28243   3.781  19.235   4.996  0.0848 -0.0037  0.2425
11397W        W28244   5.493   1.863  12.403 -0.2675  0.1943 -0.0702
11398W        W28245   1.400  17.146   3.922 -0.2738 -0.0526  0.2960
11399W        W28246  10.364  12.696  12.730  0.1472 -0.1558 -0.0063
11400W        W28247   3.752  19.755  13.310 -0.2379  0.0100  0.0451
11401W        W28248   3.460   7.424  14.354 -0.0614  0.2351  0.1631
11402W        W28249   2.568   7.216   2.501  0.0467  0.0218  0.4750
11403W        W28250   4.123  13.197   3.309 -0.1867 -0.0191 -0.1117
11404W        W28251  18.782  11.789   3.473 -0.0425  0.1917  0.2654
11405W        W28252   6.921   7.238   1.877  0.2306  0.0435  0.1546
11406W        W28253   2.034   9.181   0.259 -0.0300 -0.2874  0.0615
11407W        W28254   4.450  19.061  11.525  0.1454 -0.0762 -0.1664
11408W        W28255  13.257  18.335  12.784  0.1394  0.1759  0.1052
11409W        W28256  12.110  13.002  14.069 -0.1140  0.1802 -0.0271
11410W        W28257   6.774   2.676  10.669 -0.2683  0.1648  0.4149
11411W        W28258   1.819  10.153   3.332  0.1264  0.1004 -0.0357
11412W        W28259   9.217  13.403   3.714  0.1448  0.0740  0.3185
11413W        W28260   0.173   5.818  12.070  0.0523 -0.0515  0.2302
11414W        W28261   9.025   4.262   2.378 -0.1441 -0.1090 -0.0062
11415W        W28262  16.218   8.556  10.367  0.3799 -0.0261 -0.2181
11416W        W28263   5.141   1.441   1.643  0.1752 -0.2043  0.3654
11417W        W28264   3.526  14.539  14.105 -0.0597 -0.2236  0.0740
11418W        W28265  16.372   5.743   8.752  0.0596  0.0814 -0.0468
11419W        W28266  11.245   6.076   9.784 -0.0936  0.0223 -0.3359
11420W        W28267   8.409   4.871  12.028 -0.2399 -0.2610 -0.2436
11421W        W28268   5.850  13.344   4.095  0.0710  0.0974 -0.0009
11422W        W28269  15.867   8.477   2.022  0.0902  0.2888  0.0543
11423W        W28270  16.794   0.210   4.501  0.0378 -0.1555  0.1651
11424W        W28271  19.701   9.155   0.943  0.2665  0.0825  0.2360
11425W        W28272  11.775   0.564   1.766  0.2242  0.2032  0.1643
11426W        W28273   8.175  14.800  11.743  0.2269  0.2506 -0.1946
11427W        W28274   2.395  11.705   4.640  0.1427 -0.0454 -0.2358
11428W        W28275   6.585  12.738   2.486  0.1353  0.2572 -0.2254
11429W        W28276  13.431  19.813   3.530 -0.1489  0.2403 -0.0160
11430W        W28277   4.787   8.424   3.177  0.1678  0.1051  0.1795
11431W        W28278  18.931  14.107   0.866  0.1552 -0.2365  0.1394
11432W        W28279   8.929  14.920   5.040 -0.2317  0.2073  0.3515
11433W        W28280   9.528   0.801   1.751  0.0001  0.1378 -0.0583
11434W        W28281   4.867  16.176  13.613  0.1962 -0.5631  0.2514
11435W        W28282  11.634  14.197  12.243  0.2554  0.3529 -0.0922
11436W        W28283  15.478  18.740   4.764 -0.1169 -0.3675 -0.0693
11437W        W28284   6.001   1.114   0.523  0.1443  0.1111  0.2541
11438W        W28285   7.462  17.259   4.072 -0.0512 -0.1147  0.1377
11439W        W28286   6.370  15.173  13.546  0.1956  0.2734 -0.1263
11440W        W28287   0.622  18.862   1.727  0.0234  0.2444 -0.1995
11441W        W28288  13.413   9.159   1.756 -0.0579 -0.0385  0.0701
11442W        W28289  19.537  13.796  10.658 -0.3542  0.0064 -0.1304
11443W        W28290  15.431   4.035   9.851 -0.1069 -0.0991 -0.1998
11444W        W28291   3.297  14.288  10.555 -0.3650  0.2936 -0.0523
11445W        W28292  17.721   2.509   0.852  0.1566  0.3021  0.1945
11446W        W28293  17.509  15.733  13.299  0.0550 -0.0807  0.4983
11447W        W28294   9.888   8.811  11.968 -0.4198 -0.0097 -0.2480
11448W        W28295  14.987  17.645   5.826  0.0155  0.2958  0.1363
11449W        W28296  11.546   3.178  12.999 -0.1401 -0.1671  0.0840
11450W        W28297   1.080  17.497  12.758 -0.4224  0.0943  0.2055
11451W        W28298  14.880   8.974   4.473 -0.1693  0.1851 -0.0911
11452W        W28299  18.411  16.628  11.065  0.4006  0.1203 -0.1244
11453W        W28300  17.984  16.995  11.994 -0.0885 -0.0880 -0.4222
11454W        W28301  12.935   0.745   1.059 -0.2727 -0.1250  0.0787
11455W        W28302  15.031  12.657   1.103  0.0215  0.0484 -0.3184
11456W        W28303  16.203   1.797   3.163  0.0657  0.0420  0.0314
11457W        W28304   2.135   3.561  12.785  0.2133 -0.2724 -0.2700
11458W        W28305  16.137  14.561  14.153 -0.1516 -0.3346  0.1779
11459W        W28306  19.674  17.676   5.120 -0.0179  0.2296 -0.2071
11460W        W28307  14.596   1.324   4.368 -0.0762 -0.1525 -0.1578
11461W        W28308   8.102   9.275   4.427  0.0652 -0.3609 -0.0656
11462W        W28309  14.316   2.623  10.224 -0.1215 -0.0709 -0.0309
11463W        W28310  13.735  13.385   4.172  0.2538  0.0583 -0.2148
11464W        W28311  10.631  19.775   3.245  0.1240  0.0195  0.0234
11465W        W28312   5.721   0.726  10.455 -0.0804  0.0548 -0.0611
11466W        W28313  13.017  17.455  10.301 -0.0234 -0.0291 -0.2236
11467W        W28314   3.086  12.082   3.532 -0.2799  0.2996  0.0499
11468W        W28315  10.572  19.261   3.557  0.2153  0.3245 -0.3095
11469W        W28316  18.748  17.467  13.770  0.1193 -0.1173 -0.0459
11470W        W28317  18.145   6.789   3.832  0.0051 -0.0872  0.1229
11471W        W28318   2.548   8.374   4.949  0.1770  0.1376  0.1769
11472W        W28319   6.134  16.570   3.236  0.1074 -0.0881 -0.0792
11473W        W28320   2.917   0.830   4.411  0.2259  0.1467 -0.0614
11474W        W28321  11.779  19.158  12.927 -0.1158 -0.1558 -0.0824
11475W        W28322   7.381   0.713  13.000  0.1626  0.0675 -0.1728
11476W        W28323  19.378   2.077  14.274  0.1234 -0.2250  0.1867
11477W        W28324  13.316   1.880  14.269  0.2137  0.0210  0.1114
11478W        W28325  14.375   0.137   1.558  0.0932 -0.2231  0.1186
11479W        W28326  16.538  11.961   3.443 -0.1161  0.0155  0.2207
11480W        W28327  11.390  18.873   2.350 -0.1776  0.0853 -0.0394
11481W        W28328  17.656   2.008  14.191 -0.0084 -0.2500 -0.2591
11482W        W28329   0.868  10.528   4.425 -0.0871  0.0832 -0.0103
11483W        W28330  17.480  15.306  12.686 -0.2310  0.1487  0.2196
11484W        W28331   7.781  10.803  11.474 -0.1654  0.2236 -0.1701
11485W        W28332   2.024   4.653   2.141 -0.1013  0.1303 -0.2537
11486W        W28333   2.834   1.138  10.086 -0.0573 -0.2200 -0.0004
11487W        W28334   7.546  18.688  13.400  0.0737  0.0650 -0.2580
11488W        W28335  19.280  18.389   1.031  0.0977 -0.0847  0.4283
11489W        W28336   8.319  13.745  12.258  0.1399  0.2985  0.0570
11490W        W28337  15.185  13.895   0.067  0.0191  0.0020  0.1319
11491W        W28338  15.411   8.143  10.488  0.3988 -0.0251 -0.1397
11492W        W28339  19.479  16.115   1.118  0.0271 -0.1344  0.0980
11493W        W28340   6.110   5.879  14.171  0.1189  0.1095 -0.0695
11494W        W28341  17.854   3.702  11.512 -0.1994  0.4587 -0.0584
11495W        W28342  14.023  14.229   9.695  0.0222  0.1687 -0.0215
11496W        W28343   1.824   2.689  10.592 -0.1915  0.6416  0.1472
11497W        W28344  18.408  14.536  12.475 -0.3481  0.1920 -0.1140
11498W        W28345   5.057  18.024  12.873 -0.0232  0.1702 -0.0031
11499W        W28346  14.662  15.231  11.189 -0.1001  0.3364  0.0132
11500W        W28347  16.900   1.226   0.975 -0.0325 -0.1270  0.2395
11501W        W28348   4.212   1.632  12.657 -0.0001 -0.1863 -0.0298
11502W        W28349  11.437   1.335   0.147 -0.0422  0.0333 -0.0906
11503W        W28350   8.495   4.049   0.368 -0.1052 -0.0553  0.0242
11504W        W28351   7.492  10.160   3.296 -0.2169 -0.2755  0.0466
11505W        W28352   4.309   6.452  13.786  0.1735  0.2342 -0.0382
11506W        W28353  18.533  18.423  10.708  0.2302  0.1099 -0.0844
11507W        W28354  15.076   1.170   2.120 -0.0362  0.0409  0.3342
11508W        W28355   6.982  17.048   2.104 -0.1802  0.0026 -0.1914
11509W        W28356   8.041   6.959   0.473  0.2193 -0.0101  0.0384
11510W        W28357  13.548  15.627   3.363 -0.0146 -0.3431 -0.0355
11511W        W28358   1.419   3.564  14.232 -0.3005  0.0808  0.0214
11512W        W28359  13.735   2.670  13.303  0.2533  0.1533 -0.4058
11513W        W28360  10.093  12.831  13.974  0.2109  0.2023 -0.0248
11514W        W28361   9.188  17.082  14.296  0.2509 -0.1755  0.0954
11515W        W28362   1.170  14.050  12.286 -0.0774  0.0590  0.0118
11516W        W28363   9.851   4.364  13.609  0.1123 -0.0216  0.1412
11517W        W28364  19.160  16.231  11.568  0.0199  0.1028 -0.0223
11518W        W28365  13.318  14.906   4.532 -0.0286  0.0480  0.0466
11519W        W28366  13.111   7.682   9.889  0.1482 -0.0291  0.2120
11520W        W28367   4.587  10.462   2.457 -0.1909  0.0767  0.0094
11521W        W28368   4.284   4.761  12.511 -0.1486  0.0543  0.3062
11522W        W28369   5.651  10.342   9.931 -0.2531  0.2324 -0.0088
11523W        W28370  10.736   4.369   0.411  0.0501 -0.1066 -0.0670
11524W        W28371   5.898  11.505   3.996 -0.1659  0.0053 -0.1865
11525W        W28372   2.975   8.987  12.537 -0.0440 -0.2012 -0.1646
11526W        W28373   1.202   2.524  11.425 -0.1044  0.1106 -0.0527
11527W        W28374  13.579   6.806  12.703 -0.2473  0.2621 -0.0218
11528W        W28375   6.432   7.376   4.181 -0.1546 -0.0756  0.5749
11529W        W28376   9.050  10.054   3.487  0.2824 -0.1033  0.0030
11530W        W28377  18.442   2.933  13.023  0.2450  0.2110  0.0194
11531W        W28378   3.874  11.802  12.658  0.1118  0.1720  0.5814
11532W        W28379  12.113   6.987   9.830 -0.0511 -0.0497  0.0866
11533W        W28380   8.409  17.596   4.224  0.0882  0.0407  0.0136
11534W        W28381  15.517   0.715   0.458  0.0782  0.0786  0.2640
11535W        W28382   7.147  11.958  10.380  0.2335 -0.1955 -0.4149
11536W        W28383  18.490  15.665   4.137 -0.2024  0.1192  0.0656
11537W        W28384   4.583  18.264  11.144  0.0688 -0.0070 -0.0556
11538W        W28385   7.696   2.814   1.702  0.0578  0.2698  0.1107
11539W        W28386  18.920  14.257  12.985 -0.0888  0.3199 -0.1866
11540W        W28387  16.528   2.258  12.313  0.0805  0.2053 -0.0422
11541W        W28388  10.456  16.142  10.220 -0.0063 -0.4144 -0.2008
11542W        W28389   9.668   7.928   8.832  0.1220  0.1301  0.3988
11543W        W28390   3.838   0.220  12.522  0.0575 -0.0794  0.0529
11544W        W28391   2.821  15.339  13.406  0.0223  0.1321 -0.4010
11545W        W28392  10.703  12.769  11.070 -0.0528  0.3954 -0.1121
11546W        W28393  12.793  19.377  11.464 -0.3007  0.0233 -0.0143
11547W        W28394   9.629   8.488  11.536  0.3309 -0.3867 -0.0935
11548W        W28395  13.445  13.305  12.090 -0.2114 -0.1907  0.0248
11549W        W28396  12.753  12.047  11.818  0.2416 -0.1261  0.3460
11550W        W28397  10.985  11.157  10.864 -0.1953  0.0895 -0.1388
11551W        W28398  11.919   6.823  11.433  0.2230 -0.3309  0.0901
11552W        W28399   9.754   8.154   1.321 -0.3083 -0.1255 -0.2188
11553W        W28400   9.933   3.754   3.991 -0.1558 -0.1715  0.2594
11554W        W28401  19.048   5.788  11.398  0.3101 -0.0378  0.1219
11555W        W28402  15.510  10.952   1.366  0.0542  0.0622  0.1195
11556W        W28403  19.366  12.967  10.596 -0.0436 -0.0845  0.1770
11557W        W28404  19.390  17.678  10.163  0.5076  0.1994 -0.0583
11558W        W28405   2.894   3.997   3.841  0.2427 -0.2935  0.0831
11559W        W28406   1.713  16.282  11.355 -0.1542 -0.0479 -0.1282
11560W        W28407   2.657  16.949  11.888 -0.0956  0.2940  0.0846
11561W        W28408  14.614   4.555   4.947 -0.1759  0.0121  0.0037
11562W        W28409   7.341  17.751  13.691  0.0213  0.2529 -0.0730
11563W        W28410  12.682   8.491   4.294 -0.4037  0.1182  0.0504
11564W        W28411   5.004   7.071  10.764  0.3876  0.1358  0.0222
11565W        W28412   8.670  16.296   2.536 -0.2630 -0.0208 -0.2058
11566W        W28413   3.530   9.767   4.707  0.0248 -0.1064 -0.0605
11567W        W28414   7.460  10.123  12.504 -0.0302  0.1162  0.0469
11568W        W28415   0.058   1.902   3.784 -0.0075 -0.1434 -0.2447
11569W        W28416  14.044   8.629   2.005  0.1867  0.1284  0.2235
11570W        W28417   9.630   5.657  11.410  0.0571 -0.1979  0.0936
11571W        W28418  17.618   7.541  14.158 -0.1604 -0.0463 -0.0114
11572W        W28419   0.358   3.829  11.522  0.2947  0.0261  0.1071
11573W        W28420  11.037   7.036  10.433  0.1646 -0.4450 -0.0758
11574W        W28421  10.427  11.778   1.321  0.0070  0.1653 -0.2270
11575W        W28422   8.626  15.716  12.703  0.0228 -0.1214 -0.3426
11576W        W28423  11.061  19.613   3.044  0.0352  0.2610  0.2782
11577W        W28424  17.561   9.562  10.917  0.0430 -0.1506 -0.1943
11578W        W28425  18.667  14.229   1.328  0.1392  0.2578  0.4020
11579W        W28426   2.234   9.667   0.430 -0.2512  0.0490 -0.1333
11580W        W28427  18.155   0.894   2.471 -0.0293  0.1925 -0.1705
11581W        W28428   2.407  13.466   0.494  0.3253 -0.0659  0.2292
11582W        W28429   1.358  13.482   1.825 -0.0791 -0.0257 -0.3207
11583W        W28430  14.767   8.131   4.015 -0.3735  0.0025  0.0061
11584W        W28431   0.758   0.921  11.071  0.1285  0.1778  0.2934
11585W        W28432   1.466  15.369  13.351  0.1553  0.0335  0.0595
11586W        W28433  10.983  19.495  11.137 -0.0971  0.2190  0.1103
11587W        W28434   8.515   7.130  13.598  0.1444  0.1284  0.0525
11588W        W28435  15.300  18.371   1.677 -0.0011  0.0993  0.1436
11589W        W28436   9.378  11.117  11.683 -0.1070 -0.3400 -0.4989
11590W        W28437  16.138   0.898  10.817 -0.1463  0.1113 -0.3112
11591W        W28438  18.814   5.916   3.154  0.3890 -0.1952  0.2059
11592W        W28439   9.375   7.786  11.211 -0.1859 -0.1672  0.0333
11593W        W28440  18.115  16.161   0.892 -0.3028 -0.0371  0.2073
11594W        W28441   0.415  16.975  13.664 -0.2672 -0.2489  0.0423
11595W        W28442   2.732  16.625   2.704  0.3662 -0.1633  0.0214
11596W        W28443   7.013  10.119  10.248 -0.0359  0.1898 -0.2862
11597W        W28444   4.044   4.436  12.948 -0.1753  0.0534 -0.0212
11598W        W28445   6.334  11.835  10.408  0.1337 -0.5395  0.1041
11599W        W28446   3.949   7.078  11.200  0.1917 -0.0126  0.0407
11600W        W28447   9.577   5.156   3.831  0.1700  0.1155 -0.0786
11601W        W28448  19.389  19.835  10.869  0.0125  0.3035  0.2728
11602W        W28449   4.286  11.671   1.782 -0.1103 -0.2229 -0.0262
11603W        W28450   6.916   2.640   4.828 -0.0274 -0.2270 -0.2395
11604W        W28451   7.160  11.033  12.771  0.0989 -0.1171  0.1346
11605W        W28452   9.413  16.691   0.449 -0.0123  0.2631 -0.0102
11606W        W28453  17.570  18.783  12.384  0.2573  0.0637  0.0889
11607W        W28454   0.998  13.203   0.084  0.1667  0.0413 -0.1875
11608W        W28455   5.699   9.857   4.351 -0.2472  0.2501  0.0676
11609W        W28456   7.139  19.888   4.737  0.0993  0.1465  0.0884
11610W        W28457  11.108   7.196   2.788 -0.0738  0.2991 -0.4475
11611W        W28458   4.442  16.031   4.725  0.0081 -0.0511 -0.0565
11612W        W28459   5.430   1.401   1.043 -0.0043 -0.2493 -0.0015
11613W        W28460  12.192   6.561  13.251 -0.2712 -0.0679  0.2062
11614W        W28461  14.497   9.093   1.689  0.4171  0.0143 -0.0600
11615W        W28462  15.720  11.850   2.831  0.0132 -0.1461 -0.2048
11616W        W28463  18.542  19.551  10.808  0.1484  0.3852 -0.0236
11617W        W28464   0.632   0.239   3.022 -0.1694 -0.1072 -0.2981
11618W        W28465   4.727   4.549   1.529 -0.1931  0.1592 -0.0227
11619W        W28466  10.223  15.180  12.610  0.1109 -0.0110 -0.0424
11620W        W28467  12.979  19.274   3.713  0.0628 -0.3811  0.0195
11621W        W28468   2.032  12.473  11.675 -0.1585 -0.0248  0.3769
11622W        W28469  11.010   8.974  13.718  0.3912  0.2722  0.0205
11623W        W28470   4.733  10.834   1.825 -0.0122 -0.2526  0.1675
11624W        W28471  12.284  16.464  10.461  0.0066 -0.0915 -0.1587
11625W        W28472  18.668  10.079  13.969 -0.0550  0.2282  0.1920
11626W        W28473  17.865   4.699  11.940  0.2452  0.0644  0.1711
11627W        W28474  10.962   6.314  12.107  0.0960  0.1321  0.2608
11628W        W28475   5.028   4.758  10.335  0.1029  0.3757 -0.2051
11629W        W28476  14.110   0.254  10.386  0.0119  0.2221  0.1959
11630W        W28477   5.623   7.729   2.499  0.1958 -0.1137 -0.2064
11631W        W28478   9.105  18.890   3.610 -0.0160  0.1280 -0.1923
11632W        W28479   5.893  19.543   4.955  0.1727  0.0594  0.3703
11633W        W28480  15.595  16.274  14.049 -0.3965  0.1361  0.2836
11634W        W28481   2.371   6.265   4.505  0.0419  0.0810  0.3328
11635W        W28482   4.369  14.235   0.890  0.1215  0.0223  0.1734
11636W        W28483   8.740   1.228  12.360  0.1580  0.1276  0.1764
11637W        W28484  10.138   5.716   2.459 -0.1043 -0.1500  0.1433
11638W        W28485  18.998  15.180   3.458 -0.0173 -0.0863 -0.0409
11639W        W28486   7.114  10.987   2.342  0.2814 -0.0985  0.3029
11640W        W28487  13.325   6.518  11.196  0.1140 -0.1821  0.0259
11641W        W28488   4.671   8.013  11.511 -0.0736  0.1628 -0.2006
11642W        W28489  16.035  14.031   4.561  0.2380  0.1386  0.1952
11643W        W28490   3.447  12.148   3.158  0.1165  0.3099  0.0732
11644W        W28491  17.249  12.966  11.108  0.2287  0.2291 -0.1269
11645W        W28492   6.382  12.267  13.677  0.3121 -0.1057 -0.0819
11646W        W28493   4.693   8.419  11.094  0.1028  0.0458  0.1118
11647W        W28494  19.645  13.843  11.569  0.2084 -0.3151  0.1086
11648W        W28495   6.599   5.517  13.319  0.0074 -0.1278  0.1397
11649W        W28496  19.692  12.103   4.120  0.3180 -0.1692 -0.0047
11650W        W28497  15.450   0.561  11.887  0.1523  0.0917 -0.2194
11651W        W28498   5.311  16.271   0.169 -0.0188 -0.5353 -0.1393
11652W        W28499   6.588  12.092   3.947  0.1841 -0.0363 -0.0603
11653W        W28500  11.888  12.715  12.759  0.0426 -0.1858  0.0968
11654W        W28501   3.533  18.290  13.590 -0.1807  0.4107 -0.1566
11655W        W28502  16.860  16.925  12.913 -0.2811 -0.2790  0.2888
11656W        W28503  18.447   7.244   2.093 -0.1221  0.1507  0.3198
11657W        W28504   4.278   2.971  10.505 -0.1078  0.2235 -0.0336
11658W        W28505  18.238  14.570  10.039 -0.3210  0.2674  0.2103
11659W        W28506  19.200  17.060  11.647  0.0309 -0.0840 -0.0489
11660W        W28507   8.269   1.427   3.259  0.2054  0.1426 -0.4964
11661W        W28508  11.344  10.501  12.065  0.1923 -0.1839  0.0879
11662W        W28509   3.205  18.600   1.669 -0.0382 -0.1761 -0.1034
11663W        W28510  11.691  11.925   4.054 -0.1141  0.1762 -0.0965
11664W        W28511  11.198   8.541  11.319  0.1783 -0.0551  0.2974
11665W        W28512  18.217  11.725   5.413 -0.3253 -0.0899 -0.2436
11666W        W28513   9.438  11.768  13.254  0.2207 -0.1568 -0.4331
11667W        W28514   7.216   7.482   0.409 -0.4112 -0.3145  0.0921
11668W        W28515   3.338   3.072   9.000  0.2184  0.1534 -0.2861
11669W        W28516   6.293  14.280  14.248  0.0418 -0.0495  0.3441
11670W        W28517   7.234   1.900   1.310  0.0632 -0.2588  0.0640
11671W        W28518  13.846   1.007  10.952 -0.1287  0.1365 -0.0808
11672W        W28519   5.085   4.819  12.912  0.0130  0.0852 -0.0152
11673W        W28520   9.319  15.449   9.937 -0.0699  0.2863  0.1618
11674W        W28521   8.489   3.056   1.985  0.2392 -0.1185 -0.1122
11675W        W28522   5.721   5.171  11.756 -0.0259  0.2453 -0.1181
11676W        W28523   6.135  10.371   5.000  0.0895 -0.2983 -0.0815
11677W        W28524  16.715   2.724  12.665 -0.5265  0.1880  0.0196
11678W        W28525   7.491  19.022  13.841 -0.1594 -0.1183 -0.1176
11679W        W28526   4.914   2.716   1.719  0.2764 -0.2809  0.1219
11680W        W28527   7.735   7.026   0.097  0.1392  0.2968  0.2498
11681W        W28528   9.072   6.216  13.668  0.0868  0.1335  0.0827
11682W        W28529   7.103  10.858  12.308  0.3083  0.3043  0.2186
11683W        W28530  16.712  16.952   4.928  0.1945 -0.0162 -0.0021
11684W        W28531   0.172  17.706   0.568  0.2130 -0.0645 -0.0639
11685W        W28532   8.224  15.703  13.031 -0.1305 -0.0719 -0.1535
11686W        W28533  18.060   2.307   4.227  0.1436  0.2728  0.0141
11687W        W28534  17.395  16.418   2.663 -0.0906  0.0464  0.0929
11688W        W28535   8.814  19.539  13.587  0.1550 -0.0920 -0.0633
11689W        W28536   9.249  19.711   0.411  0.0764 -0.1132 -0.0431
11690W        W28537   2.466  11.597  10.669  0.0778 -0.3997 -0.0238
11691W        W28538   5.331   4.320   3.211 -0.3027  0.2504 -0.0296
11692W        W28539   0.195   8.973   2.450 -0.1802 -0.0068  0.0391
11693W        W28540   3.335  19.590  10.494  0.1342  0.0624  0.0770
11694W        W28541  11.373   4.463   9.588  0.0994 -0.0912 -0.1909
11695W        W28542  14.710  13.963   0.226  0.0815  0.1338 -0.0237
11696W        W28543  11.945   6.412  14.198 -0.4100 -0.0002  0.0291
11697W        W28544   2.968   6.632  13.743 -0.2520 -0.2061 -0.1792
11698W        W28545   6.561   3.894  12.297  0.2103  0.0458  0.3199
11699W        W28546   6.037  19.166  13.604  0.1695  0.0953  0.2668
11700W        W28547  14.589  12.700   2.394  0.1851 -0.0073  0.1249
11701W        W28548  17.910  12.346   4.019 -0.0513 -0.3604 -0.1795
11702W        W28549   6.791   3.335  14.092  0.0138 -0.0394 -0.0375
11703W        W28550   4.722   2.649  13.148 -0.0087  0.1172 -0.0483
11704W        W28551   3.962   9.452   0.676  0.2611 -0.0497 -0.0960
11705W        W28552   7.204   1.085   1.885 -0.2811 -0.4631 -0.1088
11706W        W28553  11.587   2.264   4.309 -0.0585 -0.3819 -0.2696
11707W        W28554   5.500   3.987   1.080  0.0309 -0.2980 -0.1233
11708W        W28555   1.555  14.000  13.825  0.1967  0.0561 -0.2109
11709W        W28556   2.132  10.200   2.200 -0.2801 -0.1626  0.3617
11710W        W28557  14.352   4.810  12.363  0.1980  0.0278  0.1162
11711W        W28558   6.852   5.867  11.099  0.0526  0.1841  0.1197
11712W        W28559  11.374   5.464   4.173  0.3328 -0.4594  0.2944
11713W        W28560  18.916  19.202  12.315  0.2983 -0.3745 -0.2260
11714W        W28561  11.192  18.067   2.939 -0.2734 -0.1931  0.0192
11715W        W28562  19.148   2.451   1.932  0.2212  0.0376 -0.0322
11716W        W28563  13.406   7.569   0.904  0.1502  0.3909 -0.0229
11717W        W28564   3.094   8.738   4.345 -0.1561  0.0045  0.2038
11718W        W28565  10.570  18.540   4.904 -0.1532 -0.1223  0.1943
11719W        W28566  17.348   9.359  14.097 -0.0275  0.1543 -0.1262
11720W        W28567  10.105  16.763   2.619 -0.0357 -0.0612  0.2483
11721W        W28568   3.139   7.058   4.206  0.0874  0.1300  0.0109
11722W        W28569   1.359   0.458  14.045 -0.2332  0.1402  0.0992
11723W        W28570   0.579   6.471  10.223  0.2154  0.0260 -0.1528
11724W        W28571  18.158  17.598   0.228  0.1871 -0.0747  0.1169
11725W        W28572   2.847   0.116  10.067 -0.1173 -0.3548  0.0152
11726W        W28573   2.048  10.862   0.394 -0.1112  0.1773 -0.2068
11727W        W28574   8.335   4.834  11.529  0.1429 -0.0537 -0.0581
11728W        W28575   0.640  15.001   9.321  0.1737 -0.0452 -0.1626
11729W        W28576   3.212   4.728  12.922  0.0555 -0.1983 -0.1796
11730W        W28577   4.321   4.986  11.318 -0.1595 -0.2933 -0.0463
11731W        W28578  16.793  18.765   4.248  0.1104  0.3189  0.1325
11732W        W28579   7.755   6.062   9.663  0.1676  0.0597  0.5114
11733W        W28580  17.953  10.546  13.277  0.2128  0.0296 -0.0480
11734W        W28581  12.730  17.138  10.635  0.1119 -0.0646  0.0567
11735W        W28582  18.768  15.445   2.456  0.2657  0.1380 -0.2794
11736W        W28583  18.667  14.635  13.210  0.0535  0.1473 -0.1134
11737W        W28584  14.478   7.764   1.631 -0.0298 -0.0637  0.2351
11738W        W28585   8.448   2.091  12.867 -0.1156  0.2004 -0.0355
11739W        W28586  15.814  13.292   0.383  0.0409 -0.0142 -0.0756
11740W        W28587  12.516  13.520   4.143  0.2022  0.0555 -0.0347
11741W        W28588  18.877   8.689  10.460 -0.0369  0.1356 -0.1274
11742W        W28589  12.614  14.047  10.948 -0.2216  0.0139  0.1500
11743W        W28590   2.498   7.709   4.192 -0.1846 -0.0929  0.0079
11744W        W28591  17.606  10.132   0.331 -0.0233 -0.1498 -0.0213
11745W        W28592   3.765   0.654   3.684 -0.0259 -0.2050  0.1249
11746W        W28593  15.675  11.332   3.710 -0.1451 -0.1145 -0.0270
11747W        W28594   6.597   7.338   9.077 -0.1815  0.1828  0.0249
11748W        W28595  13.767  17.408  13.650  0.0833  0.2472  0.0190
11749W        W28596   1.775  18.636   2.729 -0.2223  0.1512 -0.0903
11750W        W28597   3.846   6.278  11.756 -0.0927  0.3485 -0.2168
11751W        W28598  17.255  16.733  12.713 -0.0614  0.0616  0.0925
11752W        W28599   9.393   4.496  13.326 -0.3287 -0.1528  0.0152
11753W        W28600   0.992  19.865  14.036 -0.1130 -0.0998  0.0508
11754W        W28601  10.424  12.640  13.648 -0.2060 -0.3638 -0.1786
11755W        W28602   3.162   6.589   2.762 -0.1715 -0.1066  0.0602
11756W        W28603  17.978   1.174   2.879  0.0267  0.3741  0.2288
11757W        W28604  16.957   0.032   0.348 -0.2631  0.2883 -0.0171
11758W        W28605   8.700  10.894  10.253 -0.0268  0.1588  0.0754
11759W        W28606  11.745  17.162  13.693 -0.0263  0.0573 -0.1482
11760W        W28607   3.734  11.013  11.682  0.2338 -0.0282 -0.0385
11761W        W28608   4.842  11.349  14.316 -0.1028  0.0678  0.1632
11762W        W28609   7.217  15.998   4.139 -0.0616  0.0329 -0.1570
11763W        W28610  11.152   3.326   2.351 -0.0587 -0.0555 -0.2308
11764W        W28611   4.318   0.825   3.012 -0.1152 -0.0218 -0.0475
11765W        W28612  14.780   5.405  11.064 -0.1384 -0.0063 -0.0731
11766W        W28613  11.691   3.423  14.025  0.2630  0.0709  0.2586
11767W        W28614   5.729  15.016   1.001 -0.1199  0.0502 -0.3023
11768W        W28615   1.072  14.961   1.587 -0.1173  0.2114 -0.2310
11769W        W28616   9.474  19.233   0.725 -0.0709  0.1530  0.1906
11770W        W28617  11.180   0.572   3.834 -0.1969 -0.1125  0.4604
11771W        W28618   7.444  17.961   1.011  0.1535 -0.1000  0.1014
11772W        W28619  13.266   4.104   1.919  0.0299  0.4406  0.1282
11773W        W28620   9.179   6.300  12.315 -0.1200  0.1317  0.3078
11774W        W28621  15.127  10.012  11.408  0.2398  0.1149  0.3913
11775W        W28622   3.815   5.018   4.226 -0.1790  0.1307 -0.0303
11776W        W28623   6.932  12.953   1.824 -0.0147  0.1339 -0.0462
11777W        W28624   1.729   7.590  12.952  0.3177 -0.1429  0.1152
11778W        W28625  15.103   6.999   3.802 -0.2415 -0.0348  0.0973
11779W        W28626  19.166  16.582  13.958  0.0082 -0.0685  0.1604
11780W        W28627   0.032   8.091   1.813  0.2394  0.0140 -0.2468
11781W        W28628  16.966  17.913   1.066 -0.1867  0.1559 -0.2058
11782W        W28629  14.247  14.110   0.410  0.4885  0.0473  0.1168
11783W        W28630  15.032   5.951  13.927  0.0268 -0.2507 -0.1191
11784W        W28631   8.050  12.193   4.864  0.2815  0.0767 -0.0103
11785W        W28632   6.058   2.459   3.305  0.1074 -0.1747 -0.0555
11786W        W28633   3.127  10.790  10.905  0.0414  0.3360 -0.0936
11787W        W28634  14.159   7.482   3.921 -0.0535 -0.1108 -0.2499
11788W        W28635  10.762   3.252  11.059  0.3171 -0.2813  0.0273
11789W        W28636   6.247   9.291   0.340  0.2248  0.5112 -0.3118
11790W        W28637   4.735  14.703   1.469  0.3748 -0.0477 -0.1132
11791W        W28638  18.399  11.392  14.153 -0.2806 -0.0639 -0.3965
11792W        W28639  11.363   8.940  12.677  0.2143 -0.0860  0.0840
11793W        W28640   0.927   2.274   0.198  0.0399  0.0412  0.2767
11794W        W28641   8.832  19.034  12.935 -0.1816  0.1974 -0.0788
11795W        W28642   1.103  10.899   0.724 -0.0130 -0.1830 -0.0387
11796W        W28643   0.743   8.348   1.532 -0.1632  0.1773 -0.3372
11797W        W28644  19.771  18.535   0.658 -0.1777  0.3277 -0.2670
11798W        W28645   9.795  15.869  13.673  0.1728 -0.0592  0.0987
11799W        W28646  13.813  18.385   2.055  0.0899  0.2374 -0.0321
11800W        W28647   4.595   1.073   3.355  0.0948 -0.1444  0.2961
11801W        W28648   6.335  11.815   9.800  0.0711 -0.2542 -0.2481
11802W        W28649  14.476  16.786  14.093  0.2111 -0.0571 -0.1774
11803W        W28650   7.092   1.822   2.761  0.2033 -0.3445  0.1544
11804W        W28651  16.829  13.415   9.520  0.1266 -0.0826  0.0374
11805W        W28652  11.047   3.646   9.119 -0.4550 -0.1247 -0.0592
11806W        W28653  16.205   7.094  13.788 -0.0857 -0.1596 -0.0319
11807W        W28654   6.667   7.218  14.332  0.5886  0.0348 -0.2825
11808W        W28655  15.916   3.997  10.239 -0.0936  0.0495  0.0564
11809W        W28656   8.683   9.225   1.973  0.1290  0.1105 -0.1088
11810W        W28657  14.762   7.704   3.239 -0.0882  0.1537  0.0080
11811W        W28658   7.120  15.532   0.878 -0.0107  0.0794 -0.0583
11812W        W28659  17.447  11.308  14.175  0.0200 -0.1100 -0.2655
11813W        W28660   4.512   1.183   0.411  0.2178  0.1488  0.1930
11814W        W28661   0.465  17.997   3.681  0.0532 -0.0498  0.0651
11815W        W28662  16.377   0.792   0.470  0.3699  0.0926  0.2947
11816W        W28663  14.342   2.808   4.163 -0.1835 -0.1496  0.0997
11817W        W28664   9.252  16.253  11.035 -0.1313  0.1339 -0.0504
11818W        W28665  18.600   3.150  12.402 -0.2117 -0.1170 -0.0256
11819W        W28666   6.403   1.108   0.786  0.0840 -0.0369 -0.0812
11820W        W28667   9.179   9.977  13.417  0.0110  0.2737  0.0662
11821W        W28668   5.224  17.604  13.521  0.4130 -0.3463  0.0245
11822W        W28669   4.535  10.939  13.814  0.0000  0.1526 -0.2273
11823W        W28670   1.784   5.090   0.489  0.1103  0.0703 -0.1621
11824W        W28671   5.463   4.940  12.643 -0.0533  0.0319 -0.0432
11825W        W28672  12.338   3.359  10.758  0.0331  0.1277  0.1832
11826W        W28673  11.413   6.042  12.033  0.1100 -0.1379 -0.0634
11827W        W28674   4.049   0.821  10.374 -0.2972  0.0309  0.0373
11828W        W28675   9.977   5.516   0.772 -0.1470  0.1914  0.2742
11829W        W28676  15.797   8.892  13.976 -0.4017  0.1427 -0.2277
11830W        W28677   7.711  10.491   9.279  0.3758  0.0489 -0.2429
11831W        W28678  19.774   4.615   0.838 -0.2852 -0.0540  0.2997
11832W        W28679   8.604  16.151   3.288  0.0707  0.1136 -0.0184
11833W        W28680   8.650  13.691  10.702 -0.0577  0.3938  0.2434
11834W        W28681  18.860  18.020  14.244 -0.2853 -0.1226 -0.3286
11835W        W28682   1.730   5.561  11.884 -0.1301 -0.0081  0.0848
11836W        W28683  13.014   7.630  10.348 -0.4278  0.5159 -0.1917
11837W        W28684  17.478  19.281  11.823  0.3254  0.4907  0.0745
11838W        W28685   9.805  18.693   2.641  0.1582 -0.0428 -0.0023
11839W        W28686   9.359   6.413  10.777  0.0555  0.0522 -0.0043
11840W        W28687  14.007  18.976   0.406  0.1616 -0.2725 -0.2030
11841W        W28688   8.009   8.381   1.749  0.4321  0.1712 -0.2124
11842W        W28689  18.309  11.201   1.183 -0.1396  0.4781 -0.0601
11843W        W28690   8.500   4.276   3.388  0.2598 -0.0821 -0.0483
11844W        W28691   4.370   9.082   1.695 -0.1666 -0.0140 -0.0289
11845W        W28692   5.142   3.875  10.869 -0.0799 -0.1587  0.3315
11846W        W28693   9.528   6.792  10.397 -0.2848 -0.1675 -0.1269
11847W        W28694  12.216  15.393   1.904  0.1170 -0.2218 -0.0759
11848W        W28695  17.625   4.497   0.471 -0.0466  0.0348  0.2171
11849W        W28696   3.152   3.805   0.044  0.0664 -0.2498 -0.2076
11850W        W28697   3.940   5.623   0.665  0.2298 -0.3028 -0.1543
11851W        W28698   5.315  11.904  12.055  0.1238  0.0065  0.1202
11852W        W28699  13.294   0.484   1.277  0.0545 -0.0348  0.1687
11853W        W28700  16.552   5.979   2.376 -0.0444  0.0320  0.1338
11854W        W28701   5.746   1.835   0.960  0.1507  0.0601  0.3316
11855W        W28702  10.318  16.467   5.244  0.0055  0.4150  0.0268
11856W        W28703   7.569  18.959   0.027  0.1311 -0.3029  0.1142
11857W        W28704   9.943  17.014   1.187 -0.0548 -0.0975  0.1030
11858W        W28705   9.566  13.421  12.739  0.0192  0.0570  0.2944
11859W        W28706  11.812   5.125  13.104 -0.0002 -0.2501  0.0997
11860W        W28707   0.415   5.267   1.225  0.0544 -0.1799 -0.1062
11861W        W28708  19.836  10.807   2.006  0.1516 -0.0336  0.2810
11862W        W28709   2.033   9.620   9.380 -0.0407  0.3071 -0.2605
11863W        W28710  13.090   9.545   9.001  0.4380  0.1780 -0.0602
11864W        W28711   3.612   4.032   2.386 -0.2782 -0.2052 -0.1814
11865W        W28712  13.505   4.862   0.044 -0.0183  0.2280 -0.2960
11866W        W28713  17.122   2.209   1.085 -0.3398  0.4579  0.0489
11867W        W28714   3.759  13.139   1.966 -0.3196 -0.1030  0.1340
11868W        W28715   2.309  18.915  10.669 -0.1341  0.0880 -0.0869
11869W        W28716  16.420   0.648   9.962  0.1213  0.1601  0.1874
11870W        W28717   3.069   2.586   1.039 -0.2960  0.0602  0.2534
11871W        W28718   5.079  13.193   3.634  0.3074  0.3213 -0.0735
11872W        W28719   4.228  14.840   1.766 -0.2390  0.0112  0.0313
11873W        W28720  12.821   4.329  12.344  0.1074  0.0062 -0.0678
11874W        W28721   8.136  16.863  12.504  0.2812 -0.1392 -0.1567
11875W        W28722  13.819  18.453  12.169  0.2681  0.0632  0.3416
11876W        W28723   3.833  19.222   4.054 -0.0505 -0.0833  0.1267
11877W        W28724  11.182  10.382   0.362 -0.1597 -0.2207 -0.0456
11878W        W28725  11.652   5.698   2.668 -0.1152 -0.0222 -0.2082
11879W        W28726   7.693   4.360  10.384 -0.0299 -0.1874  0.2972
11880W        W28727   8.965  14.225   3.270 -0.0283  0.1004 -0.0871
11881W        W28728   5.040  12.800  12.093  0.0349  0.1698  0.1238
11882W        W28729   4.112  13.452   0.017  0.0653 -0.2135 -0.1670
11883W        W28730  11.566   2.457   2.329  0.1723  0.0551 -0.0342
11884W        W28731   3.624   9.316   4.505  0.1285  0.1749  0.2224
11885W        W28732  14.043   4.776   2.734  0.0832 -0.0799  0.0803
11886W        W28733  11.916   7.907  12.845 -0.1670  0.1249  0.2751
11887W        W28734  13.937  12.014  13.896  0.1542  0.3746  0.3564
11888W        W28735   8.074  17.756   1.997  0.2708 -0.1070 -0.2347
11889W        W28736  18.948   9.100  10.949  0.2009 -0.0860  0.0544
11890W        W28737   0.322  16.419   0.840  0.1255  0.1452  0.2084
11891W        W28738  16.296   4.418  11.471  0.0158  0.1552  0.3459
11892W        W28739   5.267  12.403   0.524  0.0682 -0.1186 -0.0842
11893W        W28740   3.237   5.277   9.853 -0.1429 -0.0197 -0.0825
11894W        W28741  10.204   8.570  13.227  0.0064  0.1715  0.0725
11895W        W28742  19.015   9.567  12.363  0.0102 -0.2204  0.2275
11896W        W28743  13.667   1.783  10.215 -0.1419  0.0545 -0.2181
11897W        W28744  11.673   9.997  13.632 -0.2191  0.1409  0.0648
11898W        W28745   4.156  17.809   9.953  0.1932  0.3946 -0.0494
11899W        W28746  10.590  10.953   2.641 -0.1126  0.1013 -0.1465
11900W        W28747   0.735   7.989  11.025 -0.5665  0.0006  0.3045
11901W        W28748   5.875  18.759   0.108  0.2526  0.1261  0.0233
11902W        W28749   6.995   6.316  10.699  0.0226  0.0847 -0.0464
11903W        W28750  18.615  12.920   1.241 -0.1489  0.0897 -0.0309
11904W        W28751   8.827   3.443   3.706  0.0909 -0.0383 -0.5601
11905W        W28752   2.682   0.219   0.001 -0.1564 -0.0581  0.0416
11906W        W28753  18.540   8.142  12.770  0.0020 -0.0542 -0.1502
11907W        W28754   7.581  11.051   2.627 -0.1701  0.1488  0.0270
11908W        W28755   8.930   4.394   0.080  0.1606  0.1707  0.1292
11909W        W28756  18.412  13.977   0.007 -0.1640 -0.2151  0.0151
11910W        W28757   7.648  17.725  10.301  0.0444 -0.2114 -0.0880
11911W        W28758   0.023   2.985  13.598 -0.2311  0.3946 -0.1944
11912W        W28759  15.347   0.558   4.524 -0.2356  0.1965 -0.0874
11913W        W28760   9.205   1.355  10.528 -0.0711 -0.1834  0.3420
11914W        W28761  13.962  10.843   0.211  0.0223  0.3303  0.0398
11915W        W28762   0.312   0.346   0.003  0.2790 -0.4709  0.1043
11916W        W28763  19.132  10.832   0.692  0.0422 -0.0081  0.0163
11917W        W28764   1.497  10.388  11.222  0.4554 -0.0338  0.0623
11918W        W28765  11.689   0.109   3.519  0.1898 -0.2156 -0.2607
11919W        W28766   1.363   9.668   0.631 -0.0768  0.3396 -0.3301
11920W        W28767  17.377  14.551  10.134 -0.2320  0.0727  0.1442
11921W        W28768  18.627   7.045   1.280  0.1501  0.3324 -0.0480
11922W        W28769   3.847  18.083  12.146  0.2587 -0.0078  0.0752
11923W        W28770  10.306   1.590   4.278 -0.2125  0.0328  0.2165
11924W        W28771   8.495  14.803   2.269 -0.1104  0.0895  0.1627
11925W        W28772   7.302  18.598   0.368  0.1796  0.0456 -0.3658
11926W        W28773  10.413   2.056   2.849 -0.1055 -0.3593 -0.0832
11927W        W28774   3.189   5.897  12.335  0.3395  0.0426 -0.3613
11928W        W28775   2.492   4.625   2.130 -0.4020  0.0552  0.3565
11929W        W28776   7.323  11.786  11.772 -0.0168 -0.1056  0.1387
11930W        W28777  15.515   4.573   4.218 -0.2536 -0.1684 -0.0463
11931W        W28778   5.963   4.777  10.297  0.1833  0.0928 -0.1694
11932W        W28779   5.179  15.095  11.041  0.0665  0.1665 -0.0609
11933W        W28780  11.438   0.432   2.197  0.0715  0.0241 -0.0373
11934W        W28781  14.259   3.456  14.232 -0.0761  0.1920 -0.1024
11935W        W28782  19.716  18.562   1.197 -0.1309 -0.0060  0.1243
11936W        W28783   7.504  13.726  12.224 -0.0554  0.1080  0.1384
11937W        W28784  16.004   0.556   3.240  0.1114  0.2335 -0.0377
11938W        W28785   3.588  19.852   0.276  0.0872 -0.1896 -0.2736
11939W        W28786   7.670   0.830   5.510 -0.2428  0.0477 -0.1336
11940W        W28787   1.969   5.194   1.283 -0.1159 -0.0077 -0.1267
11941W        W28788  10.121  18.607   3.113  0.2086  0.0096  0.1218
11942W        W28789  15.126   5.480   2.078  0.0295  0.0848 -0.1169
11943W        W28790  11.445  10.012   0.961  0.1391  0.0389  0.3367
11944W        W28791   2.446  14.206  12.153  0.0729 -0.3015  0.3428
11945W        W28792   3.468   7.534  11.928  0.1974 -0.1166 -0.4764
11946W        W28793  11.346   7.276   4.024 -0.0499  0.1565 -0.0350
11947W        W28794  15.121  18.138   4.119  0.0579 -0.3483 -0.1109
11948W        W28795   9.503  15.008  13.280 -0.0008 -0.0856  0.2193
11949W        W28796  10.596   0.250  13.373  0.2764 -0.4314 -0.2354
11950W        W28797   8.622  16.412   4.563  0.2043 -0.2142  0.0007
11951W        W28798   8.810  16.995   4.840  0.2523 -0.0001  0.1692
11952W        W28799   6.292   3.267  11.119 -0.1546  0.0752 -0.4281
11953W        W28800   5.954   4.271  10.370  0.1292  0.1599  0.1949
11954W        W28801   5.495  12.185  12.517  0.3510  0.2462  0.1944
11955W        W28802  17.403   3.278   1.819  0.1105  0.0919  0.2710
11956W        W28803  10.131  14.710  13.995 -0.1277  0.0720  0.1263
11957W        W28804  16.356  12.129  14.263 -0.0361 -0.1677 -0.0821
11958W        W28805  18.006   0.042   3.714 -0.2473 -0.1585  0.1343
11959W        W28806  18.041   1.521   1.693  0.1203  0.1845  0.0211
11960W        W28807   5.028  13.331   4.238 -0.1491  0.3237 -0.0684
11961W        W28808   2.878   5.842   2.997 -0.0687 -0.4167  0.0696
11962W        W28809  15.289   6.279  12.224  0.2837  0.0515  0.0891
11963W        W28810  18.351   2.770  10.618 -0.3576  0.2524  0.5243
11964W        W28811   0.352  18.461   0.954 -0.0721  0.0090 -0.4251
11965W        W28812   2.806  17.796   0.880 -0.0463 -0.3082  0.3011
11966W        W28813   7.582   3.202  12.497  0.0712  0.2204 -0.2587
11967W        W28814  11.356  18.957  13.878 -0.2781 -0.0146 -0.1130
11968W        W28815  13.293   2.345   1.601 -0.3582  0.0029 -0.1613
11969W        W28816   6.719   9.477  13.892 -0.0147  0.1466  0.0623
11970W        W28817  13.171  10.177  11.861  0.2941  0.0063  0.1908
11971W        W28818  17.453   0.582  10.594 -0.1807 -0.1415 -0.1511
11972W        W28819   0.134  18.546   4.304  0.0952 -0.1250 -0.0011
11973W        W28820   4.180  17.519  10.969  0.1528  0.1390  0.1330
11974W        W28821   8.254  14.209   4.513 -0.3388  0.2045  0.2466
11975W        W28822  18.664  13.129  11.129 -0.0236  0.0672  0.0747
11976W        W28823   3.676   3.024   1.369  0.1208  0.3858 -0.1676
11977W        W28824  15.310   1.720  10.197  0.3048  0.4163  0.0390
11978W        W28825  16.586   3.270  11.085  0.2306  0.3190  0.0062
11979W        W28826  15.632   7.358  12.521 -0.1807 -0.1369 -0.5922
11980W        W28827   7.304  10.014   2.812  0.1122 -0.3166 -0.2023
11981W        W28828   0.811  10.775   9.569 -0.1930 -0.0267 -0.1520
11982W        W28829  15.964   9.000  10.629 -0.3001 -0.0439  0.4105
11983W        W28830   5.032  17.021   2.679  0.2123  0.0685 -0.0332
11984W        W28831   8.344  10.984  13.109  0.0370 -0.1349  0.1781
11985W        W28832   4.112   5.767   2.191 -0.0200  0.0526 -0.2269
11986W        W28833  11.695   7.786   9.986  0.3027 -0.1207  0.1354
11987W        W28834  12.708  18.673  13.940  0.1362  0.2066 -0.0172
11988W        W28835  19.406  19.471   3.996 -0.1473 -0.0355  0.1493
11989W        W28836   9.933   7.199  12.862  0.0752 -0.0397 -0.3300
11990W        W28837   2.253   3.574   1.615  0.1269  0.0099  0.1609
11991W        W28838  11.528  15.867   3.628 -0.1583  0.3094  0.0280
11992W        W28839   1.665  16.118   5.047 -0.1475  0.3304 -0.1844
11993W        W28840  16.394  17.860  10.738 -0.1077  0.0439 -0.2194
11994W        W28841   5.610   7.033   0.744 -0.0642 -0.1219 -0.2245
11995W        W28842  17.807  16.528   2.933  0.1804 -0.0495 -0.2204
11996W        W28843  12.319  15.883  10.259  0.0156 -0.0496 -0.0760
11997W        W28844   8.825  13.034   3.648  0.1638 -0.2054 -0.0463
11998W        W28845  18.034   6.873   0.685 -0.0044  0.2448  0.1583
11999W        W28846  14.444  11.013   0.645 -0.2812  0.2509  0.0244
12000W        W28847  12.391  14.591  13.170 -0.1176 -0.0165  0.1598
12001W        W28848  14.622  18.081  10.485  0.3869  0.1071 -0.0920
12002W        W28849   4.357   8.827  12.755  0.1257 -0.1636  0.1175
12003W        W28850   9.812   0.658  10.846 -0.2628  0.1724 -0.0310
12004W        W28851   2.084  11.273  13.603 -0.2481  0.0205  0.1817
12005W        W28852   9.902   1.021   1.552 -0.0564  0.0665  0.3009
12006W        W28853   3.956   8.902   0.878 -0.1354 -0.2642 -0.1804
12007W        W28854  18.836   4.672  13.906  0.1517  0.2598 -0.1860
12008W        W28855  13.449   8.770  13.508  0.4274  0.1587 -0.1998
12009W        W28856  18.104   9.671   1.750  0.2097  0.0728 -0.1893
12010W        W28857   4.521   0.558   3.386 -0.0958 -0.3985 -0.3087
12011W        W28858   8.799  11.140   1.701 -0.0303  0.2943 -0.2551
12012W        W28859   6.446   0.048  11.670 -0.2381  0.0147  0.2549
12013W        W28860   2.112   4.477  12.674  0.2647 -0.0901 -0.1774
12014W        W28861  13.178  10.936  10.738 -0.2700  0.1147 -0.1823
12015W        W28862  12.105   7.002   2.368 -0.5321  0.0301 -0.1231
12016W        W28863   7.535  15.296   1.210 -0.1389  0.1461 -0.2372
12017W        W28864  10.094   5.216  13.379 -0.4051  0.1279 -0.4462
12018W        W28865   5.419   3.038   1.731 -0.1322 -0.0455 -0.0338
12019W        W28866  12.954   9.146   1.904  0.0955 -0.1109  0.0198
12020W        W28867   2.434  18.681  11.093  0.1607  0.1183 -0.0162
12021W        W28868   3.813  11.962   2.891 -0.1700  0.2648  0.0744
12022W        W28869  13.297   4.063   0.932  0.0092  0.1116 -0.2810
12023W        W28870   7.936  10.613   2.720 -0.1667 -0.1181 -0.0951
12024W        W28871   9.466  13.992  10.984 -0.1115  0.0673 -0.1792
12025W        W28872   7.344   8.758  10.053  0.0120 -0.3194 -0.3097
12026W        W28873  13.901  13.745  13.248  0.1015  0.0207  0.0877
12027W        W28874  11.202   4.541   2.749  0.1598  0.0201  0.1446
12028W        W28875   7.050  19.294   3.792  0.1150  0.2051  0.1560
12029W        W28876   0.515  12.846   2.820  0.0451  0.3369 -0.0930
12030W        W28877   0.872  15.555   0.709  0.1461 -0.0392 -0.2313
12031W        W28878   5.279  13.154   2.145 -0.1706 -0.2184 -0.2815
12032W        W28879  16.248  12.361  12.520  0.1601  0.3392 -0.0052
12033W        W28880   8.119  18.052   1.576  0.1666 -0.0607 -0.1155
12034W        W28881  11.182   8.162   4.196  0.3787 -0.0155  0.0994
12035W        W28882  16.675  16.971   2.426 -0.2448  0.0915  0.3421
12036W        W28883  19.247  11.873  10.839 -0.0765  0.3750  0.0519
12037W        W28884  16.357  12.754   9.941  0.1605 -0.2710  0.1551
12038W        W28885   2.404  14.980  13.284  0.1931 -0.2423  0.2565
12039W        W28886  19.443   4.608   3.754  0.0215  0.2498 -0.0443
12040W        W28887  17.567  12.571   0.504 -0.1513  0.0009  0.4074
12041W        W28888   8.566   5.285   0.557 -0.2893 -0.3209 -0.0222
12042W        W28889   5.547  13.299  11.527  0.1369 -0.2478  0.0463
12043W        W28890  19.287   3.878   0.971 -0.2477  0.1730 -0.0401
12044W        W28891   8.394  13.989   1.610 -0.1294 -0.1315 -0.1243
12045W        W28892   6.326   0.882   1.891 -0.0264 -0.0623  0.2540
12046W        W28893  11.144  10.781   3.693 -0.1592 -0.0488  0.0036
12047W        W28894  12.773  18.201   9.185  0.1161 -0.0065  0.1455
12048W        W28895  16.200  19.716  10.494 -0.1805 -0.0206  0.0075
12049W        W28896  12.697   4.182  11.853 -0.1374  0.0897 -0.1480
12050W        W28897   9.533  17.195   1.652  0.1305 -0.1143 -0.1146
12051W        W28898  14.348  11.966  11.634  0.2671  0.2530 -0.0358
12052W        W28899   7.890   4.930   3.899  0.2601  0.3985  0.1287
12053W        W28900   8.161  17.054   3.074 -0.2331 -0.0052  0.2204
12054W        W28901   6.121   8.884   0.002 -0.0705  0.4381  0.2217
12055W        W28902  16.169  11.195  11.793 -0.5651 -0.1939 -0.2162
12056W        W28903   2.129  14.013   0.442 -0.1851 -0.0842  0.1358
12057W        W28904   4.092  19.663   0.342 -0.0640 -0.1198 -0.0011
12058W        W28905   6.269   6.737   4.589 -0.2917 -0.1088  0.0696
12059W        W28906   7.583  14.887   2.750 -0.1192 -0.0372 -0.0963
12060W        W28907   3.906   9.842  13.087 -0.2865 -0.0377  0.1327
12061W        W28908   7.625  18.259  13.587 -0.0794 -0.1326 -0.0806
12062W        W28909  17.637   9.302   3.928  0.0009  0.0835 -0.3216
12063W        W28910   5.957  14.282  11.933 -0.0189 -0.4745 -0.2047
12064W        W28911   5.596  17.574  12.126  0.1330 -0.4511 -0.0102
12065W        W28912   1.816  13.758  10.232  0.1694 -0.2867 -0.1692
12066W        W28913   5.689   5.289  13.589  0.0840 -0.0718 -0.1990
12067W        W28914   8.912   7.253  14.028 -0.0690  0.1996  0.1494
12068W        W28915   3.984  19.558   1.285 -0.1677 -0.0205  0.3729
12069W        W28916   4.186  18.409  13.260  0.2702  0.0568  0.1010
12070W        W28917   0.484  12.293   1.686  0.0897  0.1203  0.3532
12071W        W28918   4.870   2.624   5.172  0.0892  0.6177  0.1249
12072W        W28919  15.226   3.368   4.945 -0.1510 -0.3804 -0.1103
12073W        W28920   9.317   1.280   0.421  0.1719  0.0286 -0.2137
12074W        W28921   4.557   0.959  10.185  0.3932  0.1305 -0.1358
12075W        W28922   7.120  15.017  14.149 -0.2077  0.1555 -0.3628
12076W        W28923  18.583   1.445   2.743 -0.2005 -0.0903  0.0465
12077W        W28924  16.722  10.422  12.091  0.1858 -0.0243 -0.0411
12078W        W28925  12.926   8.460  11.302  0.0478  0.3151  0.3948
12079W        W28926   5.177   7.949   1.798 -0.0281  0.3170 -0.1507
12080W        W28927   6.656  14.391   2.418 -0.1164 -0.1765 -0.0152
12081W        W28928  17.910   4.672   9.434  0.2596 -0.0329 -0.0262
12082W        W28929   2.802  16.296   0.818  0.0093  0.0743  0.4783
12083W        W28930  15.593  11.197  13.860  0.0528 -0.0882 -0.0690
12084W        W28931   4.386   7.727  10.654  0.2810  0.2512  0.1158
12085W        W28932   3.566   8.938   3.032 -0.2728 -0.0147 -0.0687
12086W        W28933  19.848  11.249   1.568 -0.0848 -0.1195 -0.0939
12087W        W28934  14.984   1.662   9.788 -0.0726 -0.1951  0.2057
12088W        W28935  14.829   9.163  13.310 -0.0277 -0.0011 -0.1486
12089W        W28936  19.859   0.033   1.217 -0.1854  0.2248  0.1302
12090W        W28937   4.494  10.310   4.318  0.1007 -0.0086  0.1979
12091W        W28938   4.351   1.657   9.083  0.0037  0.0155  0.2619
12092W        W28939   7.702  18.815   1.427 -0.3344 -0.3343 -0.2407
12093W        W28940  11.897   6.987   1.392  0.0521 -0.1008 -0.2799
12094W        W28941  17.165  10.859   0.759 -0.2620  0.0081  0.3735
12095W        W28942  14.607  16.265   0.687 -0.1565 -0.1796  0.1690
12096W        W28943  19.159  13.472   4.322  0.4634  0.2403 -0.1333
12097W        W28944  12.762  12.575   0.819  0.1684 -0.2927  0.1164
12098W        W28945   4.519   0.023   9.917 -0.2427  0.2504 -0.0702
12099W        W28946   8.998   8.354   2.169 -0.0383 -0.1055 -0.5050
12100W        W28947   8.393   6.638   2.477 -0.2954 -0.0627 -0.1073
12101W        W28948  16.090  14.358   9.496  0.0438  0.0694  0.0547
12102W        W28949   3.806  11.605   1.613 -0.1917 -0.1960 -0.0188
12103W        W28950  18.424   9.582  14.113  0.0431  0.0973 -0.1690
12104W        W28951  10.766  12.245  13.364 -0.2765  0.1447  0.1399
12105W        W28952   2.258  13.682  10.547  0.0638  0.0709  0.2948
12106W        W28953  16.091   1.818   1.244 -0.1863  0.2322  0.2536
12107W        W28954   7.580   9.809   0.238 -0.2077  0.0223 -0.1464
12108W        W28955  18.626   2.644  12.534  0.0292 -0.0154 -0.1799
12109W        W28956  16.755   9.088  11.929  0.1709 -0.2273  0.3109
12110W        W28957   4.218   3.060   4.516  0.1552  0.1949 -0.1858
12111W        W28958  17.875  18.300   1.354 -0.1468 -0.1019  0.0408
12112W        W28959  10.387  11.331   3.070 -0.3522  0.3182  0.1690
12113W        W28960   7.865   4.790  13.208 -0.2396 -0.0510  0.2172
12114W        W28961  12.810  16.726   4.148  0.1032  0.2612  0.0926
12115W        W28962  16.499  19.780  13.014  0.0539  0.0962  0.1972
12116W        W28963   1.140   9.413   4.182 -0.3068 -0.2516 -0.0217
12117W        W28964   1.393  16.539  12.117  0.0767  0.0247 -0.1817
12118W        W28965   2.487   5.629   0.671 -0.1421  0.1602  0.1113
12119W        W28966   5.616  10.492   2.350 -0.1306  0.1983  0.0467
12120W        W28967   2.410  12.868  10.321  0.0954 -0.1309  0.1061
12121W        W28968  18.215  13.730  13.454 -0.0098  0.0478  0.2005
12122W        W28969  12.920   0.182   9.715  0.0560 -0.0038  0.0340
12123W        W28970   1.021   1.500   9.967  0.2027 -0.0867  0.3517
12124W        W28971   1.902  11.855  14.178  0.2800  0.0719  0.2357
12125W        W28972  17.073   1.415  13.059  0.2021  0.3592 -0.2946
12126W        W28973   1.899   9.021   2.103 -0.0575  0.1916  0.2981
12127W        W28974   5.325  18.487  13.566  0.1305 -0.0439 -0.0182
12128W        W28975  13.152   4.081  12.043 -0.2069  0.1319 -0.0885
12129W        W28976  12.742  10.117   9.678 -0.2936  0.2260 -0.0300
12130W        W28977  16.443   3.485   1.453  0.1418 -0.1960  0.0957
12131W        W28978  17.345   3.750  12.947  0.1085  0.0932  0.0795
12132W        W28979  11.028   2.648   9.219  0.3224  0.1787 -0.1115
12133W        W28980  17.829   7.589  12.483 -0.0776  0.0332 -0.1401
12134W        W28981  15.330  18.733  12.822 -0.1379  0.0091 -0.0412
12135W        W28982   9.981  12.124   0.100 -0.0158  0.1331 -0.2319
12136W        W28983  16.879  15.309  12.738 -0.4188  0.1649 -0.1453
12137W        W28984  16.991  11.931   2.373 -0.0746 -0.0845 -0.1312
12138W        W28985  12.837   7.770   2.428  0.2455 -0.1944  0.3893
12139W        W28986  19.872   0.081   2.447  0.0909 -0.3837  0.2811
12140W        W28987  17.873   6.264   3.231 -0.4241  0.1629  0.0800
12141W        W28988   8.076   8.501  11.534  0.0338 -0.2596 -0.1681
12142W        W28989   5.597   6.539  10.964 -0.1459 -0.1664 -0.1147
12143W        W28990   0.558  16.225   3.938 -0.2993 -0.0165 -0.0875
12144W        W28991  19.720   2.679  12.467 -0.0076  0.2885  0.0519
12145W        W28992   0.862  11.332  12.051  0.0676  0.3488  0.2475
12146W        W28993   2.141   4.558  11.178  0.0031 -0.0080  0.0580
12147W        W28994  17.896  11.930  10.146 -0.0735  0.0564 -0.1230
12148W        W28995   6.835  19.172   1.233 -0.2496 -0.1205  0.4423
12149W        W28996   9.559   8.939  12.897 -0.4317  0.0304  0.0519
12150W        W28997   7.614  17.063  11.230  0.0378 -0.0468  0.0024
12151W        W28998  10.165  14.855   9.201 -0.0779  0.1895 -0.2078
12152W        W28999   1.865  11.817   4.707 -0.2403 -0.2043  0.0541
12153W        W29000  19.695  18.013  12.531 -0.3303  0.4510 -0.3090
12154W        W29001  10.443   2.926   2.600 -0.1912 -0.0155 -0.1336
12155W        W29002   7.808  13.893   9.579 -0.3444 -0.0455 -0.1072
12156W        W29003   3.402  19.402   9.690  0.0088  0.0728  0.0516
12157W        W29004  11.341   6.456  13.047  0.0230 -0.0089 -0.0811
12158W        W29005   2.737  17.097  11.243  0.2619  0.0019  0.0116
12159W        W29006  10.618  12.906   0.245  0.0158  0.1202  0.3311
12160W        W29007   1.014  17.828  14.270 -0.0259  0.0048  0.1557
12161W        W29008   5.603  12.223   0.855 -0.1681  0.2013 -0.1721
12162W        W29009   6.248   0.987  12.128  0.1817 -0.0481  0.1657
12163W        W29010   9.496   6.566   4.694  0.2153  0.2290  0.0672
12164W        W29011   0.834   1.388   1.589 -0.2740 -0.0745 -0.0086
12165W        W29012  15.025  19.438   0.288  0.1509  0.4885 -0.0314
12166W        W29013  13.564   8.977  11.185 -0.1539 -0.2404 -0.1913
12167W        W29014  14.796   0.034  14.130  0.5411  0.0260  0.3604
12168W        W29015  15.201   9.050  13.843 -0.1017  0.0253  0.0216
12169W        W29016   9.261   0.797  11.792 -0.1207  0.0529 -0.0393
12170W        W29017  18.814   5.247  10.699 -0.2489 -0.0078  0.2692
12171W        W29018  10.497   0.143  11.891 -0.1514  0.0134  0.2544
12172W        W29019   2.617   3.598  10.368 -0.4406  0.4434 -0.1132
12173W        W29020   6.087  13.819  10.410  0.2907 -0.1809  0.0052
12174W        W29021  14.391   7.737  13.191 -0.1726 -0.1975  0.3321
12175W        W29022   0.730   8.176  11.957  0.1167 -0.0828  0.1751
12176W        W29023   5.138   1.507  10.690 -0.0071  0.1709 -0.2865
12177W        W29024   9.791   7.897   2.464 -0.1171 -0.0830  0.3204
12178W        W29025   0.812   7.334  13.475 -0.0580 -0.0307 -0.0974
12179W        W29026   1.860   9.815  10.042  0.0014 -0.2541  0.2436
12180W        W29027  11.867   9.252  10.014  0.0588 -0.0459  0.1531
12181W        W29028  19.291   8.204  11.279 -0.0138  0.0382  0.0843
12182W        W29029  12.625   1.667  14.075  0.2477 -0.1586 -0.1046
12183W        W29030  16.430  10.209   3.357 -0.0382  0.0908  0.1226
12184W        W29031   2.746  14.829   3.077  0.4861 -0.1518 -0.0424
12185W        W29032  13.879   9.042  13.321  0.1455 -0.0066  0.4366
12186W        W29033   8.777  14.275   2.286 -0.1041 -0.3383 -0.0377
12187W        W29034   9.735  14.327  11.293 -0.2966  0.3767 -0.1964
12188W        W29035  19.560  12.699  11.121  0.3042  0.2200 -0.0187
12189W        W29036  10.241   7.045   2.801  0.4781 -0.4339 -0.2456
12190W        W29037  11.138  11.654  12.916 -0.0686  0.2173  0.1105
12191W        W29038  15.839  18.862  12.034 -0.6075 -0.1513 -0.0187
12192W        W29039  14.010  16.076  12.797  0.1750  0.2916 -0.2727
12193W        W29040  13.308   2.579  13.717  0.3922 -0.1706 -0.1089
12194W        W29041  14.546   4.757   2.484  0.2919  0.2015  0.0383
12195W        W29042   4.996  14.953  12.767  0.0880  0.0380 -0.1650
12196W        W29043  15.310   9.043   3.172  0.0213  0.1315  0.0439
12197W        W29044  16.750   9.583   4.338 -0.2068 -0.1076  0.0507
12198W        W29045  14.827   5.449   1.314  0.1580 -0.1545 -0.1939
12199W        W29046   3.153  13.772   1.626 -0.0798  0.3113 -0.2450
12200W        W29047  17.159   2.647  10.093  0.1444  0.0183  0.1226
12201W        W29048   5.582   4.751  13.725 -0.1773 -0.2501 -0.1925
12202W        W29049  10.481   6.123  12.205 -0.1665 -0.2888 -0.2242
12203W        W29050  12.023  14.117  13.056 -0.2254 -0.0455  0.0064
12204W        W29051   4.427  11.920   3.438  0.1104  0.2700  0.0421
12205W        W29052  11.741  19.564   1.154 -0.3569  0.4754 -0.4169
12206W        W29053   3.346  15.954   3.591  0.1220  0.1012 -0.3495
12207W        W29054   9.282  17.192   0.524  0.2328  0.1681  0.1774
12208W        W29055  12.260  13.114  12.998  0.1774  0.5445  0.6327
12209W        W29056  13.126   9.004  11.379 -0.0341 -0.0338  0.1537
12210W        W29057   2.737   1.797  11.088  0.0268 -0.1125  0.2434
12211W        W29058  10.675  13.653  12.607  0.0531 -0.1293 -0.1719
12212W        W29059   2.663  18.733   3.866  0.0902  0.0278  0.0185
12213W        W29060  17.117  13.021  11.760 -0.3851 -0.1518  0.2777
12214W        W29061   6.131  11.892  11.973  0.0063  0.0062 -0.0904
12215W        W29062  17.511   6.480   2.901 -0.1319 -0.4665  0.0926
12216W        W29063  15.559   6.367   4.245 -0.2597  0.0577  0.0699
12217W        W29064   2.072  15.996   4.263 -0.2699 -0.3275  0.1860
12218W        W29065   9.347  13.417   2.359  0.0334  0.1499  0.0456
12219W        W29066  11.909  11.603   0.378  0.1490  0.1150  0.1557
12220W        W29067  16.064  17.199   0.428  0.0917 -0.1363 -0.0377
12221W        W29068   9.716  18.188   1.710  0.0547  0.2990 -0.0275
12222W        W29069   7.656  17.773   4.369 -0.1191  0.4084 -0.1290
12223W        W29070  13.170   9.168  10.899  0.2979 -0.1469  0.2145
12224W        W29071  19.454   9.566  14.055 -0.3514  0.1137 -0.0214
12225W        W29072  12.008  10.407  14.162 -0.3475 -0.1288  0.0285
12226W        W29073  14.708   9.261   2.092  0.1037 -0.3141 -0.0376
12227W        W29074   9.368   5.728   3.692 -0.0420  0.1895  0.2477
12228W        W29075   1.520   1.882   9.781  0.1346  0.1330  0.0905
12229W        W29076   3.253   1.650   5.316  0.1710 -0.0709  0.0280
12230W        W29077   1.187   4.041   3.085  0.2298  0.2474 -0.1605
12231W        W29078  17.716   6.956   2.858  0.0014 -0.0404 -0.1750
12232W        W29079  11.026   8.758   2.839  0.4697  0.3482 -0.2204
12233W        W29080  17.504   6.681  10.745 -0.2458 -0.0110 -0.1343
12234W        W29081  12.547   6.869   3.938  0.1104 -0.1047 -0.1966
12235W        W29082  17.289   5.873   9.161 -0.0365 -0.5604 -0.3498
12236W        W29083   9.311  12.483  14.302  0.2488 -0.1264  0.1643
12237W        W29084  13.027  12.179   2.269  0.1341  0.0883 -0.0262
12238W        W29085  14.144   4.432  14.214 -0.1966 -0.1495 -0.0594
12239W        W29086   7.529  13.342  14.060  0.1238  0.0937  0.6129
12240W        W29087   0.155  11.705  12.777 -0.0342 -0.0663  0.0440
12241W        W29088  16.731  14.703  11.981  0.0186 -0.0614 -0.0864
12242W        W29089  18.715   5.703  12.183  0.3095 -0.0222 -0.0879
12243W        W29090   0.991  12.610  10.357  0.2501  0.0925 -0.0198
12244W        W29091   6.585   2.399  10.223  0.1879 -0.0071  0.1221
12245W        W29092   1.333  18.984   0.184  0.1314 -0.1111 -0.2719
12246W        W29093   2.140  14.605   0.882  0.0137 -0.2153  0.1303
12247W        W29094  18.836   3.211   1.339 -0.0059  0.0573 -0.1730
12248W        W29095   0.281   2.220  11.876 -0.0798 -0.1268  0.0709
12249W        W29096   8.760  16.545   0.657  0.2199 -0.1690 -0.0683
12250W        W29097   6.102   1.387   3.866  0.0449  0.3817 -0.3193
12251W        W29098   7.611   9.044  10.623  0.0573 -0.3068 -0.3526
12252W        W29099   8.346  13.423   3.373 -0.1216 -0.2233 -0.0281
12253W        W29100  11.172   9.681   0.649 -0.1131  0.3707  0.1888
12254W        W29101   2.645   8.933  12.007  0.3511 -0.0317 -0.3633
12255W        W29102  18.079   4.406  14.006  0.0481  0.0119  0.0732
12256W        W29103  10.580   1.203  12.793  0.0611  0.1104 -0.2990
12257W        W29104   7.346   6.360  11.825 -0.1792 -0.2064 -0.0724
12258W        W29105   3.379  11.196   1.653  0.0483 -0.3383 -0.0870
12259W        W29106   0.802   4.204   0.763  0.2375  0.1500  0.2322
12260W        W29107  12.989   7.195  10.575  0.0726 -0.1327 -0.0287
12261W        W29108   7.712   8.449   3.612  0.0029  0.3041  0.1111
12262W        W29109   7.123  15.080   2.749 -0.2899  0.0122 -0.4200
12263W        W29110   2.737   5.913   1.356 -0.2895  0.0107 -0.1441
12264W        W29111   8.378  12.228  12.315 -0.1118 -0.1159  0.2087
12265W        W29112  12.751   9.372  13.813 -0.1511  0.0177 -0.0447
12266W        W29113   3.018   1.650   1.258 -0.1632  0.1300  0.5283
12267W        W29114  10.344   5.846  10.264 -0.2113  0.0533 -0.1703
12268W        W29115  12.363  11.679   3.248 -0.0167 -0.2249 -0.2545
12269W        W29116   4.309   4.319  14.094  0.0283 -0.3254  0.0751
12270W        W29117  12.640   9.422   2.753 -0.0635  0.0953 -0.2786
12271W        W29118   3.386  11.829   1.854  0.2256  0.3498  0.1514
12272W        W29119   8.767   1.931   4.002 -0.2034  0.0048  0.1178
12273W        W29120  10.119  10.216   4.257  0.1490 -0.0535  0.1888
12274W        W29121   2.579  16.535   0.347 -0.1951 -0.1130  0.0523
12275W        W29122   5.578   2.825   3.132  0.0000  0.0016 -0.1255
12276W        W29123  11.586   4.689  13.388  0.1272  0.3700  0.2037
12277W        W29124   5.357  16.631  14.180 -0.0715 -0.0756 -0.1523
12278W        W29125  10.941   8.400  13.564 -0.0182 -0.0735  0.3045
12279W        W29126   5.170   6.074   1.117 -0.3502 -0.0610  0.1136
12280W        W29127  16.987  15.163   1.352 -0.1511  0.2094 -0.1597
12281W        W29128  11.837  13.781   4.494 -0.0952 -0.3035  0.0616
12282W        W29129   0.504   9.126  10.358  0.5558 -0.0134  0.0660
12283W        W29130   8.621  14.256  13.170 -0.6112 -0.2921  0.1773
12284W        W29131  19.860  19.421  13.966  0.0082 -0.0800  0.0498
12285W        W29132   1.770  19.881   2.760  0.1272  0.1479 -0.1658
12286W        W29133   8.122  17.829   2.862 -0.3300  0.1843  0.0016
12287W        W29134   9.000   7.837   3.770  0.1403 -0.2337  0.0602
12288W        W29135   9.201  10.363   4.701 -0.2724 -0.1177  0.2995
12289W        W29136   2.175  19.571   2.308 -0.1437  0.2255  0.0341
12290W        W29137  11.882   5.760  14.185 -0.0791  0.1528 -0.0144
12291W        W29138  14.098  12.358  12.681 -0.5332  0.1374 -0.1122
12292W        W29139   3.419  19.150  11.462 -0.5063 -0.1659  0.2252
12293W        W29140  14.860  14.216  10.937 -0.0026 -0.0013  0.1192
12294W        W29141   8.814   6.998   4.112 -0.0183  0.0148 -0.2300
12295W        W29142  19.385  11.341  12.609  0.0234  0.1238 -0.0464
12296W        W29143  17.637   5.150  10.140 -0.0272 -0.0665  0.0637
12297W        W29144  12.638  14.210   2.114  0.2670 -0.3619 -0.3993
12298W        W29145  12.098   1.751  12.799  0.0402  0.2458  0.0292
12299W        W29146   6.076   1.007   1.398  0.1609 -0.0473 -0.0275
12300W        W29147   8.951  18.674   0.640  0.0070 -0.2608 -0.3798
12301W        W29148  18.089   5.114   3.011  0.1298  0.1014 -0.0170
12302W        W29149  12.323  11.053   9.586  0.3816  0.2011 -0.0613
12303W        W29150  17.208   6.855   3.339 -0.0390 -0.2527 -0.2004
12304W        W29151   9.967   2.872  13.967 -0.0198 -0.1806 -0.0440
12305W        W29152  19.072   6.715  11.790  0.2196  0.0655  0.1938
12306W        W29153  12.204   6.198   0.203 -0.3741 -0.2223  0.0877
12307W        W29154  11.494  17.926   2.415  0.2271 -0.1567 -0.1359
12308W        W29155  19.118   7.958  10.889 -0.1522 -0.0815  0.3962
12309W        W29156  17.877  13.586   2.350  0.1767  0.2002  0.0701
12310W        W29157   1.970  16.649  12.292 -0.0475 -0.0107 -0.2190
12311W        W29158  10.817   0.739   0.140  0.1021  0.1441 -0.0223
12312W        W29159  11.118   6.358   0.975  0.0401 -0.0088  0.2488
12313W        W29160  10.649   7.879   9.011  0.1229  0.1106 -0.1380
12314W        W29161  12.940  17.022   0.209 -0.5272 -0.2644 -0.2095
12315W        W29162  18.884  10.132  13.041  0.0466 -0.3419 -0.1549
12316W        W29163   5.233   1.555  14.082  0.1264  0.2135 -0.3476
12317W        W29164   2.264   9.204   9.687 -0.2104 -0.1129  0.1284
12318W        W29165  11.265   9.295   3.726 -0.0446 -0.3640 -0.3691
12319W        W29166  19.322   8.263  14.209 -0.0240  0.0569  0.1862
12320W        W29167   6.196  11.157  14.357  0.0714 -0.0812 -0.3234
12321W        W29168  14.513  13.832   0.728 -0.0024  0.0271  0.0599
12322W        W29169   0.477   7.759  13.467  0.0667  0.3212  0.1712
12323W        W29170  16.044  16.139  13.703 -0.0193  0.2987  0.2377
12324W        W29171   2.206  11.809   0.637 -0.3606  0.0597 -0.1276
12325W        W29172  18.759   5.872  10.118 -0.0184  0.0034 -0.0312
12326W        W29173  12.224  10.054   2.185  0.0813  0.0085 -0.0929
12327W        W29174   8.264  15.941   2.971  0.0744  0.0351  0.5610
12328W        W29175  10.802  17.138   2.654  0.1401  0.0401 -0.0624
12329W        W29176   7.743   0.345   2.610 -0.0291 -0.1823 -0.1309
12330W        W29177  16.779  17.962   4.835 -0.2165 -0.0605 -0.1154
12331W        W29178  12.428   2.410   9.991 -0.0691  0.1356  0.0738
12332W        W29179  18.255   9.355   2.156  0.1940  0.1167  0.2209
12333W        W29180   2.741  12.965   2.837 -0.0856  0.1446  0.1793
12334W        W29181  11.710   8.021  14.256  0.3833  0.2066 -0.0197
12335W        W29182  12.897  13.413   2.439 -0.0339 -0.3198 -0.1805
12336W        W29183  11.754   9.515  13.702  0.1866 -0.0465  0.3030
12337W        W29184   5.114  13.548  11.349  0.2366 -0.0861  0.3226
12338W        W29185   7.344   7.811  11.242 -0.1907  0.1547  0.0030
12339W        W29186   2.829  12.573   4.584  0.2352  0.1434  0.2650
12340W        W29187  13.591   9.528  13.247  0.1749  0.2037  0.0533
12341W        W29188   7.670  12.558   2.349  0.2293  0.1045  0.1515
12342W        W29189  11.464  15.962   3.103  0.1331 -0.5172 -0.1297
12343W        W29190  12.022  14.454   3.467 -0.0240 -0.0434  0.4605
12344W        W29191  18.330  19.647   1.869  0.0348  0.0594  0.0078
12345W        W29192  10.599   4.988   8.719 -0.0984  0.0858 -0.1172
12346W        W29193  19.474   0.946   2.892 -0.0956 -0.0531  0.0769
12347W        W29194  11.271   2.787  13.345 -0.2842 -0.1436  0.0989
12348W        W29195  13.214  17.802   4.409 -0.0956 -0.1032 -0.1947
12349W        W29196  18.869  14.886  14.083  0.2382 -0.1178 -0.1389
12350W        W29197   2.043   0.344   2.627 -0.0293 -0.0316  0.0837
12351W        W29198  12.826   3.222  11.765 -0.0688 -0.1703 -0.0857
12352W        W29199  12.541   7.149   1.910 -0.1104  0.2307  0.0110
12353W        W29200   6.259  14.582   3.821 -0.0544  0.1507  0.0297
12354W        W29201   7.701   2.186  13.932 -0.0068  0.1198  0.1048
12355W        W29202  12.927  15.849   4.637  0.2391 -0.0995  0.1088
12356W        W29203  15.054  19.681   2.033 -0.0730 -0.0804 -0.0274
12357W        W29204  10.412  14.776   5.329 -0.0840 -0.1513 -0.2723
12358W        W29205   2.650  17.423   3.611  0.2127  0.1562 -0.1117
12359W        W29206  14.461   3.599   9.942  0.0882  0.0197 -0.0708
12360W        W29207   6.693  13.975   2.118  0.1759  0.1550  0.0359
12361W        W29208   4.445  14.348   1.943  0.0323  0.3058 -0.0051
12362W        W29209   3.319   4.020  12.323  0.0204  0.2575  0.2157
12363W        W29210  17.302   5.905   3.559  0.3566  0.0132 -0.1723
12364W        W29211   9.893   7.368   1.752  0.2238  0.0246 -0.0878
12365W        W29212  11.461  13.903  11.890 -0.1023  0.0718 -0.1252
12366W        W29213   0.413   9.105  12.349  0.0044  0.1268  0.0594
12367W        W29214  19.582  16.815   9.724  0.2011  0.0771  0.0033
12368W        W29215   5.062  16.307  12.316  0.1495  0.1462 -0.1443
12369W        W29216  13.361  13.858   0.381  0.2158  0.1922  0.0130
12370W        W29217   8.528   4.127  12.918 -0.0260 -0.0014 -0.0468
12371W        W29218  17.850   2.502  11.784  0.1264 -0.1937 -0.4177
12372W        W29219   8.653  19.831   1.114  0.0433 -0.0880 -0.0339
12373W        W29220   9.563  14.776   1.825  0.4431  0.0146  0.2346
12374W        W29221  14.693  11.121  11.341  0.1245  0.1474 -0.0048
12375W        W29222   8.569  13.448  11.922 -0.4636 -0.5914  0.0654
12376W        W29223   1.445  16.410   1.110  0.0648  0.1657 -0.1792
12377W        W29224   2.150  16.816   3.594  0.3848  0.0245 -0.1436
12378W        W29225  18.195   1.638   2.939 -0.0808  0.0693  0.0805
12379W        W29226  19.228   2.491   2.422  0.1249  0.0376 -0.0161
12380W        W29227  10.522   6.133   9.824 -0.3110  0.1178 -0.0537
12381W        W29228   1.648  11.701  11.240  0.2838  0.1348  0.0303
12382W        W29229  19.870  11.663  10.384 -0.2477 -0.0068 -0.1381
12383W        W29230   5.304  14.692   2.181  0.1256  0.0115 -0.0573
12384W        W29231   4.056   3.200   2.349  0.0507 -0.2448  0.1093
12385W        W29232   6.636  18.245   0.133 -0.5709 -0.1353  0.2509
12386W        W29233  14.566   3.657  11.737  0.1302 -0.0281 -0.2513
12387W        W29234  11.637   4.949   1.238 -0.2024 -0.1745  0.1977
12388W        W29235   1.745   8.169   5.130  0.1107  0.3580  0.0935
12389W        W29236   9.914   5.781   9.615 -0.2943 -0.0354 -0.0364
12390W        W29237   4.349   2.740   1.514 -0.1729 -0.3175 -0.1215
12391W        W29238   3.212  19.715   2.458 -0.0523 -0.2478  0.1641
12392W        W29239  19.208   5.207   0.073  0.1061 -0.2745 -0.0503
12393W        W29240  10.709  14.702  11.484  0.1220  0.1446 -0.2841
12394W        W29241   8.609   6.349   4.986 -0.3788  0.4444  0.1481
12395W        W29242  17.444  16.148  10.332  0.1669 -0.4710 -0.0448
12396W        W29243   3.724  16.623   1.889  0.0939  0.0563 -0.1873
12397W        W29244  10.373   2.443  12.271 -0.3644 -0.0237  0.1233
12398W        W29245  13.745  14.181   0.215 -0.2847 -0.2636 -0.0112
12399W        W29246  14.845   4.522   2.906 -0.2084 -0.1026  0.0827
12400W        W29247  18.395  16.822   1.834  0.2796  0.0580  0.2044
12401W        W29248  10.404  18.683   0.416 -0.0687 -0.1402  0.0074
12402W        W29249  12.823  10.966   2.169  0.0329 -0.0130 -0.0239
12403W        W29250  16.031   9.849   2.958 -0.0766  0.0002 -0.1561
12404W        W29251   3.696  19.448  13.687 -0.0055 -0.2471  0.2995
12405W        W29252   6.181   5.821   0.915  0.1147  0.0510  0.1118
12406W        W29253  10.147   9.752   4.394 -0.0317 -0.1992  0.1633
12407W        W29254   0.843   6.239  11.360 -0.1905 -0.3595  0.0303
12408W        W29255  12.367   0.047  13.503  0.0599 -0.0429 -0.2926
12409W        W29256   7.597  13.356   4.977 -0.2527  0.0035  0.0980
12410W        W29257   0.043  12.200  12.818  0.0150 -0.4740 -0.2366
12411W        W29258  11.769   6.683  10.976 -0.0145  0.0561  0.0148
12412W        W29259   1.419  12.970   1.885 -0.0487 -0.3759  0.2405
12413W        W29260  10.021   2.456   3.504  0.1988 -0.3405  0.1267
12414W        W29261  12.866   8.589   9.981 -0.3227  0.0639 -0.1404
12415W        W29262  19.733  13.384   2.037  0.0572  0.0466  0.2808
12416W        W29263  11.716  10.565  12.874 -0.1355  0.0311 -0.0220
12417W        W29264   4.070   3.725   3.200 -0.0080 -0.1648 -0.0414
12418W        W29265   5.692  13.864  10.722 -0.1933  0.1396  0.1643
12419W        W29266   2.665  15.156   1.919 -0.0506 -0.0749  0.0166
12420W        W29267   6.289   1.942  10.891 -0.2887 -0.2130  0.1481
12421W        W29268  13.234  10.817   2.494  0.2736 -0.0224  0.0969
12422W        W29269  10.525  16.218  11.736  0.2065  0.2555 -0.1736
12423W        W29270   1.689  19.535   2.415  0.1452  0.0769 -0.3979
12424W        W29271   6.784  16.395   0.589 -0.0161 -0.2666 -0.1023
12425W        W29272   3.557  12.635   0.438  0.1559 -0.1540 -0.3694
12426W        W29273  16.386   9.962   0.504  0.1102  0.1929  0.0814
12427W        W29274   9.623  13.868  12.489  0.2878  0.1541 -0.0724
12428W        W29275  16.206   2.516  12.558 -0.1502  0.1029 -0.1072
12429W        W29276  16.549  10.925  12.098  0.1432 -0.1646 -0.0624
12430W        W29277  11.947  15.569   1.059 -0.0654  0.0476  0.0198
12431W        W29278  15.504   2.046  12.163 -0.2685 -0.2694 -0.0400
12432W        W29279  15.867  11.792  10.006 -0.1166  0.3414 -0.1627
12433W        W29280  13.414   0.837  10.825 -0.3282 -0.1381 -0.0126
12434W        W29281   4.430  11.488  13.838  0.0572 -0.1092 -0.2468
12435W        W29282   5.250   6.543  11.867 -0.0882 -0.2870  0.3606
12436W        W29283   9.113  12.917   2.851  0.1011 -0.0564 -0.2057
12437W        W29284  14.341   6.522  14.056  0.3242 -0.1517  0.1514
12438W        W29285   5.565   2.862   2.173  0.0199  0.0006  0.0726
12439W        W29286   0.621   7.026  13.914  0.2876  0.0568  0.2045
12440W        W29287  15.693  10.666  12.500  0.0993  0.1360  0.1503
12441W        W29288  13.083  13.280  13.798  0.1630  0.2467 -0.2465
12442W        W29289  18.699  19.419  14.231 -0.2397  0.1382 -0.2038
12443W        W29290  13.858  13.730   0.596  0.1292 -0.0823 -0.1928
12444W        W29291   3.302   1.910   0.880  0.1240 -0.3399  0.2721
12445W        W29292   6.255   7.148  10.344  0.1980  0.1760  0.1292
12446W        W29293   7.854   8.164  12.805 -0.4259  0.2920 -0.1495
12447W        W29294  11.646   8.949  13.816  0.2474 -0.1887  0.1245
12448W        W29295   3.478   4.063   1.480  0.1183 -0.1520 -0.0429
12449W        W29296   1.797   9.498   0.538  0.0338  0.2563  0.0444
12450W        W29297   4.813  17.932  11.606  0.1701  0.1828 -0.0386
12451W        W29298  16.549  15.736  13.529  0.0495 -0.0485 -0.0242
12452W        W29299  18.430   9.130   0.217  0.1960  0.1809  0.0331
12453W        W29300  12.849   1.462  13.241  0.1619 -0.0026  0.1665
12454W        W29301   7.116  18.413  10.975  0.1282  0.2272  0.1361
12455W        W29302   8.140   1.204   0.508 -0.1782  0.0141  0.0781
12456W        W29303   4.551   7.812  12.781  0.0776  0.0251 -0.2225
12457W        W29304  10.648   6.845  14.050  0.0226  0.0387  0.1232
12458W        W29305  10.815   9.490  13.978 -0.2135  0.1562  0.0099
12459W        W29306   9.696   2.725  11.250 -0.0447  0.0626 -0.0654
12460W        W29307  11.262   1.922  12.090 -0.0290  0.0684  0.4732
12461W        W29308   8.641   1.526   2.686  0.2330  0.0709  0.1805
12462W        W29309   5.404  13.192  12.307  0.3484 -0.1802 -0.2535
12463W        W29310   4.325  13.948  10.721 -0.0436  0.1410  0.0215
12464W        W29311   1.647   6.888  10.139  0.1594  0.0035 -0.3173
12465W        W29312   4.515   6.862  13.902 -0.0537 -0.0637  0.4202
12466W        W29313   6.824  14.068   0.575 -0.2182 -0.0945  0.0174
12467W        W29314   0.527  16.958   2.109 -0.1795  0.1726 -0.0256
12468W        W29315   7.738   6.630   3.925 -0.2528 -0.1336 -0.0777
12469W        W29316   6.057  19.292   1.467 -0.0800 -0.1075 -0.0804
12470W        W29317   7.833   3.025  14.288  0.0262 -0.2524  0.1708
12471W        W29318   1.860  11.409   0.944  0.1983 -0.1326  0.2061
12472W        W29319  17.535  12.988  10.276 -0.5747 -0.0004  0.1761
12473W        W29320  17.193  12.181  13.829  0.0254 -0.4055 -0.4171
12474W        W29321   2.338   0.921   3.827  0.3731  0.0334 -0.2200
12475W        W29322  12.510  14.747  10.545  0.2331 -0.0279 -0.0334
12476W        W29323  17.235  19.838  14.296 -0.2083  0.1422  0.1004
12477W        W29324  15.972   5.737   0.305 -0.0302 -0.2633  0.1406
12478W        W29325  13.840   9.503   0.855 -0.1518  0.1873 -0.2967
12479W        W29326  10.978  12.981  13.865  0.0082  0.1387  0.0663
12480W        W29327  18.541  11.198   9.919 -0.0863  0.1602  0.1735
12481W        W29328  15.845   2.873  10.576  0.2502  0.2000  0.3050
12482W        W29329  15.258   3.187   1.811  0.1232 -0.1453  0.3557
12483W        W29330   8.963  10.788   4.666 -0.2647 -0.0151 -0.0482
12484W        W29331   9.610  14.065   1.046  0.5618 -0.1479 -0.6424
12485W        W29332   4.934  17.740  10.302  0.3620 -0.0565 -0.2520
12486W        W29333  12.460   3.533   3.745 -0.1591  0.3005  0.0438
12487W        W29334  19.438  14.172   2.942 -0.2071  0.0938  0.0910
12488W        W29335   2.357  17.663   1.333 -0.1377  0.0637  0.1925
12489W        W29336   1.706   4.746   3.705 -0.0246  0.0420  0.3918
12490W        W29337  10.951  19.374   4.652 -0.0100 -0.2623  0.0181
12491W        W29338  16.495   3.086  13.480  0.1914  0.0041 -0.1600
12492W        W29339  11.998   8.814  10.099 -0.2435 -0.0124 -0.1391
12493W        W29340  12.062   7.640   9.716 -0.2128  0.3939  0.0643
12494W        W29341  16.552  18.272   4.202  0.0900 -0.3544  0.0319
12495W        W29342   3.735  12.668   3.211 -0.3719  0.1735  0.1326
12496W        W29343  18.114  19.209   1.732  0.0917 -0.2106 -0.5155
12497W        W29344  10.059   3.030   9.971 -0.1720 -0.1351  0.1275
12498W        W29345  15.762  19.035  12.943 -0.2216 -0.1424  0.0880
12499W        W29346  15.157  10.276  14.090  0.0282  0.0278 -0.1403
12500W        W29347  10.528   8.219   3.511 -0.2818 -0.0868 -0.1899
12501W        W29348   6.399  14.372  11.974 -0.0713  0.1182  0.1588
12502W        W29349   9.329   3.418   1.800 -0.1564 -0.2257  0.1461
12503W        W29350  11.556   7.407   1.220  0.2334  0.0868 -0.1129
12504W        W29351  15.205  13.144  11.021  0.0033 -0.0849  0.1060
12505W        W29352   8.329   5.307   1.042  0.1594 -0.4736 -0.0562
12506W        W29353  11.863  13.061   1.124  0.0578 -0.3971 -0.1814
12507W        W29354  13.617   5.060   2.616 -0.2304  0.1130  0.0376
12508W        W29355  17.693  19.696  13.206  0.1572 -0.1878  0.0129
12509W        W29356  15.344   5.031  12.103 -0.2534 -0.1056 -0.0888
12510W        W29357  11.169   2.957   3.820 -0.0902  0.1516  0.2917
12511W        W29358   2.997  13.840   3.916  0.2226  0.2271  0.1289
12512W        W29359  17.401  14.908   5.058  0.4138 -0.2672 -0.3160
12513W        W29360  12.208   3.258   0.965 -0.0603 -0.3056 -0.0703
12514W        W29361   1.136   7.870   3.194 -0.0636 -0.1816 -0.1463
12515W        W29362  11.777  13.567  11.122 -0.2301 -0.2786 -0.0694
12516W        W29363  19.449  15.506   2.565 -0.1128  0.0449 -0.0012
12517W        W29364   0.148  16.053  12.224  0.0328 -0.3868 -0.2169
12518W        W29365  12.311   0.020  12.947  0.0279  0.5404  0.0570
12519W        W29366  11.951   0.630   4.405  0.1028  0.1919 -0.0898
12520W        W29367   2.390   2.840  10.692  0.0218  0.0631  0.3933
12521W        W29368  13.325  16.409  11.951 -0.0235 -0.2329  0.0468
12522W        W29369  10.646   5.947   3.493  0.0681  0.0745  0.1356
12523W        W29370  18.688  19.271   1.813 -0.0386  0.1780  0.2136
12524W        W29371  14.114  15.188  13.190  0.0796  0.1984 -0.0816
12525W        W29372  15.759  10.711  13.928 -0.1728 -0.1313 -0.1001
12526W        W29373  15.644  16.724  12.508  0.1213 -0.0593  0.3159
12527W        W29374   4.956  17.630  14.002  0.0279 -0.5271  0.2283
12528W        W29375  15.505  17.716  10.044  0.0107 -0.0860  0.5831
12529W        W29376   2.973   6.036   0.956 -0.0248  0.0231  0.2794
12530W        W29377  12.056   9.897  13.999 -0.0468 -0.1989  0.0022
12531W        W29378   0.249   1.695  11.015  0.1227 -0.1033  0.1144
12532W        W29379   1.533   5.053   4.128  0.1072 -0.1669  0.0829
12533W        W29380  10.009   9.928  12.520 -0.0816 -0.0349 -0.0759
12534W        W29381  16.438   0.077   1.155  0.1574  0.3995 -0.1682
12535W        W29382   7.242   6.655   1.127  0.1048  0.0224  0.2973
12536W        W29383  12.830   6.927   0.066  0.3083 -0.3242  0.0404
12537W        W29384   4.964  14.830  11.448  0.1934  0.1672 -0.0894
12538W        W29385   4.550   7.665   4.439 -0.1599 -0.0632  0.0181
12539W        W29386  15.053   1.435  13.517  0.1261 -0.0171  0.0677
12540W        W29387   5.862   9.141  12.300  0.0585 -0.1114  0.3092
12541W        W29388  17.412   6.192  12.660 -0.0485 -0.0278  0.2394
12542W        W29389  18.420  18.490   0.675 -0.0538 -0.2380  0.2798
12543W        W29390  10.356   3.700   2.824  0.1209 -0.0657  0.2742
12544W        W29391  16.746  17.681  13.524  0.2027 -0.2827  0.2090
12545W        W29392   5.927   1.321   0.945 -0.0427 -0.1680 -0.1755
12546W        W29393   8.586  18.016   3.936  0.3033  0.0344  0.3597
12547W        W29394   1.303   3.513   0.880  0.0632  0.0203 -0.0751
12548W        W29395   8.971  13.033   4.650 -0.0191  0.0813 -0.1312
12549W        W29396  18.441   7.047  14.207  0.0535  0.2967 -0.1329
12550W        W29397  12.607   3.667  13.034  0.1148  0.1595  0.0723
12551W        W29398  17.914  11.133  10.391  0.0154 -0.1945 -0.0224
12552W        W29399  14.846  16.323  11.072  0.2140  0.0248 -0.0483
12553W        W29400   2.493  13.714   2.797  0.1353 -0.1153  0.2089
12554W        W29401  12.804  14.623  14.347 -0.1448 -0.1252 -0.1486
12555W        W29402   4.881  16.668  11.364 -0.3235 -0.1002 -0.0793
12556W        W29403   6.898   2.363  13.885  0.2813 -0.1107 -0.0504
12557W        W29404   4.584  18.207   1.496  0.1364  0.0566  0.0881
12558W        W29405   3.321   4.639  12.031 -0.0207  0.0351  0.0258
12559W        W29406   0.554  16.426   2.287  0.0641 -0.0791  0.0730
12560W        W29407   5.011   2.224  11.719 -0.0397 -0.0290 -0.1565
12561W        W29408  11.305  16.880  13.914 -0.1675 -0.0143 -0.0659
12562W        W29409   7.215  15.415  10.451  0.0012 -0.1892 -0.0886
12563W        W29410   4.833  18.649  12.338  0.1125 -0.1051 -0.1504
12564W        W29411  10.393   4.725   0.399  0.3178  0.0390 -0.3740
12565W        W29412   1.257  11.043   1.551  0.3131 -0.3020  0.0519
12566W        W29413   5.040   1.558  13.657  0.3462  0.1870  0.1615
12567W        W29414   7.933   3.616  12.189 -0.0946  0.1126  0.0262
12568W        W29415  10.948  19.844  13.309  0.0245 -0.2539  0.3368
12569W        W29416   1.583  13.413  11.144 -0.2505  0.3833  0.0941
12570W        W29417   1.091  18.550  13.233  0.3925  0.0998  0.1207
12571W        W29418  15.835   1.929  10.178  0.0285  0.0017 -0.0774
12572W        W29419  14.759   7.750   0.631  0.0723 -0.0406  0.0013
12573W        W29420  17.360   8.782  12.802  0.4501 -0.1962 -0.3908
12574W        W29421   8.700  16.676   9.172 -0.2105  0.2084 -0.0976
12575W        W29422  19.275  17.142   2.426  0.2083  0.3363 -0.0987
12576W        W29423   7.594  18.925   2.502  0.2758 -0.0018 -0.1677
12577W        W29424  18.279   8.172   0.035  0.3171 -0.1214 -0.1318
12578W        W29425   5.291  11.969   4.576  0.0968 -0.2126  0.0294
12579W        W29426  11.320   8.825  14.234  0.1531 -0.3424  0.0942
12580W        W29427   8.283  14.774   0.986 -0.2274  0.0281  0.1219
12581W        W29428  13.698   1.322  13.714  0.0420 -0.3553 -0.1348
12582W        W29429  15.705   5.335   0.093  0.2372 -0.2114  0.1169
12583W        W29430   2.945  16.791   1.126 -0.0015 -0.0645  0.3131
12584W        W29431   3.620   7.102  11.681 -0.1810 -0.0519  0.2822
12585W        W29432  19.787   8.776   0.630 -0.0799  0.0477 -0.0727
12586W        W29433  14.707   5.162   0.947 -0.0189  0.3987 -0.3254
12587W        W29434   8.873   0.784  12.081  0.0805 -0.2457 -0.0976
12588W        W29435   2.419   4.856   1.523  0.0505  0.4373  0.0518
12589W        W29436   4.214  11.099  11.715  0.0721 -0.0767 -0.1681
12590W        W29437  11.439   3.044  12.369 -0.1007  0.1887 -0.0813
12591W        W29438   9.902   9.910   0.942 -0.0341 -0.2332  0.1477
12592W        W29439   9.974   8.500  10.076  0.2313  0.2406  0.0274
12593W        W29440   9.783   6.889   3.158  0.3368 -0.1996  0.1131
12594W        W29441   5.660  13.580  13.684 -0.0336 -0.2104  0.3171
12595W        W29442  11.212   2.610   3.432 -0.0144  0.0039 -0.0901
12596W        W29443  13.632  11.414   1.219 -0.2420 -0.2425 -0.1433
12597W        W29444   4.572   4.313  10.246  0.0471 -0.0908  0.1697
12598W        W29445  18.281  11.358   1.714  0.2247  0.0455  0.0330
12599W        W29446  12.538   9.694   4.231 -0.0557 -0.1011  0.1556
12600W        W29447   4.564   4.538  13.621 -0.0302 -0.1939  0.1504
12601W        W29448   2.541  18.347   0.493  0.1136  0.1008  0.2047
12602W        W29449  19.157  19.812   0.709 -0.1178  0.2181  0.0314
12603W        W29450   9.526   9.827   3.522 -0.0687 -0.2754 -0.2724
12604W        W29451  11.664   3.159  13.516 -0.2573 -0.0046  0.0330
12605W        W29452  19.661  18.235   3.605 -0.0335  0.1731  0.1321
12606W        W29453   1.024   2.746  11.860  0.0782  0.1458 -0.2430
12607W        W29454  10.455  19.431  11.147 -0.1519 -0.1327  0.0921
12608W        W29455  13.863   4.100   2.200  0.3095 -0.0488 -0.2580
12609W        W29456   4.698   3.074   1.211 -0.1632 -0.4656 -0.1949
12610W        W29457  11.286   1.960  11.566  0.0325 -0.4684 -0.2779
12611W        W29458   6.010  11.284   1.171  0.0194 -0.1255 -0.3848
12612W        W29459   1.151   0.018   0.133 -0.0073  0.0016  0.0579
12613W        W29460  17.311  19.606  10.715 -0.1469 -0.1041  0.3331
12614W        W29461  10.973  16.935  10.098  0.2162 -0.0940  0.4091
12615W        W29462  12.422   7.646  10.108  0.0821 -0.0446 -0.0956
12616W        W29463  10.849   3.563  13.015 -0.0187 -0.1032 -0.0272
12617W        W29464   0.761   6.272  12.350 -0.0112  0.1153 -0.1793
12618W        W29465  14.705   3.417   0.052  0.1620 -0.0992  0.0415
12619W        W29466  19.145   1.777   4.368  0.0240 -0.2858 -0.1178
12620W        W29467  17.336   1.148  11.049 -0.2120  0.5207  0.0136
12621W        W29468  13.090  14.681  11.947 -0.2533  0.2405  0.0084
12622W        W29469   6.583  16.840  12.830 -0.1202  0.0345 -0.0113
12623W        W29470  12.714  19.527   2.699 -0.0736  0.2603  0.0864
12624W        W29471  16.855  19.084   1.716  0.1006 -0.0017 -0.1764
12625W        W29472   7.633   7.419  10.040  0.1661 -0.0189 -0.0555
12626W        W29473  15.997   5.936  10.210  0.3354 -0.0496 -0.0757
12627W        W29474   7.436  19.657   3.866  0.1490 -0.0840 -0.2595
12628W        W29475   3.943  14.194   4.118 -0.2711 -0.4359 -0.1205
12629W        W29476   3.966  14.305   2.401  0.1422  0.3560  0.2308
12630W        W29477   1.242   1.701   1.522 -0.0092 -0.0956 -0.0155
12631W        W29478  18.749   6.011   3.972  0.3237  0.2868 -0.0988
12632W        W29479  19.868   3.057   2.143 -0.2145  0.0126 -0.5391
12633W        W29480  11.151   2.248   2.038  0.0754 -0.3671  0.1457
12634W        W29481  14.449   3.684  12.932  0.0674  0.2381 -0.0292
12635W        W29482   9.705  15.586   5.251 -0.0611 -0.1935  0.0404
12636W        W29483   7.900   9.892  10.685  0.0337 -0.1399  0.1480
12637W        W29484   5.281  11.606   5.084 -0.1747 -0.0553  0.3447
12638W        W29485  12.992   7.666   1.733 -0.1131  0.2290 -0.1490
12639W        W29486   0.123  13.456   4.807  0.3332 -0.1193 -0.2124
12640W        W29487   8.025  17.310  11.023  0.0336  0.2471 -0.3923
12641W        W29488  19.146   9.740   5.140  0.1320 -0.3695 -0.3424
12642W        W29489  10.564   3.797   8.897  0.0607 -0.0851 -0.1345
12643W        W29490  11.060  14.287  10.060 -0.0838  0.3601 -0.1614
12644W        W29491  10.692   8.363   2.895 -0.1081 -0.2118  0.3227
12645W        W29492   9.808  18.334  12.646  0.2412 -0.3229  0.0063
12646W        W29493  11.124   6.352  11.574  0.1281 -0.2217  0.0164
12647W        W29494  19.735   1.166   1.801 -0.0526 -0.1377  0.0020
12648W        W29495  17.136   9.445  13.651  0.1414 -0.0286  0.1398
12649W        W29496   8.347  18.270  10.296  0.1923  0.1742  0.1044
12650W        W29497   7.516   8.297   1.454 -0.0954  0.5265 -0.2773
12651W        W29498  16.305  16.658   5.046  0.0643  0.0744  0.0699
12652W        W29499   2.432  13.286   4.796  0.1705  0.2464 -0.2463
12653W        W29500  13.975   1.359  11.282  0.1641  0.1364 -0.2529
12654W        W29501   7.947  18.797  13.049  0.3232  0.1026  0.0130
12655W        W29502   7.874   4.305  10.920 -0.0442 -0.0859 -0.2953
12656W        W29503  14.775  16.577   2.692 -0.0012 -0.2814  0.0998
12657W        W29504  11.053  10.466   1.436  0.1253  0.0617 -0.0768
12658W        W29505  15.173  17.877   0.338  0.1597  0.2572 -0.1218
12659W        W29506  16.514   0.431   3.916  0.0549  0.0237 -0.0944
12660W        W29507  13.639  13.594   1.540 -0.1830  0.1081  0.2922
12661W        W29508  18.981  19.778  11.182  0.1823 -0.1289 -0.2426
12662W        W29509   5.948  14.783  14.113 -0.0411 -0.2321 -0.0949
12663W        W29510   3.142  19.615   1.171  0.0145  0.0359  0.0931
12664W        W29511  10.864   2.967   3.331 -0.0527  0.1927 -0.1248
12665W        W29512   1.003  12.977  13.849 -0.2334 -0.5369 -0.1127
12666W        W29513  16.837  13.774   2.755  0.1824  0.2395  0.0560
12667W        W29514  19.360  13.058   2.826 -0.1674 -0.0281  0.0798
12668W        W29515  12.742   5.937   3.598 -0.0680  0.2637 -0.1361
12669W        W29516   0.160  10.695   3.934  0.0978  0.1416  0.2819
12670W        W29517   4.374   9.843  12.132  0.1630  0.0336 -0.3293
12671W        W29518  10.470  12.299  11.039  0.3440 -0.2525  0.0409
12672W        W29519  18.037   4.065   3.335 -0.2999 -0.0270  0.0231
12673W        W29520   9.767   8.294  12.050  0.3967  0.1688  0.1274
12674W        W29521   0.876   8.853  10.593 -0.1501  0.2378 -0.1641
12675W        W29522  13.055  16.826   4.609 -0.4765  0.0470  0.0470
12676W        W29523   8.202   1.359   1.384 -0.0271  0.0697 -0.2576
12677W        W29524   4.894   6.121   3.433 -0.3314 -0.1639 -0.1277
12678W        W29525  14.924  16.712  13.660  0.0281  0.2744 -0.3316
12679W        W29526   9.221   6.894   4.427  0.0082 -0.0805  0.0739
12680W        W29527   7.745   3.937   9.316 -0.0812 -0.1924  0.1720
12681W        W29528   3.376   7.476  10.422  0.0114 -0.1109  0.5128
12682W        W29529  16.204   4.035  13.377  0.3430 -0.1255  0.4330
12683W        W29530   5.827   0.508   4.245 -0.0709 -0.2438  0.1426
12684W        W29531   6.457  13.594   1.341  0.2391 -0.0346  0.0177
12685W        W29532  16.472   2.063   3.605  0.0493 -0.4023  0.1556
12686W        W29533   2.007  11.251   9.313 -0.1412  0.3854 -0.0810
12687W        W29534  18.049  18.968   0.587 -0.0507 -0.0882 -0.1132
12688W        W29535   8.078   1.984  13.657  0.0294 -0.4937  0.1508
12689W        W29536  17.346   5.684  10.366  0.2898  0.0108  0.3423
12690W        W29537  15.559   2.554  11.433 -0.1753 -0.2786  0.1673
12691W        W29538   9.500  10.629   0.505  0.0231 -0.2465  0.2881
12692W        W29539   4.215  19.566  13.909  0.2638 -0.0663  0.0743
12693W        W29540   7.522   7.138  12.399 -0.1654  0.2470  0.2036
12694W        W29541  10.065  16.926  13.156  0.0265  0.1821 -0.2075
12695W        W29542  16.045   9.405  10.328  0.2285 -0.0597 -0.2354
12696W        W29543   1.355   1.110  12.448 -0.1143  0.1628 -0.1566
12697W        W29544   5.825   6.663   4.965  0.1301  0.0924 -0.3556
12698W        W29545   5.882  12.439  13.602  0.0703 -0.1454  0.3728
12699W        W29546  12.884  15.507   0.741  0.0187 -0.0174 -0.0137
12700W        W29547  10.537   5.706  10.829 -0.1086 -0.0451  0.1286
12701W        W29548  19.862  14.244  12.710  0.1162  0.2653 -0.0238
12702W        W29549   4.843   6.182  11.277 -0.0387 -0.3564 -0.1202
12703W        W29550   5.863  13.128  11.929  0.5175 -0.0411  0.4279
12704W        W29551  18.541   9.432  13.218 -0.0590  0.1186 -0.0038
12705W        W29552   7.201   2.312  13.039  0.1432 -0.0711  0.0795
12706W        W29553  11.518  15.765   0.881 -0.0411 -0.3271  0.0333
12707W        W29554  13.529   3.673   3.682  0.1330  0.1250  0.2429
12708W        W29555  13.077   3.971   4.299 -0.0698  0.3414 -0.2033
12709W        W29556   4.793  12.130   3.694 -0.0618 -0.1858 -0.2865
12710W        W29557   6.429  13.170   5.099  0.0793 -0.2156 -0.2504
12711W        W29558   2.365   8.821  10.759  0.1716 -0.1496 -0.1131
12712W        W29559   1.163   7.969  12.772  0.1004  0.1187 -0.2435
12713W        W29560   7.470  19.160  11.795  0.0006 -0.2011 -0.0926
12714W        W29561  16.832   1.455   0.399  0.1537 -0.1361  0.0104
12715W        W29562  13.348  17.943  14.337  0.4890 -0.1922 -0.0925
12716W        W29563   6.959   0.819   0.021 -0.2628 -0.0663  0.1733
12717W        W29564   5.445   3.600  12.143  0.0199 -0.0288 -0.0071
12718W        W29565  14.401  15.921   3.405  0.0401 -0.2055 -0.0057
12719W        W29566   4.677   9.198  10.995  0.0341 -0.1431 -0.0074
12720W        W29567  10.073   7.756   1.580 -0.1185  0.1758  0.1030
12721W        W29568  15.438   0.982   4.016  0.0016 -0.1343  0.2270
12722W        W29569  17.047  19.003   4.626 -0.2333  0.1052 -0.2588
12723W        W29570   9.800   0.948   1.030 -0.5536  0.1406 -0.0349
12724W        W29571   0.549  10.231  13.902 -0.0681 -0.2251  0.1510
12725W        W29572  10.173   4.857  14.302  0.0957  0.0569 -0.0302
12726W        W29573   0.731   5.734  11.348 -0.0078 -0.1439 -0.0274
12727W        W29574  16.776  18.481  10.627  0.0174 -0.3117  0.1442
12728W        W29575   4.559   5.714  12.093 -0.2273  0.0988  0.1805
12729W        W29576  14.000  19.762  10.687 -0.2309  0.1364 -0.1807
12730W        W29577   6.592   0.269  13.528 -0.0472 -0.1191 -0.1986
12731W        W29578  13.741  17.338   3.256  0.3632  0.1280 -0.0755
12732W        W29579   9.275   4.756   0.339  0.0311 -0.0876 -0.0559
12733W        W29580   8.641  11.204   4.087  0.0644  0.3099  0.0199
12734W        W29581  18.437  18.318  12.541 -0.1444  0.2818 -0.0348
12735W        W29582   5.474   8.302   1.049  0.0419  0.0627  0.1921
12736W        W29583   2.287  14.964  13.776 -0.0284 -0.0165 -0.3562
12737W        W29584   8.096   8.380  10.001  0.1282  0.1097 -0.1013
12738W        W29585  18.392  18.364  11.546 -0.0216  0.1187  0.2744
12739W        W29586   7.377  19.460   4.869 -0.1621 -0.3146  0.2812
12740W        W29587   3.784  13.844   0.330 -0.0442 -0.1574  0.2739
12741W        W29588   7.896   4.178   1.649 -0.2665  0.0050 -0.1238
12742W        W29589   5.622  19.626   3.818  0.2844 -0.2255  0.1410
12743W        W29590  11.328  12.948  11.135  0.0407 -0.0125 -0.0402
12744W        W29591   2.025   1.402   2.504 -0.2583  0.2558  0.2590
12745W        W29592  14.377   5.690   2.842  0.1682 -0.1533  0.2354
12746W        W29593  11.017  17.522   0.691  0.0037 -0.0713 -0.0148
12747W        W29594   6.030  18.733  13.996  0.1595  0.1220  0.3244
12748W        W29595   6.469  13.753  13.223 -0.0834 -0.0134  0.0943
12749W        W29596  12.282   3.579   2.892 -0.0731  0.0464 -0.0229
12750W        W29597  15.448  18.608  14.163 -0.0070 -0.0468  0.0725
12751W        W29598   9.504   1.629   2.009 -0.1394  0.0100 -0.0767
12752W        W29599  15.197   4.357   1.209 -0.0794 -0.1248 -0.1685
12753W        W29600  10.149   0.759   0.752 -0.1894  0.1926 -0.2371
12754W        W29601   2.719  15.875   1.007  0.2156  0.0814 -0.2987
12755W        W29602   2.005   5.128   4.047 -0.0175  0.1561  0.2517
12756W        W29603  15.420  11.965   2.505 -0.1310 -0.0335  0.3023
12757W        W29604  14.942  13.651  13.932 -0.1872 -0.1264 -0.0959
12758W        W29605   8.700  19.840   1.682 -0.0957 -0.0749  0.2655
12759W        W29606  14.933  12.584   2.068 -0.0920 -0.1673 -0.2818
12760W        W29607   7.958  14.331  11.701  0.2409 -0.1785 -0.3037
12761W        W29608  19.536   6.874  11.551 -0.0827 -0.2909  0.1447
12762W        W29609  14.068   6.465   1.049 -0.1171 -0.0196 -0.4246
12763W        W29610  16.974  11.097   3.586 -0.0173 -0.4506 -0.0209
12764W        W29611  13.493  12.247   3.954 -0.2655 -0.3153  0.0606
12765W        W29612   0.940   6.876  13.582 -0.2896 -0.1130  0.1308
12766W        W29613   2.737   6.880   3.907  0.2378  0.1324  0.0572
12767W        W29614   0.111  14.492  13.768  0.0078 -0.1891  0.0916
12768W        W29615  18.765   8.992   1.108 -0.0320 -0.1340  0.1195
12769W        W29616  18.575   5.906  14.084 -0.4081 -0.1097  0.0212
12770W        W29617   9.640  12.753  13.892 -0.1949 -0.3789  0.0908
12771W        W29618  17.162   8.504   2.757  0.0477  0.0871  0.2122
12772W        W29619  13.548  14.212   3.166  0.2727  0.2258 -0.1906
12773W        W29620  17.106   0.029   9.350 -0.0376  0.1289  0.1879
12774W        W29621  15.693   7.323   4.099 -0.1787  0.0375  0.4258
12775W        W29622  14.783   1.367  12.872 -0.0543 -0.1608 -0.1113
12776W        W29623  13.626  18.292  14.193  0.5309 -0.0977  0.2727
12777W        W29624   4.926  10.577  11.843 -0.1826 -0.1585 -0.0041
12778W        W29625  14.289   9.311  13.394 -0.2102  0.0885  0.1094
12779W        W29626   7.196   7.575   2.098  0.2917 -0.0161  0.2302
12780W        W29627   7.908  13.423  12.420  0.0226 -0.0601  0.0679
12781W        W29628  10.078  16.671   4.312 -0.1523 -0.0977  0.1672
12782W        W29629   2.927   7.862  10.507  0.1151  0.1136 -0.0399
12783W        W29630   4.966  16.008  10.825  0.2286 -0.0163  0.1923
12784W        W29631  12.288  15.259   1.329 -0.2313  0.1220 -0.3253
12785W        W29632  15.382  17.638   3.691  0.5008  0.3901  0.1989
12786W        W29633   5.106   9.004  14.360 -0.1579  0.0163  0.2365
12787W        W29634   0.992  12.058  14.333 -0.1669 -0.0773 -0.0736
12788W        W29635  15.396   0.172  13.974  0.3564 -0.1910 -0.1177
12789W        W29636   1.047  12.603   1.063 -0.1968  0.1111 -0.2259
12790W        W29637  18.670  18.607   4.687  0.0272 -0.1477 -0.1515
12791W        W29638  12.632  14.763   2.450 -0.1981 -0.1212 -0.1334
12792W        W29639  14.890  11.506  13.282 -0.0772 -0.0629 -0.3308
12793W        W29640   4.187  13.963   1.612 -0.3830 -0.2468 -0.0025
12794W        W29641  14.970   0.467   4.210  0.0175 -0.1143 -0.0257
12795W        W29642  16.760   3.003   3.236 -0.0633 -0.2167 -0.2006
12796W        W29643  10.551  13.673  13.497  0.3018  0.1386 -0.0748
12797W        W29644  11.754   5.553  12.787 -0.4892 -0.0921  0.0446
12798W        W29645  11.200  15.451  13.588 -0.1268 -0.3459  0.2656
12799W        W29646   5.157   7.841   0.241  0.1426 -0.0388 -0.0011
12800W        W29647   3.549   4.615   4.088  0.1327 -0.0767  0.0570
12801W        W29648   4.549   5.792   0.081  0.2172  0.1018  0.0461
12802W        W29649   5.491  16.078   2.631 -0.2022 -0.2410  0.2572
12803W        W29650   4.763  14.603   0.491 -0.2695 -0.4774  0.5528
12804W        W29651   7.552  13.969   3.750 -0.0630  0.0125  0.0657
12805W        W29652   8.537  18.762  10.119  0.1547 -0.0870 -0.2485
12806W        W29653   9.584   2.948  12.573 -0.0831 -0.2805 -0.1043
12807W        W29654   8.642  17.901  10.661  0.0215  0.0179 -0.0315
12808W        W29655   3.004  13.966  10.864 -0.1861 -0.1857 -0.2510
12809W        W29656   5.022  16.382   2.713  0.0683  0.2130  0.1092
12810W        W29657  12.620  13.017  11.704  0.3773  0.0267  0.2920
12811W        W29658   2.672  18.896  13.230  0.0059  0.1381  0.0392
12812W        W29659   2.672  13.221  14.122 -0.0314  0.2140 -0.0518
12813W        W29660   2.736  13.051  11.072  0.4703  0.2744  0.2953
12814W        W29661   7.565   2.348  11.134 -0.1287  0.2268 -0.1265
12815W        W29662   4.888  12.472   1.539  0.3364 -0.0499 -0.1477
12816W        W29663   0.722  13.012   2.319  0.1153 -0.0627 -0.0749
12817W        W29664   3.484  10.280   4.832  0.2305  0.0728 -0.0805
12818W        W29665   3.220  19.084   1.322 -0.0440 -0.1572 -0.2773
12819W        W29666   2.411  18.196   4.679 -0.1333 -0.0144 -0.0885
12820W        W29667  12.761   2.757  12.818 -0.4853 -0.2637 -0.0133
12821W        W29668  14.645  13.681  10.227  0.0866  0.0033 -0.2779
12822W        W29669   2.084   1.567  13.230  0.3682 -0.0541 -0.1365
12823W        W29670   9.904  14.164   2.805  0.5261 -0.0851  0.1387
12824W        W29671   2.610  14.252   2.358  0.1439 -0.1340  0.2301
12825W        W29672   9.805  12.407   0.860 -0.0338 -0.0801  0.0393
12826W        W29673  19.703  15.538  12.516 -0.3465  0.0743 -0.0797
12827W        W29674  13.686   8.416  12.439 -0.2136  0.1332  0.2671
12828W        W29675  13.810  16.189  13.916  0.0379 -0.2669  0.2486
12829W        W29676  16.517  10.244   1.104 -0.2702  0.2998 -0.1466
12830W        W29677   0.576   6.655   3.744 -0.1500 -0.0492  0.2998
12831W        W29678  17.435   9.203   2.090  0.3808 -0.0663  0.0461
12832W        W29679  10.298  11.616  10.431 -0.4193  0.1673 -0.1631
12833W        W29680  16.046  15.963   1.937 -0.0899  0.0017 -0.3622
12834W        W29681  17.156   7.938  14.355 -0.0756 -0.1211 -0.0868
12835W        W29682  11.396  10.599   2.218 -0.0566 -0.1291 -0.0637
12836W        W29683   9.695   5.126  12.517 -0.0352 -0.2884  0.0034
12837W        W29684  14.277  11.754   4.462  0.1891 -0.2743 -0.2019
12838W        W29685  18.927   8.467   4.929  0.1717 -0.0649  0.1347
12839W        W29686  11.269  16.506  13.382  0.2365  0.3189 -0.1392
12840W        W29687   1.517   8.161   3.734  0.3070  0.2419  0.2690
12841W        W29688   2.404  19.288   0.912 -0.1163 -0.0713 -0.1355
12842W        W29689  14.609   4.315   4.104  0.0017 -0.1529 -0.1017
12843W        W29690   6.977   8.813   3.525 -0.0384 -0.3030  0.1753
12844W        W29691   9.654  19.704   1.750 -0.1699  0.3517 -0.4784
12845W        W29692   4.372   5.601   5.161  0.5333 -0.1028 -0.1309
12846W        W29693   7.144  13.542   3.435 -0.1696  0.0217  0.1272
12847W        W29694   4.295  18.062  10.784  0.0900 -0.0338  0.0137
12848W        W29695   8.267  19.757   5.312  0.0589  0.2163  0.0766
12849W        W29696  13.823  16.607   1.512 -0.4711  0.3319  0.1289
12850W        W29697   5.662   0.273  13.778 -0.1101  0.0411  0.0244
12851W        W29698   4.859   9.482  13.122 -0.1162 -0.2108 -0.0187
12852W        W29699  13.558  16.141  10.694  0.0380  0.1692 -0.0656
12853W        W29700  16.007  11.154  12.620 -0.0510 -0.1555  0.2304
12854W        W29701  15.457  19.422  12.805  0.1023 -0.2567  0.2855
12855W        W29702  16.147   2.101   4.023  0.0150 -0.2470 -0.1935
12856W        W29703  14.217   3.967  12.596  0.4041 -0.1400 -0.1771
12857W        W29704  18.588  12.619   3.275  0.0361  0.0251 -0.0383
12858W        W29705   0.140  16.686   9.901 -0.1936 -0.0354 -0.0176
12859W        W29706   5.165   3.610   5.136 -0.1879  0.0568  0.0294
12860W        W29707  18.885  10.029  11.405 -0.0351 -0.3636 -0.2758
12861W        W29708   7.816  11.477   2.945 -0.1837 -0.3640  0.4468
12862W        W29709   5.263  14.774   9.993  0.0701 -0.3787  0.0112
12863W        W29710   5.693  10.104  13.385 -0.1049 -0.4275  0.0150
12864W        W29711  17.814   4.152  13.252  0.0671 -0.2718 -0.0093
12865W        W29712   1.879  15.589  12.346  0.3201 -0.2984  0.1480
12866W        W29713   4.907  19.874  12.550  0.2137 -0.0174  0.1218
12867W        W29714  16.281  14.456   0.717 -0.0878  0.0555 -0.1431
12868W        W29715  15.288  11.650   4.914 -0.0174  0.1110 -0.2716
12869W        W29716   7.561   3.443  13.441  0.0274 -0.3713 -0.0038
12870W        W29717  15.140   0.525   3.673 -0.4583  0.4109  0.0159
12871W        W29718  12.543  18.025  12.779 -0.7262 -0.2718 -0.2096
12872W        W29719   1.481   8.332  11.963  0.1097  0.0790  0.2518
12873W        W29720  18.069   3.135  10.201 -0.0344 -0.0617  0.1600
12874W        W29721   4.743  11.789  12.107  0.0059 -0.1349  0.0711
12875W        W29722   3.893   3.459  13.999 -0.0951  0.0106  0.2057
12876W        W29723   5.422   1.834   1.383  0.0098  0.1808  0.2085
12877W        W29724  19.052  18.400  10.966  0.0780  0.2158  0.0654
12878W        W29725  18.161   3.368  13.200  0.2326  0.0622  0.0719
12879W        W29726  16.333   1.361   9.152 -0.1492 -0.2746  0.1204
12880W        W29727   2.944  15.932   4.723  0.3001 -0.0885  0.1244
12881W        W29728  11.722  17.703   0.185  0.1200  0.2248 -0.0247
12882W        W29729   1.435   9.499   1.579  0.0070  0.0410 -0.1341
12883W        W29730   9.301  16.620   0.972  0.0815 -0.5273 -0.0348
12884W        W29731   3.272  17.902   4.043  0.2648  0.0373 -0.1687
12885W        W29732   1.905  12.398   4.046 -0.1472 -0.0032  0.2278
12886W        W29733  19.735  13.656   1.603  0.1545  0.1369 -0.2633
12887W        W29734  13.969   8.811  11.550 -0.2245  0.0356  0.0947
12888W        W29735  10.969   5.250  10.876 -0.0540 -0.0657  0.0103
12889W        W29736  17.582   4.124   4.606 -0.2243  0.0793 -0.1192
12890W        W29737  11.051   7.660   4.146  0.0101  0.1005  0.0301
12891W        W29738   9.027   2.795   2.768 -0.2042 -0.0317 -0.0868
12892W        W29739  10.124  16.357   3.950 -0.2800 -0.0928  0.2553
12893W        W29740  15.189  11.022  11.458  0.3626  0.2618 -0.0962
12894W        W29741  19.596  10.134  11.631  0.0707  0.0626  0.1355
12895W        W29742   6.294  12.532   2.178  0.3397 -0.1833 -0.1581
12896W        W29743  13.385  11.081   5.156 -0.0978  0.3192 -0.0378
12897W        W29744  11.506   8.966  13.330  0.0282 -0.0187 -0.0702
12898W        W29745  14.452  16.648   3.516 -0.1325  0.0293 -0.0563
12899W        W29746  10.779  13.520   4.682  0.2242 -0.0943 -0.1665
12900W        W29747  12.214  12.742  13.399  0.2603 -0.1067  0.3546
12901W        W29748   6.629  13.279  12.570 -0.0407 -0.0836 -0.2596
12902W        W29749  17.559  10.185   4.495  0.0086 -0.1046  0.1255
12903W        W29750  14.756   5.858   1.102 -0.2537 -0.0269 -0.1253
12904W        W29751  16.686   2.617  10.337 -0.0600  0.0159  0.0017
12905W        W29752   1.833  12.242   0.695  0.0402  0.1297 -0.1877
12906W        W29753  13.266  13.930  13.188 -0.0251 -0.1678 -0.1453
12907W        W29754   9.974  19.143   0.642 -0.3675 -0.0042 -0.2334
12908W        W29755   8.099  18.856   0.147 -0.1116  0.0741 -0.0168
12909W        W29756   6.277   6.547   1.831  0.0814  0.0137  0.1926
12910W        W29757   3.379  18.455   0.666 -0.1642 -0.3826  0.1618
12911W        W29758  15.766   3.240  13.707  0.0621  0.1253 -0.2270
12912W        W29759   7.537  16.393  10.357 -0.0377 -0.4347 -0.0492
12913W        W29760   7.587   5.533   1.852  0.0563  0.2447  0.0586
12914W        W29761   8.958  10.651  13.782  0.1430 -0.0395  0.1736
12915W        W29762  17.674   8.892   3.247 -0.0226 -0.0622  0.0469
12916W        W29763   9.527   5.251   0.779 -0.2742  0.1239  0.1423
12917W        W29764  14.416   6.444   2.007  0.2675  0.1429  0.1188
12918W        W29765   9.226  13.504   4.903  0.0266 -0.1690  0.1130
12919W        W29766   4.873   1.022  11.433  0.0913  0.2210 -0.4452
12920W        W29767  13.280  10.346   9.633  0.0779 -0.0051  0.5427
12921W        W29768   2.658  11.322   2.167  0.2479 -0.0898  0.1643
12922W        W29769  15.975  12.220  11.838 -0.2541 -0.0930  0.0067
12923W        W29770  15.715   0.952   2.860 -0.1767 -0.0407 -0.1710
12924W        W29771  19.470   8.451   4.643  0.2447  0.0505  0.0104
12925W        W29772  11.398   1.384  12.603  0.1769 -0.1369 -0.1514
12926W        W29773  17.944   6.758   0.126  0.0428  0.0426 -0.3723
12927W        W29774   7.097  13.480   1.933  0.3135 -0.0479  0.1318
12928W        W29775   8.606  10.378   0.663 -0.3875  0.2308 -0.1892
12929W        W29776  11.373  11.068   1.666  0.0639  0.3224  0.2042
12930W        W29777   3.604   0.904  13.755 -0.0105 -0.0538 -0.1228
12931W        W29778   8.165   3.854   2.111 -0.0490  0.1476 -0.0971
12932W        W29779  14.087   0.500  11.934 -0.2226 -0.1259 -0.1299
12933W        W29780   5.016   5.224  10.329  0.0368  0.1596  0.0395
12934W        W29781  18.062   3.758   2.357  0.0862 -0.1000  0.1461
12935W        W29782   2.534  18.816  13.789  0.1424 -0.0558 -0.1951
12936W        W29783   4.854  12.878  10.294 -0.0700 -0.1104 -0.1959
12937W        W29784  12.247  14.462   2.623  0.0677  0.0187  0.1725
12938W        W29785  14.110   6.976   0.776  0.1023  0.2906 -0.2667
12939W        W29786  13.222  12.729  12.761 -0.2560  0.0095 -0.0599
12940W        W29787   7.591   0.867  10.867  0.2246 -0.2539 -0.3512
12941W        W29788  15.801   2.878  11.134 -0.1144 -0.2506  0.0212
12942W        W29789   7.642  12.032   2.447  0.1077 -0.0293  0.1203
12943W        W29790   5.148   7.899  13.244 -0.5759 -0.0028 -0.1206
12944W        W29791  16.357   7.827   2.971 -0.0329  0.0957 -0.2175
12945W        W29792  14.351   8.103   9.902 -0.0053 -0.0006 -0.0346
12946W        W29793   8.813   3.038  14.221  0.2227 -0.2720 -0.1043
12947W        W29794  10.235   8.227   2.784  0.1418  0.1327  0.5939
12948W        W29795  19.562  13.433  13.123  0.0253 -0.3716  0.3051
12949W        W29796  16.645   7.282   3.750 -0.0730  0.2764 -0.1347
12950W        W29797   4.232   5.478   1.469 -0.1316 -0.0567  0.0138
12951W        W29798   5.580   3.493  10.452 -0.1927 -0.0073  0.1474
12952W        W29799   4.483   1.236   4.109 -0.1628  0.1842 -0.2354
12953W        W29800  15.409   1.097  13.154 -0.2204  0.4125  0.2206
12954W        W29801  13.219  15.942  11.295  0.1638  0.1939 -0.2325
12955W        W29802   8.872  11.525   4.354  0.0022 -0.0711 -0.1227
12956W        W29803   6.899   8.971   0.710 -0.1682  0.0524  0.3472
12957W        W29804   4.074  16.962  13.742  0.1056  0.1910  0.1305
12958W        W29805   2.121   2.142   2.195 -0.0599  0.1604 -0.1285
12959W        W29806  17.031   2.065   3.594  0.2966  0.2212 -0.0693
12960W        W29807   5.202   6.549  11.261  0.0788 -0.1352 -0.2633
12961W        W29808  10.563  19.294  13.992 -0.0224  0.2563  0.1262
12962W        W29809  14.661   1.837  13.635 -0.4021 -0.0383  0.0727
12963W        W29810   7.908   4.801  11.723  0.0716 -0.1088  0.3658
12964W        W29811   4.203   8.764   0.176  0.0070  0.1409 -0.0043
12965W        W29812  17.452  15.986  12.219 -0.2776 -0.1783 -0.2416
12966W        W29813   3.995   4.914   4.715  0.0016 -0.2156 -0.0749
12967W        W29814  11.637  15.527  13.802 -0.1198 -0.0011 -0.1913
12968W        W29815   8.090   3.686   3.910 -0.1115 -0.1937 -0.2544
12969W        W29816  15.340   1.131   0.648 -0.1320 -0.2793  0.2489
12970W        W29817   8.398   4.447   2.820  0.1351 -0.1088 -0.1534
12971W        W29818   8.964  12.029   4.192 -0.0349 -0.2471 -0.0471
12972W        W29819   6.541  17.296  12.625 -0.0062  0.1709  0.1652
12973W        W29820  14.514   0.793   4.358  0.2862  0.1379  0.0905
12974W        W29821   8.509   4.607   4.079  0.3339  0.0549  0.2563
12975W        W29822   2.395   2.589   4.431 -0.0132 -0.0236 -0.0910
12976W        W29823  14.762   1.355  13.931  0.1588 -0.0685 -0.2589
12977W        W29824  10.281  12.355   2.810  0.3721 -0.0126 -0.2712
12978W        W29825  13.132  12.400   1.724  0.0951 -0.3266 -0.0803
12979W        W29826   8.043   3.237   1.680 -0.3929  0.2077 -0.0110
12980W        W29827  17.539  11.226  12.143  0.1235 -0.0877 -0.0393
12981W        W29828   5.932   3.510   3.172  0.2290  0.2519  0.0440
12982W        W29829   2.690  18.473  11.447  0.1113 -0.1279 -0.2749
12983W        W29830  19.025  12.044   2.805  0.3123  0.1274 -0.0617
12984W        W29831   6.472   7.584   1.998  0.1027 -0.0499 -0.1103
12985W        W29832   4.583  10.152   2.863 -0.1035  0.0183 -0.2921
12986W        W29833   6.848   8.578   3.066 -0.1937 -0.0250 -0.0965
12987W        W29834  13.020   1.000   1.477  0.3787 -0.0223  0.0630
12988W        W29835   1.647   1.510  10.912 -0.3678 -0.5385  0.0068
12989W        W29836   4.185  10.157   1.479 -0.4548 -0.0481 -0.0996
12990W        W29837  10.066  18.280  13.051  0.1659 -0.2267 -0.2473
12991W        W29838   7.668   9.810  12.901 -0.2049  0.0683 -0.0751
12992W        W29839   8.056   4.296   0.464 -0.1790 -0.0577  0.2011
12993W        W29840   4.431  11.449   3.148  0.2370 -0.1792 -0.1613
12994W        W29841  16.270  11.589  10.801 -0.1700 -0.0363 -0.1504
12995W        W29842  12.946  16.902  12.170 -0.0597  0.1289 -0.0235
12996W        W29843   2.347   3.191   4.162 -0.0598  0.1970 -0.0689
12997W        W29844   1.083   6.789   1.025 -0.0511 -0.2889  0.1635
12998W        W29845  14.699   1.217   3.346 -0.1890 -0.0261  0.0367
12999W        W29846   9.200   4.749  11.152  0.0391  0.3182  0.0659
13000W        W29847  19.769  15.586   4.966  0.2065  0.2755  0.1527
13001W        W29848  17.902  18.441   0.653  0.0193  0.1659 -0.0280
13002W        W29849   5.443  11.357   3.594 -0.0138  0.0025  0.6106
13003W        W29850  12.325   8.678   9.737  0.0315  0.4817  0.0975
13004W        W29851  19.585   8.283  10.914 -0.0671 -0.0212 -0.3699
13005W        W29852  19.286   8.657   2.923 -0.2276 -0.0164 -0.1138
13006W        W29853   5.178   1.765   3.598 -0.2265  0.2605  0.2857
13007W        W29854  17.344   0.927   0.749  0.0070 -0.3713  0.2822
13008W        W29855  17.829  19.130  10.997  0.0768  0.0439  0.0249
13009W        W29856  15.024   6.018  13.168  0.1270  0.2195 -0.2749
13010W        W29857   5.460  11.084  12.096 -0.3013  0.1515 -0.0168
13011W        W29858   0.325   5.499  14.255 -0.0740 -0.2926 -0.2157
13012W        W29859  16.073  11.800   1.640 -0.2088  0.0321  0.0713
13013W        W29860   4.028  14.701  11.703  0.3232  0.1089  0.0441
13014W        W29861   9.475   0.713  13.402 -0.1418  0.0345  0.1728
13015W        W29862   3.446  14.209  13.636 -0.2247  0.1840 -0.0815
13016W        W29863  13.576   4.601  13.993 -0.0882  0.1636  0.3725
13017W        W29864   9.254  19.046  11.057  0.3088 -0.0935 -0.3926
13018W        W29865   0.289  10.798  10.829  0.1393  0.3439  0.2652
13019W        W29866   4.676  16.878  13.060  0.1878 -0.3754 -0.0353
13020W        W29867   8.423   6.103  11.835 -0.1543  0.2828  0.4372
13021W        W29868  19.464  15.420   1.380 -0.0699 -0.3351 -0.0158
13022W        W29869   4.729   6.231  13.547 -0.3865 -0.1096 -0.0550
13023W        W29870   2.048  11.952   3.638  0.1056  0.1499  0.2254
13024W        W29871  17.386  18.062   4.957  0.0485 -0.0794 -0.1344
13025W        W29872  16.846   5.676  10.103  0.1641  0.1598  0.0346
13026W        W29873   0.775  13.452  11.058  0.3077  0.2469  0.2985
13027W        W29874  11.112   5.510   2.732  0.3107  0.4111 -0.0554
13028W        W29875   4.283  15.117  12.974 -0.3297  0.3284  0.2119
13029W        W29876   2.304  11.235  12.224  0.1803  0.0298 -0.2153
13030W        W29877   5.537   0.470  12.867 -0.1038 -0.0759  0.1519
13031W        W29878  10.882   3.545   0.276  0.0115 -0.0209 -0.0833
13032W        W29879   1.708   7.366   2.026  0.0949  0.1087 -0.1232
13033W        W29880   5.897  14.351  13.452 -0.1199  0.2952 -0.1019
13034W        W29881  19.557   3.314   0.539 -0.1261 -0.1365  0.0102
13035W        W29882   2.432   6.559  13.863  0.1284 -0.0652 -0.0328
13036W        W29883  14.473  13.843  10.738  0.0418 -0.1535 -0.0206
13037W        W29884  18.064   9.422   4.264 -0.0524  0.5798  0.3042
13038W        W29885   2.304   8.382   1.284 -0.0583  0.0080  0.0733
13039W        W29886   5.914  18.152  12.504 -0.0400 -0.3549  0.2492
13040W        W29887   2.426  14.003   3.191  0.0877 -0.1882 -0.0975
13041W        W29888   9.350  12.846   3.794 -0.2309  0.1592 -0.0229
13042W        W29889  12.309  17.061  11.524  0.0824 -0.0307  0.0284
13043W        W29890   4.314   7.770  13.687 -0.0875 -0.3669  0.2075
13044W        W29891   8.697   5.231  12.427 -0.1588 -0.2080 -0.0276
13045W        W29892  15.102   5.987   0.110  0.0353 -0.1906  0.0343
13046W        W29893  11.994   6.981  13.542  0.0496  0.0648 -0.1879
13047W        W29894  19.194   2.714   4.996 -0.2075 -0.2149  0.0739
13048W        W29895   2.274  13.696   1.881 -0.0549  0.1955 -0.1305
13049W        W29896   4.509  11.323   2.055  0.2382 -0.0746 -0.2474
13050W        W29897   9.241  16.771  13.905  0.3065  0.2785 -0.3761
13051W        W29898   6.281   6.554  14.204 -0.0239 -0.1731  0.0013
13052W        W29899   2.597  12.091   4.300 -0.1854  0.1723  0.3445
13053W        W29900   7.685   3.655  11.646  0.0987 -0.0523 -0.1358
13054W        W29901   7.927   2.928   4.951 -0.1081 -0.2653  0.1827
13055W        W29902   9.656  17.190  10.185 -0.1388  0.2244  0.1477
13056W        W29903   6.865  15.228  11.963 -0.2612 -0.2469 -0.2630
13057W        W29904   4.176  10.138  14.135 -0.3010 -0.0198  0.1487
13058W        W29905  17.936   7.310   3.300 -0.1068 -0.0637  0.1081
13059W        W29906   0.422   7.004   3.375 -0.1983  0.4283  0.0363
13060W        W29907  16.243   3.785  12.274 -0.2318 -0.1040  0.0982
13061W        W29908   3.587  12.937   4.437  0.2939  0.3544 -0.0472
13062W        W29909   4.923   9.872  13.560  0.2938 -0.2188  0.1855
13063W        W29910   6.322   2.494  11.495 -0.0082 -0.0705 -0.0469
13064W        W29911  13.425   7.574   3.312  0.0517 -0.0456  0.0540
13065W        W29912  18.916   6.197  11.684  0.0927 -0.3096 -0.1153
13066W        W29913  14.367  17.467  13.518  0.2563  0.0125  0.1239
13067W        W29914  17.082   1.869  12.520 -0.5736 -0.3786  0.3832
13068W        W29915   1.659  13.721   2.396 -0.0820 -0.2758 -0.0230
13069W        W29916   5.135  11.876  12.521  0.0648  0.2507 -0.1865
13070W        W29917   4.804   5.920  13.156 -0.2388  0.1687 -0.2043
13071W        W29918  12.346   6.664   3.136  0.0789  0.2253 -0.0463
13072W        W29919   1.453  14.710   2.359 -0.1204  0.0919  0.1330
13073W        W29920   0.484  10.811   0.387 -0.0441 -0.2191  0.0298
13074W        W29921   4.758  13.844   3.436 -0.1968 -0.1903 -0.1562
13075W        W29922   4.114   7.174  10.703  0.3619  0.0998  0.0222
13076W        W29923   1.186   8.233   5.110 -0.0697  0.1759 -0.0934
13077W        W29924   6.801   9.324   4.676  0.1697  0.1373  0.1719
13078W        W29925   2.415   3.626   3.135 -0.0559  0.1726 -0.1158
13079W        W29926  14.553   2.980  11.146 -0.2185 -0.2088  0.0902
13080W        W29927   9.930  17.632   2.922  0.0270 -0.1071  0.3684
13081W        W29928   0.607   8.513   4.590 -0.0258 -0.0928 -0.2277
13082W        W29929  14.412   1.643   3.591  0.1573 -0.0318  0.1507
13083W        W29930   4.886   8.007  12.446  0.0556  0.0299 -0.0973
13084W        W29931   3.444  16.707  11.056 -0.0466 -0.1727  0.1298
13085W        W29932  13.487  18.993  13.566  0.2107  0.2029  0.0113
13086W        W29933  10.784  11.587  14.239 -0.1171 -0.2854  0.0928
13087W        W29934   9.136   5.609  10.921 -0.2285  0.0646 -0.3002
13088W        W29935   2.309   6.069   0.076  0.0059  0.2786 -0.0100
13089W        W29936  12.009  18.418   4.914 -0.1707  0.1366 -0.0713
13090W        W29937   4.659  12.207  10.825  0.1729  0.4956  0.0208
13091W        W29938   8.530   3.577   1.895 -0.1595 -0.3111 -0.0318
13092W        W29939   0.180   3.489  13.560 -0.1394 -0.0252 -0.1908
13093W        W29940   2.984  18.425   0.190 -0.0380  0.0005 -0.1350
13094W        W29941   3.213   6.407  10.378  0.0048  0.0296  0.0693
13095W        W29942   1.612   5.826   1.042 -0.1495  0.0709  0.1147
13096W        W29943  18.646   3.537   0.580  0.0633 -0.0256  0.1271
13097W        W29944  12.758  19.007  10.548  0.0624 -0.0991  0.3982
13098W        W29945  19.651  18.649   3.946  0.0391  0.0944  0.0017
13099W        W29946   0.148   4.019  10.962  0.2460  0.0251  0.0184
13100W        W29947   8.257  19.186   3.939 -0.0593  0.1750 -0.1212
13101W        W29948   2.326   2.731   0.324 -0.0217 -0.0792  0.2628
13102W        W29949   8.221  14.826   1.789 -0.2121 -0.1199  0.2010
13103W        W29950   0.690   6.676  12.984 -0.3505  0.3728  0.2233
13104W        W29951  16.106  11.964  13.056 -0.0234  0.0390  0.0624
13105W        W29952   2.162  17.429   4.376  0.2667 -0.0127  0.2280
13106W        W29953   6.013  12.031   3.986  0.5140 -0.0111  0.2830
13107W        W29954   5.168   5.714   3.609  0.0301 -0.0299  0.1935
13108W        W29955   5.805   8.594  10.014  0.1719 -0.2842  0.1254
13109W        W29956   0.209  12.086   5.274  0.3363 -0.0964 -0.4080
13110W        W29957  11.254   6.515  10.041  0.1090  0.1061 -0.1449
13111W        W29958   7.935  13.913  11.093  0.3303 -0.2902  0.1219
13112W        W29959   7.732   6.574   1.444 -0.0683 -0.1450 -0.2288
13113W        W29960   1.990   2.279  10.236 -0.2266  0.2650  0.0513
13114W        W29961   8.869  14.643   2.602  0.2539 -0.0938 -0.0768
13115W        W29962   1.957  19.849   9.550  0.4474 -0.1553  0.1107
13116W        W29963   9.395  15.590   0.053 -0.0110 -0.3437  0.0433
13117W        W29964  14.671   8.816   0.604 -0.2263  0.2523  0.3063
13118W        W29965   6.013  10.500  10.198 -0.2489  0.0213  0.0310
13119W        W29966   4.507   9.460  13.538 -0.3399  0.1833  0.0872
13120W        W29967  12.304  19.168   3.231 -0.3467 -0.1076 -0.1506
13121W        W29968   7.921  15.107   1.462 -0.1004  0.1613  0.2316
13122W        W29969   2.416   1.865   5.409 -0.1035 -0.0805 -0.4048
13123W        W29970   1.000  16.681  13.997  0.1269 -0.1840 -0.0996
13124W        W29971   5.751   3.240  12.413 -0.0843 -0.0827  0.1474
13125W        W29972   0.978  18.377   4.934 -0.0547 -0.1322 -0.0011
13126W        W29973   9.899   7.662   3.527  0.0423 -0.4315  0.2018
13127W        W29974   9.049  15.191   0.479  0.3596  0.3882  0.2060
13128W        W29975   7.681  15.548  13.882 -0.1192  0.0481  0.1036
13129W        W29976   0.414  18.874   3.463 -0.1221  0.3060 -0.0846
13130W        W29977  12.883   6.777   1.673  0.1537 -0.1963 -0.3083
13131W        W29978   2.126  14.703   3.708  0.1152 -0.5161  0.3164
13132W        W29979  15.555  19.704  11.482  0.0955 -0.1385  0.0935
13133W        W29980   6.839   4.488   1.032 -0.2711  0.0688  0.1110
13134W        W29981  17.036   9.006   1.351  0.0278 -0.3282 -0.1146
13135W        W29982  12.214   5.790   1.060  0.1366 -0.0126  0.0250
13136W        W29983   9.423   1.133   9.850 -0.2726 -0.0237  0.1910
13137W        W29984   9.537  13.057  14.297  0.4235  0.3437 -0.0392
13138W        W29985  17.556   6.674   9.773  0.2091 -0.2889 -0.2117
13139W        W29986  12.685  12.011   4.359  0.1139 -0.2194  0.0171
13140W        W29987   2.662  16.627  12.503 -0.1393 -0.4193 -0.1025
13141W        W29988   4.299  15.577  13.226  0.3826 -0.0417 -0.0236
13142W        W29989  18.584  16.342  12.669  0.1816 -0.2500 -0.1116
13143W        W29990  17.602   1.740   9.985 -0.1830  0.0121 -0.1277
13144W        W29991   3.677   2.991   2.575  0.1828 -0.2392 -0.1529
13145W        W29992   3.433   0.698  12.390  0.0497  0.1440  0.1601
13146W        W29993  12.488   4.608   1.273 -0.1562  0.0849 -0.0993
13147W        W29994  15.741   9.845   1.241  0.0210  0.2745  0.3326
13148W        W29995  11.839  17.392  12.486 -0.0721 -0.0445 -0.4537
13149W        W29996   8.342  17.744   5.617  0.0977 -0.0311  0.0161
13150W        W29997   8.177   4.194   4.811  0.2754  0.0331 -0.2423
13151W        W29998  18.479   3.732   3.521 -0.2542 -0.1008 -0.1962
13152W        W29999   8.159   3.474  10.779 -0.0169  0.4237  0.4315
13153W        W30000  13.574  14.694  12.165 -0.2996  0.2486  0.1883
13154W        W30001  10.169   1.261  13.020  0.1373  0.1755  0.0313
13155W        W30002  17.809   9.190  10.581  0.4559 -0.0538  0.0212
13156W        W30003   4.601  17.032   3.855  0.0137 -0.0731  0.0666
13157W        W30004  11.166   2.278  13.518  0.3548 -0.0416  0.1745
13158W        W30005   1.655   6.909  14.193 -0.2057  0.1742 -0.0228
13159W        W30006   4.146  12.000   3.871  0.2777 -0.2692 -0.1161
13160W        W30007  16.088   9.224  12.603 -0.1580  0.2235  0.0242
13161W        W30008  11.757   9.288   2.960  0.0545  0.1032  0.1624
13162W        W30009  12.219   6.631  13.780 -0.0799 -0.2096 -0.0585
13163W        W30010   1.289  17.408   2.121 -0.1882 -0.2668  0.3464
13164W        W30011  17.305  17.435  12.837 -0.1596  0.4119 -0.3002
13165W        W30012  14.261  14.957   3.288  0.0245  0.0670  0.0149
13166W        W30013   6.157   8.387   4.210  0.0678 -0.0814 -0.1994
13167W        W30014  15.584   1.418  12.746 -0.2458 -0.1323 -0.2198
13168W        W30015   3.326   2.588   2.886 -0.0706  0.4161 -0.0423
13169W        W30016  13.747   2.612   0.147  0.1070 -0.0622 -0.2049
13170W        W30017  19.588  16.001   0.104  0.5043 -0.3565  0.3062
13171W        W30018  18.051  12.364  11.535 -0.2164 -0.2425 -0.3153
13172W        W30019  12.060   8.099  11.363  0.2552  0.2281  0.3779
13173W        W30020   7.587  17.492   1.108 -0.1798  0.0958  0.1967
13174W        W30021   3.632   6.367   2.786  0.1305 -0.0045 -0.2664
13175W        W30022  19.575  10.916   1.390 -0.0246 -0.2538 -0.1521
13176W        W30023   1.202  19.392  13.101  0.4558 -0.0022 -0.0795
13177W        W30024   1.802   8.077   1.195 -0.1749 -0.0197 -0.1558
13178W        W30025   4.537   7.977   0.311 -0.0176  0.1010  0.2529
13179W        W30026  12.554  14.860  11.566  0.4618 -0.0860  0.0264
13180W        W30027  18.760  10.118   0.132  0.1801  0.2709 -0.1419
13181W        W30028  10.973   5.074  11.344  0.2963  0.2365 -0.0320
13182W        W30029   8.100   3.019  11.818 -0.2148 -0.0837  0.1600
13183W        W30030  14.328   2.931  12.573 -0.2014 -0.4438  0.2868
13184W        W30031   7.430  16.812   1.595  0.0128 -0.1773  0.1032
13185W        W30032  18.998   7.141   4.652 -0.1029 -0.0977  0.0730
13186W        W30033   7.654   3.660  12.649 -0.2170  0.0445  0.1280
13187W        W30034  14.799  16.420  12.299 -0.1319 -0.1984 -0.0181
13188W        W30035  17.558  19.046   1.018  0.1562  0.3568 -0.1929
13189W        W30036   6.038   4.427  13.308 -0.4336 -0.3293 -0.0990
13190W        W30037  11.198   2.683   0.687  0.0048  0.1893  0.2216
13191W        W30038   3.777   7.576   1.255  0.0058  0.0798  0.4297
13192W        W30039   2.887  10.479   0.606  0.0645 -0.1823  0.2061
13193W        W30040   0.945  12.162  12.726 -0.1385 -0.3129  0.2904
13194W        W30041  17.909  11.614  10.542 -0.0044  0.0552 -0.2315
13195W        W30042  14.891  10.270  10.911 -0.0837  0.0458  0.1438
13196W        W30043  13.107   0.340   0.806  0.0127  0.1554 -0.0447
13197W        W30044   8.196   0.130  11.871 -0.1709  0.1606 -0.2637
13198W        W30045  13.439   1.148   1.679 -0.1833 -0.0991  0.2306
13199W        W30046  14.412  10.906   9.654  0.0529 -0.0351 -0.0193
13200W        W30047   9.679   7.227  12.426 -0.1417 -0.0675  0.0957
13201W        W30048   3.811   7.808  11.343  0.0615  0.1336 -0.0363
13202W        W30049  15.589   7.448  11.612 -0.1634 -0.2343 -0.0821
13203W        W30050   3.410   8.423  14.105 -0.3555  0.3820  0.1193
13204W        W30051   3.040  18.260  10.538 -0.0086 -0.2461  0.1659
13205W        W30052   1.255   8.902   3.973 -0.0871 -0.0575 -0.0456
13206W        W30053   5.986  17.745   5.003 -0.0759  0.0453 -0.2085
13207W        W30054   7.277  18.884   4.415  0.1476  0.1927 -0.0686
13208W        W30055  12.249   3.380  11.587 -0.1393  0.0117  0.2740
13209W        W30056   1.474   0.696  12.916 -0.4101 -0.0448  0.1992
13210W        W30057  14.568  13.464  14.244  0.0849  0.0395  0.1058
13211W        W30058   8.750   5.976  14.026  0.0184 -0.2890 -0.1338
13212W        W30059   4.207   8.660   2.511 -0.3095  0.1702 -0.2111
13213W        W30060  12.438  10.270   0.094  0.1484  0.0834 -0.0762
13214W        W30061  14.284  11.074   3.657 -0.2663 -0.1884  0.0219
13215W        W30062  19.544   3.838  12.352 -0.1596  0.1390  0.0989
13216W        W30063   9.476  17.837  13.944  0.0100  0.3314 -0.0139
13217W        W30064  15.342  12.283   2.079  0.2395 -0.2802 -0.3787
13218W        W30065  13.018   6.816   9.997 -0.2999  0.4972  0.1819
13219W        W30066  10.368  10.667   0.361  0.2893  0.1047 -0.0026
13220W        W30067  19.834  13.870  13.092 -0.2361  0.2170 -0.0314
13221W        W30068   5.240   8.368   4.496  0.1277 -0.1919 -0.0930
13222W        W30069   1.288   4.491   5.182  0.0458 -0.2036 -0.2006
13223W        W30070   8.005   4.166   2.705 -0.1950  0.0125  0.0438
13224W        W30071   9.037  15.937  14.211  0.0559 -0.2121  0.2018
13225W        W30072   5.858   9.622  13.074  0.1136 -0.0623 -0.0160
13226W        W30073   5.639  16.174  10.211 -0.0664  0.0233 -0.0615
13227W        W30074  14.233   7.158   1.720  0.2941  0.7489  0.0617
13228W        W30075   7.547   8.236   0.992 -0.1951 -0.0617 -0.2224
13229W        W30076  18.215  10.031   2.833 -0.0532 -0.0262 -0.0153
13230W        W30077  18.331   4.820  11.884 -0.1286 -0.1386  0.2022
13231W        W30078   0.946  11.626   0.221 -0.3514 -0.1158  0.2115
13232W        W30079   6.086  16.470  11.752 -0.0600 -0.3416 -0.0439
13233W        W30080  10.064  13.402  13.674 -0.2935  0.2142 -0.2027
13234W        W30081  15.550   8.367  11.741  0.1245  0.1642  0.3300
13235W        W30082  19.431   0.749  12.695 -0.5193 -0.0737 -0.2753
13236W        W30083   2.543  19.208   2.159  0.1050  0.0473  0.4745
13237W        W30084   2.926  17.231  13.594 -0.1274 -0.0539  0.0929
13238W        W30085   3.987   5.605   0.008 -0.3064  0.3270 -0.0319
13239W        W30086  19.253   4.876  10.613  0.1565 -0.0271  0.1576
13240W        W30087  15.109   4.110  11.303 -0.0079 -0.2539  0.2666
13241W        W30088   6.122  17.204   4.082 -0.1466  0.0639  0.0155
13242W        W30089   2.165   8.975  12.117  0.4552  0.1963  0.1029
13243W        W30090   2.176   5.680   3.998 -0.0492 -0.1139  0.2591
13244W        W30091  10.559  11.431  11.749 -0.5359 -0.0190 -0.0772
13245W        W30092   6.451  10.902  13.253  0.0668  0.2255  0.1500
13246W        W30093   7.501  19.664   3.000 -0.1624  0.1309  0.1873
13247W        W30094  12.726   0.020   1.736  0.3102 -0.3075  0.0173
13248W        W30095  13.281   5.966  11.105  0.3678  0.3161  0.0974
13249W        W30096   5.435  14.541  13.627 -0.0413  0.0846 -0.0881
13250W        W30097  10.634   2.725  10.431 -0.0810 -0.1628 -0.1536
13251W        W30098   6.977   7.129  12.410  0.0626 -0.1628  0.1620
13252W        W30099   4.500   1.619   0.959 -0.1589  0.0491  0.0159
13253W        W30100  17.156  14.237   0.691  0.0618  0.4402 -0.1441
13254W        W30101  19.436  14.428   1.915  0.0097 -0.0964  0.1414
13255W        W30102   2.245  16.929   4.487 -0.0148 -0.2244  0.1931
13256W        W30103   7.069   0.822  11.752 -0.1042 -0.0077 -0.2645
13257W        W30104  12.950   4.804   2.509  0.1845 -0.2402  0.0392
13258W        W30105   5.115   8.321  11.896 -0.1043 -0.0849  0.1123
13259W        W30106  11.833   5.875   3.611  0.0080  0.1657 -0.4184
13260W        W30107   9.447  19.744   3.909  0.0329 -0.2269  0.1174
13261W        W30108   6.095   2.890   1.230  0.0729 -0.0276  0.0134
13262W        W30109  18.925  15.620  10.841 -0.2851  0.0935  0.0139
13263W        W30110   4.629   3.568   5.255  0.3712  0.2284 -0.4776
13264W        W30111   7.712   5.693  13.266 -0.0806  0.2193 -0.1217
13265W        W30112   5.795   8.749  10.698  0.2661  0.0729 -0.3007
13266W        W30113  19.443   9.558   0.203 -0.0416  0.0346  0.2865
13267W        W30114   6.967  18.587   9.894  0.1021 -0.0955 -0.1158
13268W        W30115   8.931  18.828  11.953  0.1094  0.0458  0.2037
13269W        W30116   0.760  14.777  11.176 -0.2388 -0.2549  0.1790
13270W        W30117  18.813  17.883   4.467  0.3180  0.0834  0.1233
13271W        W30118  11.339   4.536   2.193  0.1844  0.3871 -0.0625
13272W        W30119   6.024   9.189  11.732  0.1548 -0.1250  0.1225
13273W        W30120   3.267   6.114   1.887  0.1589 -0.0331 -0.2388
13274W        W30121  18.988   1.477  14.115 -0.2333  0.1280 -0.0155
13275W        W30122  14.754  11.596  11.559  0.4504 -0.2079  0.3559
13276W        W30123   0.835  13.462  13.903 -0.3934 -0.0238 -0.2145
13277W        W30124   9.261   9.928   3.071 -0.0855 -0.2269  0.2034
13278W        W30125  15.523  15.883  12.086  0.2470  0.1158  0.2856
13279W        W30126  15.585   3.701   9.419  0.1007 -0.2445  0.0369
13280W        W30127  16.416  17.617   0.340  0.4368  0.0165  0.0968
13281W        W30128   6.921  13.486   2.892  0.1171 -0.1691 -0.0619
13282W        W30129  10.019  15.891  11.466 -0.0441  0.0270 -0.1510
13283W        W30130  16.655   1.610  13.877 -0.3326  0.1360 -0.2149
13284W        W30131   5.080   2.075  13.559  0.0229  0.1295 -0.1351
13285W        W30132  19.666  12.096   1.730  0.2452 -0.0460 -0.3139
13286W        W30133  15.885  19.451   0.166  0.2581  0.2396  0.1438
13287W        W30134   0.240   2.025  12.790 -0.1352 -0.0253 -0.6663
13288W        W30135  19.728   6.698  14.056  0.1944 -0.2787  0.0289
13289W        W30136   7.191   1.637  11.283  0.2868  0.1559 -0.0868
13290W        W30137   7.382  15.191   1.655 -0.1061 -0.2507 -0.1380
13291W        W30138  17.492  13.064  12.076 -0.2977 -0.2747  0.1776
13292W        W30139  19.358  15.609   2.087  0.0897 -0.4004 -0.0178
13293W        W30140   2.779   1.487   5.153  0.0258 -0.0885  0.1344
13294W        W30141   8.979   9.704   1.268  0.2141 -0.2934  0.0398
13295W        W30142  14.014   8.447   4.263 -0.3308  0.1302 -0.1463
13296W        W30143  18.610   4.095   2.395  0.2534  0.0963 -0.0327
13297W        W30144  17.840  17.130  13.725 -0.1438  0.0867  0.1041
13298W        W30145  15.075   2.388   0.844  0.0845 -0.2443  0.1998
13299W        W30146  15.187   0.986  11.028  0.0307 -0.0914  0.0816
13300W        W30147   0.706   7.336  12.989 -0.5646  0.1292 -0.0809
13301W        W30148  13.611  11.417   8.697  0.0492 -0.1770 -0.1147
13302W        W30149   0.695   3.822   3.110 -0.0692 -0.0651  0.3881
13303W        W30150  12.531  14.464  11.178  0.0963 -0.0325  0.0777
13304W        W30151   5.693   4.691   8.559 -0.0374 -0.0024 -0.0595
13305W        W30152   1.681   3.375  11.984  0.1213 -0.0683  0.0986
13306W        W30153   4.807  11.715   5.214  0.2375 -0.0800 -0.1020
13307W        W30154   7.079  15.794  12.202  0.0088  0.0395  0.0803
13308W        W30155  15.803  14.506   4.438 -0.3519 -0.1561  0.0951
13309W        W30156   4.296   9.001  13.657 -0.2207  0.0683  0.1108
13310W        W30157  13.813  18.245   3.781 -0.0357  0.0035  0.3300
13311W        W30158  15.529   4.297   8.809  0.0818  0.2213  0.3145
13312W        W30159  13.297   7.725  13.136 -0.0170 -0.0187  0.4129
13313W        W30160  18.955  12.104   9.254 -0.0243  0.1649  0.1134
13314W        W30161   4.905   5.943   4.392 -0.1730  0.2639 -0.1600
13315W        W30162  12.030   4.929   4.392  0.1950 -0.0663 -0.0504
13316W        W30163   5.274  14.856   1.698  0.2293  0.1135 -0.4550
13317W        W30164   6.790  17.776   1.680  0.0601 -0.0040 -0.1518
13318W        W30165   1.644   7.717   1.717 -0.0472 -0.0756 -0.0340
13319W        W30166   7.311   5.846   9.569  0.2008  0.0174 -0.1432
13320W        W30167   4.336   4.606   1.187 -0.4099 -0.2154 -0.1450
13321W        W30168  18.884  16.824  11.249 -0.1222  0.2249  0.1028
13322W        W30169   5.480  12.735  13.547  0.1173 -0.1232 -0.1759
13323W        W30170   0.627  14.458   9.983  0.0067  0.1562 -0.3794
13324W        W30171  17.246  19.618   1.225  0.0688  0.0913 -0.5542
13325W        W30172   0.319   2.146   2.911  0.0391 -0.1436 -0.2935
13326W        W30173   2.994   3.995  13.948  0.1930  0.1969 -0.0239
13327W        W30174  14.974   3.720   2.513  0.1784  0.1221 -0.1020
13328W        W30175   7.621   8.826   0.116  0.3511  0.2417 -0.4029
13329W        W30176   3.414  13.576   2.694  0.1197  0.1488 -0.1804
13330W        W30177  18.268   3.362   4.702  0.0686  0.1809  0.4225
13331W        W30178   1.458   8.728  13.912  0.1590 -0.1746  0.3214
13332W        W30179   2.479  10.651   0.806 -0.0300 -0.2695 -0.0051
13333W        W30180   2.866  10.280   1.810 -0.1721  0.2578 -0.0972
13334W        W30181   9.847   3.420  12.497  0.1705  0.2386 -0.2565
13335W        W30182   7.186  14.845   1.975 -0.0749 -0.2428 -0.1941
13336W        W30183  16.680   0.487   1.411 -0.2406  0.0963  0.2650
13337W        W30184   4.086  18.177   1.419 -0.0135  0.2330 -0.1727
13338W        W30185  14.643  18.055   4.304 -0.3460  0.0978 -0.1343
13339W        W30186  17.046  16.163   8.958  0.0524 -0.0331  0.1606
13340W        W30187  16.454   2.288  11.226  0.0312 -0.0178 -0.1247
13341W        W30188  11.019   7.720   1.190  0.0820 -0.3320 -0.3911
13342W        W30189   2.298   1.872   1.845 -0.1708 -0.1966 -0.2149
13343W        W30190   4.965  14.456   4.582  0.0189  0.0838 -0.2357
13344W        W30191  11.812   6.265   4.367 -0.0074 -0.1336 -0.2752
13345W        W30192   0.486   8.000   4.844  0.0345 -0.3218 -0.0039
13346W        W30193  11.700  13.464  11.717  0.1628 -0.0577  0.1512
13347W        W30194   3.243  17.553   1.462 -0.1469  0.1164  0.1147
13348W        W30195  14.097   8.295   1.639  0.1077  0.0059  0.0538
13349W        W30196   7.494   8.824  13.074 -0.0411  0.2049 -0.0758
13350W        W30197   0.995   3.880  14.036 -0.0330  0.0906 -0.0851
13351W        W30198   0.757   1.559   3.611  0.3293 -0.0758 -0.3333
13352W        W30199  14.859   3.326   1.131  0.0925 -0.3482 -0.0124
13353W        W30200   6.953   3.284   9.871 -0.0317  0.3650  0.2267
13354W        W30201  15.947   6.227   3.060  0.1899 -0.2387 -0.1109
13355W        W30202  18.480  15.113  13.566  0.1422  0.2048 -0.2002
13356W        W30203  10.795  10.753  13.438  0.1029  0.2573  0.0627
13357W        W30204   2.593  10.735   5.588 -0.0555 -0.2609  0.0745
13358W        W30205  17.679   3.504   0.668  0.1065 -0.2288  0.3963
13359W        W30206   7.536   6.142   0.153  0.2421 -0.3705 -0.0614
13360W        W30207  13.997  13.551   8.869  0.1022  0.0189 -0.0361
13361W        W30208   4.810  13.897  11.034  0.2377 -0.3707 -0.1831
13362W        W30209   0.161  12.163  11.410  0.0561 -0.0808  0.0592
13363W        W30210  11.764   4.469   4.398 -0.0324 -0.1086 -0.0676
13364W        W30211   5.955  14.290   4.516  0.1118 -0.0880 -0.3040
13365W        W30212  12.406  13.997   0.327  0.0268 -0.3455  0.0251
13366W        W30213  13.121   7.806  13.654 -0.2415 -0.0608 -0.1903
13367W        W30214  10.020   0.640  13.490 -0.1031 -0.0655 -0.2149
13368W        W30215  10.779  10.535   0.122  0.0845  0.1269 -0.1985
13369W        W30216   9.452  10.538  13.553  0.1265 -0.0188 -0.0289
13370W        W30217   3.471  10.087  10.469 -0.4989 -0.1707  0.2627
13371W        W30218   7.278  15.992  10.973  0.2154 -0.0523 -0.1773
13372W        W30219  18.444   8.499  11.365  0.0029  0.1071 -0.2178
13373W        W30220  11.182   4.429   0.643  0.0357 -0.0030 -0.4449
13374W        W30221   9.678   3.288   3.071 -0.3227  0.1134 -0.2344
13375W        W30222   9.950  10.509   1.446  0.0221  0.0494  0.2631
13376W        W30223   0.738   0.299   0.415 -0.3651  0.1752 -0.0270
13377W        W30224   2.485   8.674   1.741 -0.1262 -0.1876 -0.2955
13378W        W30225  13.332   8.887   3.107 -0.1483 -0.1859 -0.1398
13379W        W30226  13.947   0.471   1.886  0.0786  0.1900 -0.2224
13380W        W30227  16.121   5.134   2.402 -0.0394  0.2173  0.1829
13381W        W30228   6.419  15.615   3.277  0.0229 -0.2326  0.0413
13382W        W30229   0.822   1.743   1.226  0.0644 -0.1712 -0.0885
13383W        W30230   3.936  11.355   0.187 -0.0245  0.1039  0.0346
13384W        W30231   6.173   9.634  13.508 -0.1108 -0.2082 -0.0969
13385W        W30232  19.122  11.389  10.909 -0.1735 -0.0047 -0.2292
13386W        W30233  12.321  10.294   2.852  0.1597  0.3894  0.2901
13387W        W30234   1.542  16.575  12.621  0.2059  0.0866 -0.0868
13388W        W30235   9.381   5.480  13.756 -0.0663 -0.2708 -0.2254
13389W        W30236   4.574   5.098   1.280 -0.2817  0.1980  0.0148
13390W        W30237   9.447  16.119   4.571  0.0571  0.1315  0.1365
13391W        W30238  12.231   4.961   0.444  0.0068 -0.0440 -0.1338
13392W        W30239  14.387  10.925   1.442  0.1030  0.1189 -0.0523
13393W        W30240  17.689  16.474   3.487 -0.1312 -0.1776  0.0567
13394W        W30241  13.207  15.920  10.409 -0.2267 -0.1343 -0.2340
13395W        W30242  17.089   5.513  11.181 -0.0903 -0.4605  0.0743
13396W        W30243   1.648  15.412   2.491 -0.0362  0.2395  0.0645
13397W        W30244  18.146  16.690   0.633  0.0001  0.3259 -0.2803
13398W        W30245  13.187   6.471  12.751 -0.0775  0.0015 -0.3747
13399W        W30246  12.186  13.626   3.680 -0.4424 -0.1964 -0.2220
13400W        W30247   5.532   5.265   4.394  0.3127  0.1316  0.0062
13401W        W30248   0.072   1.040   2.876  0.1280 -0.2616 -0.0366
13402W        W30249   0.811   8.220   4.201  0.1376  0.1041 -0.2336
13403W        W30250   8.225  16.123   1.869  0.1428 -0.1964  0.0442
13404W        W30251  14.452  13.300  12.113 -0.1195 -0.0483 -0.0899
13405W        W30252   5.137   9.420  11.810  0.0657  0.0326 -0.0024
13406W        W30253  11.458   6.377   4.730  0.2489 -0.1332 -0.2539
13407W        W30254   4.734  11.777  11.520 -0.0163  0.4025  0.3405
13408W        W30255  18.993  16.217   3.640 -0.1110  0.1498  0.0132
13409W        W30256  13.747  16.315  12.422 -0.2709  0.0413 -0.1384
13410W        W30257  17.364  12.625   3.985  0.1474  0.1031 -0.0772
13411W        W30258   5.142  12.183   5.063 -0.2711  0.2077 -0.1897
13412W        W30259   8.050  19.754   4.438 -0.0066  0.2114  0.0373
13413W        W30260  16.433  13.317   9.827 -0.0456  0.3041 -0.0267
13414W        W30261   6.623   3.992  11.381 -0.3428  0.2798  0.2354
13415W        W30262   8.462  10.600   3.861  0.2504 -0.0221 -0.0840
13416W        W30263   5.965  16.905   0.020  0.2843 -0.4070  0.0342
13417W        W30264  11.885  17.154   2.354  0.1094  0.0187 -0.1706
13418W        W30265  12.162   2.477   9.561  0.2000  0.2279 -0.0888
13419W        W30266   0.009  18.157  13.056  0.1342 -0.0536 -0.2115
13420W        W30267   7.269  11.513   4.818  0.2980  0.0923 -0.0713
13421W        W30268  13.162   9.266   4.428  0.1326  0.1234 -0.1135
13422W        W30269   9.651   0.357  12.600 -0.0438 -0.2588  0.0902
13423W        W30270   0.098   4.849  10.380 -0.2270  0.0011  0.0644
13424W        W30271  18.393   3.193   2.386  0.0055  0.1667  0.3169
13425W        W30272   0.969   8.637   5.370  0.0019  0.3499 -0.1515
13426W        W30273   6.114   6.761  13.781  0.2440 -0.1200  0.3330
13427W        W30274  14.885   9.481  10.498  0.1189  0.1703 -0.0313
13428W        W30275   2.002  10.920   0.899 -0.2200 -0.2605 -0.1970
13429W        W30276   7.922   9.957   4.014  0.4333  0.0960 -0.0579
13430W        W30277   5.890   8.965   4.844  0.1634  0.0332 -0.2067
13431W        W30278  11.957   2.577  11.193  0.0952  0.3438  0.0558
13432W        W30279   7.091   0.829  10.121 -0.1471 -0.3318 -0.1361
13433W        W30280   3.488  13.112  13.839 -0.1755 -0.5019 -0.1469
13434W        W30281   3.230   4.796  11.159  0.1495  0.4565 -0.0639
13435W        W30282   2.794   2.633  13.402 -0.3145 -0.0001 -0.0690
13436W        W30283  18.753   8.606   2.162 -0.2254  0.1195  0.0327
13437W        W30284  15.552  12.191  10.996 -0.0838  0.1711  0.0727
13438W        W30285   2.212  10.122  10.403 -0.0625 -0.0981 -0.0796
13439W        W30286   4.847   0.520  10.143 -0.3805 -0.0848 -0.1058
13440W        W30287  15.458  19.259   2.079 -0.1290 -0.0503 -0.1560
13441W        W30288  10.293   3.891  11.648 -0.2675  0.0252  0.2681
13442W        W30289  18.583   4.945   1.346 -0.2176  0.1416 -0.0185
13443W        W30290  15.933   8.383   2.988  0.0166 -0.1543  0.1865
13444W        W30291  14.884  10.340  12.660 -0.2080  0.0316 -0.1199
13445W        W30292   0.094  13.195   1.576  0.0561 -0.0788  0.0696
13446W        W30293   6.242  18.329  13.759  0.2388  0.1897  0.1530
13447W        W30294   5.025   6.086   0.104  0.1553 -0.2369  0.0551
13448W        W30295  17.319   9.743   2.202  0.1905  0.2203  0.1428
13449W        W30296   8.343  10.056  10.616 -0.1739  0.1803  0.1132
13450W        W30297  18.840   3.818  13.052  0.3425  0.1330  0.0279
13451W        W30298  13.246  16.351   5.471  0.1387  0.0618  0.0252
13452W        W30299  14.922  19.063  10.798 -0.1979 -0.0327  0.5711
13453W        W30300  15.515  16.910   3.312  0.0189  0.1943 -0.0491
13454W        W30301   3.452  17.663  13.252  0.1488  0.1217  0.6188
13455W        W30302   9.570  11.795  10.185 -0.1136 -0.1508  0.1979
13456W        W30303   6.511   7.704  14.354  0.0001  0.4715  0.1443
13457W        W30304   1.884  17.824   0.679  0.1708 -0.0929  0.2246
13458W        W30305   4.026   5.295   2.347 -0.0474  0.0869 -0.2055
13459W        W30306   8.059   4.051   8.959  0.0332 -0.0066  0.2608
13460W        W30307  16.510  12.212   0.440  0.3044 -0.0048  0.1922
13461W        W30308   1.022   5.485   3.276  0.0052 -0.1528 -0.1478
13462W        W30309  19.191  14.243  12.088 -0.3992 -0.2024  0.0229
13463W        W30310   9.493   7.631   3.881 -0.0410  0.0937  0.1565
13464W        W30311  16.533  10.755  11.655 -0.3005 -0.0371 -0.1409
13465W        W30312   9.311  16.720   5.128  0.2623  0.0366 -0.4547
13466W        W30313   0.600   0.355  11.748  0.0009  0.1036 -0.2352
13467W        W30314   0.275  18.264  12.630 -0.1712  0.1353  0.0341
13468W        W30315  19.634  15.796   1.694 -0.1665 -0.0857 -0.2006
13469W        W30316  11.928  12.141   4.798 -0.1296  0.1800  0.0552
13470W        W30317   9.553  15.399  12.815 -0.1196  0.4207 -0.2614
13471W        W30318   0.618  16.483  10.642  0.3213  0.0450 -0.1994
13472W        W30319   9.791  17.894   4.336  0.2445  0.2578  0.1294
13473W        W30320   4.418   9.319   3.927 -0.1727  0.0856 -0.0813
13474W        W30321  18.400  14.223  12.901 -0.0388 -0.1655 -0.0081
13475W        W30322   3.871   9.329  13.629  0.0454 -0.0027 -0.1053
13476W        W30323   9.218  13.613  11.814 -0.1567 -0.1788 -0.0513
13477W        W30324   5.723   8.321  10.929  0.0805  0.1218 -0.1316
13478W        W30325  18.006  14.492  13.831 -0.1780 -0.1430  0.0124
13479W        W30326  10.880   6.315   3.006 -0.0368  0.4472  0.1035
13480W        W30327   1.463  12.558   1.377  0.0624 -0.3899 -0.3611
13481W        W30328   4.056   9.767  10.672 -0.1207  0.1738  0.0775
13482W        W30329   9.219   6.583   2.688  0.2637 -0.0558  0.0326
13483W        W30330  10.721   3.222  11.970 -0.2627 -0.0076 -0.0954
13484W        W30331   7.241   7.114  14.348  0.0781  0.4168  0.0694
13485W        W30332   6.951   9.803   0.380 -0.1545 -0.1114  0.3918
13486W        W30333  10.719  13.050   2.555 -0.5271 -0.1736 -0.1113
13487W        W30334   6.740  13.158   3.217  0.2450  0.2084 -0.5387
13488W        W30335   6.877   4.495   9.995  0.0785 -0.0046  0.4977
13489W        W30336   6.863   8.731   1.441  0.1256 -0.0463 -0.2197
13490W        W30337   2.785  10.605  13.263  0.0080 -0.2419 -0.0827
13491W        W30338  12.784  11.762   1.350  0.1234  0.2124 -0.0930
13492W        W30339  16.598  11.598   2.450  0.2387 -0.0662 -0.4290
13493W        W30340  14.177   6.644   1.619 -0.0200  0.0823  0.1365
13494W        W30341  15.151   5.493   3.852  0.1683 -0.2721 -0.1156
13495W        W30342  14.855   7.684  13.647 -0.2377 -0.1418 -0.2300
13496W        W30343   0.055   2.333   1.628  0.1734 -0.3361 -0.0480
13497W        W30344  10.076   2.919  12.650 -0.3818 -0.3800  0.1604
13498W        W30345  15.373   7.668  13.890  0.1052  0.0748  0.0873
13499W        W30346  11.623   1.819  10.711 -0.1206  0.2982  0.1216
13500W        W30347  10.558   6.377   4.758 -0.0858 -0.5146  0.1408
13501W        W30348   0.875  10.822   2.279  0.3107  0.2423  0.1615
13502W        W30349  14.393   8.124   2.016  0.1187  0.0723 -0.0119
13503W        W30350  14.938   6.365   0.824  0.2424 -0.2388  0.0317
13504W        W30351  10.735  17.217   0.423 -0.3883 -0.1300 -0.0053
13505W        W30352   1.799  16.205   2.067 -0.1014 -0.2054  0.2924
13506W        W30353  14.120  10.568  10.824 -0.0826 -0.0163  0.2546
13507W        W30354   4.076   5.777  11.951 -0.1680  0.1021 -0.0639
13508W        W30355   1.098  12.722   2.455  0.1073  0.2377  0.4074
13509W        W30356   0.094   2.807  14.067 -0.0368  0.3150 -0.2117
13510W        W30357  15.415   6.855  14.124 -0.0769 -0.0352 -0.0838
13511W        W30358   8.733  17.252   4.397  0.1486 -0.1939  0.1250
13512W        W30359  10.663  14.065  12.287  0.2409  0.0528  0.0612
13513W        W30360  11.849  10.111   1.827 -0.1477  0.1613 -0.0206
13514W        W30361   8.105   7.785  10.058 -0.3148 -0.2887 -0.0564
13515W        W30362   1.684  15.634   0.910  0.0777 -0.1210  0.2626
13516W        W30363  17.237   8.189   1.197 -0.1023  0.0095  0.2812
13517W        W30364   1.546   6.266   4.789  0.3712 -0.0121  0.1479
13518W        W30365  17.884   6.739  12.347 -0.2571 -0.0379  0.0728
13519W        W30366   7.430   7.953   1.898  0.0474 -0.5129  0.1989
13520W        W30367   4.610   7.681   1.952 -0.1644 -0.0693 -0.1277
13521W        W30368  12.684   1.899  11.210 -0.2617  0.1089 -0.2004
13522W        W30369  19.188   7.195  11.674 -0.2111 -0.0975 -0.0513
13523W        W30370   1.066   8.337   3.305 -0.2856  0.0916  0.0338
13524W        W30371   1.303   1.329  10.439 -0.2328  0.1624  0.0901
13525W        W30372   5.338   5.352   2.408 -0.2205  0.2503 -0.0149
13526W        W30373  18.254  17.730  10.911  0.0115 -0.0743  0.0277
13527W        W30374  10.122  14.545   3.155 -0.1907 -0.2247 -0.0921
13528W        W30375   0.333   6.947   9.239 -0.0625 -0.1644 -0.0691
13529W        W30376   1.378  16.049   1.884 -0.0329 -0.0013 -0.1197
13530W        W30377  17.739   3.853  10.517  0.3192  0.2921  0.2775
13531W        W30378  14.161  18.126   3.459 -0.0156  0.1478 -0.2085
13532W        W30379   7.363   0.659   9.129  0.0241  0.0024 -0.0165
13533W        W30380  12.087  16.509   1.175 -0.1083  0.2109 -0.1361
13534W        W30381  18.803   6.280   4.393  0.2489  0.3054 -0.1013
13535W        W30382   9.999  14.765  10.152  0.0328 -0.2218 -0.2161
13536W        W30383  13.023   1.468   1.762  0.0912  0.3231 -0.0735
13537W        W30384   1.882  10.843  13.515  0.0811 -0.3066 -0.0370
13538W        W30385  12.288  14.435   3.913 -0.5461 -0.2882 -0.1167
13539W        W30386  15.015   0.826   9.953  0.1355 -0.6740  0.0860
13540W        W30387   0.268   6.757   2.907 -0.1661  0.2509  0.0841
13541W        W30388   2.076   5.824   3.482 -0.0630 -0.0654  0.0825
13542W        W30389   3.476   2.116   0.219  0.3271  0.0388  0.2317
13543W        W30390  17.850  17.780   3.577  0.0113 -0.5227  0.0298
13544W        W30391   5.338  12.402   1.287  0.0376  0.0127 -0.3062
13545W        W30392   0.465  12.075  13.076 -0.0728  0.2021  0.1668
13546W        W30393   0.111  12.470  10.959  0.2098 -0.3443 -0.2865
13547W        W30394   7.076   4.340  11.435 -0.3599 -0.2731  0.0147
13548W        W30395  17.119  12.058   0.509 -0.0792 -0.2505 -0.4427
13549W        W30396  16.890  17.090   2.810 -0.0757  0.0792 -0.1223
13550W        W30397   0.592  10.283   3.185  0.0461 -0.1710  0.1173
13551W        W30398   5.001  13.765   0.408  0.0548 -0.3153  0.4101
13552W        W30399  10.693  16.632   3.425  0.0026  0.0585  0.3688
13553W        W30400   3.767   4.037  10.646  0.0509 -0.3406 -0.2138
13554W        W30401  13.926   9.310  13.848  0.2007  0.1360  0.0426
13555W        W30402   7.591  15.010  12.348  0.1245 -0.1658 -0.3633
13556W        W30403   1.694  11.253  11.519 -0.0057 -0.3446 -0.1924
13557W        W30404   0.475  12.469   5.413 -0.3161 -0.1902 -0.3486
13558W        W30405  10.897  18.104   0.260 -0.0781 -0.0182 -0.1244
13559W        W30406  14.019  18.726   4.156 -0.0727  0.0712 -0.0681
13560W        W30407  10.640   6.985   3.737  0.0317  0.0755 -0.3488
13561W        W30408   2.552  11.627   0.988 -0.3283 -0.3788 -0.2929
13562W        W30409   0.484  17.884   2.642 -0.4500 -0.2207  0.4863
13563W        W30410  13.571  13.863  12.203  0.0679 -0.1699 -0.0127
13564W        W30411  13.212  14.230   2.070  0.1519 -0.1922  0.1091
13565W        W30412  12.084   3.362   3.464  0.0068 -0.1620 -0.1165
13566W        W30413   3.725   4.068  12.834 -0.0980 -0.0512  0.1586
13567W        W30414  19.147  13.400   2.394 -0.1353 -0.1811  0.0700
13568W        W30415   8.585  19.812   2.216  0.1174  0.1550 -0.3049
13569W        W30416  15.073  18.958   0.003 -0.1684  0.3866 -0.2172
13570W        W30417   6.673   5.866  12.930 -0.2763  0.0771 -0.4196
13571W        W30418   8.140  11.674   1.948  0.0293 -0.1637 -0.2626
13572W        W30419  14.207   6.144  13.695  0.5720 -0.2183 -0.2958
13573W        W30420  16.718   0.863  11.321  0.3142  0.1172  0.1232
13574W        W30421  12.271  15.119   2.663 -0.0603 -0.1919  0.0494
13575W        W30422  18.992  15.655   3.889  0.1086 -0.5456  0.0038
13576W        W30423   4.090  16.773   3.436  0.1519  0.0877  0.0013
13577W        W30424  16.310   2.316   4.541 -0.0956 -0.2134  0.1723
13578W        W30425   2.304  17.977   5.585  0.0614 -0.3958  0.2524
13579W        W30426   5.710  11.074   0.092  0.0149 -0.2969  0.1219
13580W        W30427  18.726   3.259   3.655 -0.4739 -0.2268  0.4498
13581W        W30428   6.753   8.262  11.482  0.0627  0.0994 -0.1597
13582W        W30429  13.121   8.028   3.550 -0.1530  0.0130  0.0525
13583W        W30430  15.380  12.827  14.150 -0.0968 -0.0583  0.1751
13584W        W30431  13.442  16.064  14.241  0.0589 -0.0530  0.2513
13585W        W30432  11.266  13.523  13.829 -0.1839 -0.3410  0.1809
13586W        W30433  14.068  17.228   4.687  0.2581 -0.1061 -0.0103
13587W        W30434  16.714   7.258   1.307 -0.1217 -0.3352 -0.0127
13588W        W30435  16.244  13.822   0.422 -0.0556 -0.2880  0.0567
13589W        W30436   9.652  10.864  12.596  0.1662  0.0460  0.1736
13590W        W30437   4.901   4.935  10.773  0.3007 -0.0591  0.1273
13591W        W30438  14.904  11.620  12.109 -0.0787  0.2448  0.0112
13592W        W30439  15.466   2.701   3.665 -0.1328 -0.2707  0.1266
13593W        W30440   3.432  18.403   3.088 -0.1020  0.0446  0.0373
13594W        W30441  19.763  15.976   4.411 -0.0832  0.0348  0.3448
13595W        W30442  19.291   3.132   3.193  0.2183 -0.5765 -0.4184
13596W        W30443   8.250  13.032  12.851  0.2077  0.1530 -0.1582
13597W        W30444  17.177  14.965  11.864 -0.3254  0.1629  0.2199
13598W        W30445  15.961   0.862   0.722 -0.0425 -0.1021  0.1718
13599W        W30446   0.023   7.347   4.523  0.5616  0.0472 -0.2888
13600W        W30447   6.023  13.137  10.104 -0.1138 -0.3091 -0.4402
13601W        W30448  12.059  15.991  10.706  0.0755  0.0006 -0.0019
13602W        W30449   1.184   3.102  14.361  0.0781 -0.0279 -0.0219
13603W        W30450   5.838  13.235  11.042 -0.1218 -0.1176  0.0928
13604W        W30451  19.382  18.532  10.656  0.1672 -0.1749 -0.1417
13605W        W30452  18.780  10.991  14.055  0.2878 -0.0346 -0.0925
13606W        W30453   5.626   8.320   4.130  0.0297 -0.0011 -0.0199
13607W        W30454   9.007  14.260   4.441 -0.0033 -0.0519 -0.1382
13608W        W30455  19.236   5.594   2.385 -0.3289 -0.4972 -0.3717
13609W        W30456  16.508  14.502  13.733  0.1444 -0.0896  0.0781
13610W        W30457  12.001   5.860  10.451  0.1380  0.1855 -0.1041
13611W        W30458  18.762   5.453   2.432  0.0816 -0.0626 -0.0280
13612W        W30459   3.268   3.157   3.016  0.1496  0.2825 -0.0995
13613W        W30460   5.816   7.840   0.804  0.1455 -0.4425 -0.3396
13614W        W30461  12.023   3.522   9.746 -0.0677 -0.3207 -0.0577
13615W        W30462  11.941   0.157  13.226 -0.1765  0.0087 -0.0127
13616W        W30463   4.048  13.271   2.811 -0.0137 -0.3190  0.0029
13617W        W30464  13.519   4.543   4.087 -0.5040 -0.3682  0.1293
13618W        W30465  15.134  16.963   1.832 -0.0954 -0.2063 -0.3460
13619W        W30466   8.945   6.006   2.118 -0.0353  0.0225 -0.0740
13620W        W30467  10.207  19.634   1.664  0.1553 -0.0997 -0.1245
13621W        W30468   8.937  11.404  13.970  0.3407  0.1529  0.0766
13622W        W30469  10.169  18.958  11.093 -0.0540  0.2620  0.3683
13623W        W30470   9.727   0.883  13.819 -0.3000  0.0436  0.0559
13624W        W30471  15.512  13.768   4.749  0.2099  0.2067  0.2036
13625W        W30472  16.793  11.755  13.096 -0.2441  0.0249 -0.0689
13626W        W30473  17.208   6.662   0.204  0.1618  0.1413 -0.1277
13627W        W30474   1.657   4.530  11.127  0.0872 -0.1454  0.4102
13628W        W30475   8.738  15.965   4.043 -0.0984 -0.1307 -0.0195
13629W        W30476  13.110  14.001   1.211 -0.0930  0.0490  0.1885
13630W        W30477   7.654  10.476  10.804 -0.1395 -0.1367  0.0718
13631W        W30478   2.516   1.294   2.581 -0.6040  0.0888  0.0190
13632W        W30479   1.182   8.629  10.135 -0.1571  0.3279 -0.0984
13633W        W30480   9.180  16.916  11.463 -0.0493  0.2545  0.1921
13634W        W30481   3.621  13.305  14.308 -0.0106 -0.0573  0.0328
13635W        W30482  13.980   9.586   1.433  0.1308 -0.0863  0.0860
13636W        W30483   7.680  13.417   9.331 -0.1740 -0.0625 -0.0894
13637W        W30484  19.513  17.806   9.116 -0.3730 -0.1791  0.5149
13638W        W30485  14.758  17.681   0.883 -0.1875 -0.2254  0.1776
13639W        W30486   9.811   7.068   0.612  0.2025  0.5182 -0.1068
13640W        W30487  16.675  13.103   4.404  0.2057  0.2370 -0.0883
13641W        W30488  17.582   8.562   0.300 -0.0163  0.1165 -0.0204
13642W        W30489   0.746   2.334  12.211  0.4782 -0.3177 -0.1302
13643W        W30490  11.186  16.363   3.346 -0.0344 -0.4020  0.3781
13644W        W30491   0.759   9.061  14.316 -0.2766 -0.1749  0.0011
13645W        W30492  17.071  15.618   3.401 -0.3012  0.0582 -0.1186
13646W        W30493   2.486  13.238   1.980  0.1249  0.0105 -0.2987
13647W        W30494  15.299   5.549   3.168 -0.5833 -0.2532 -0.1360
13648W        W30495  19.441   4.697  11.633 -0.3147  0.1391  0.1421
13649W        W30496  11.768   9.254  12.576  0.1497 -0.1472  0.3240
13650W        W30497   1.235   1.515   2.100 -0.0575 -0.2332 -0.1037
13651W        W30498   1.564   0.677   4.451  0.0566  0.2717 -0.2451
13652W        W30499   7.153  15.933   3.170 -0.2589 -0.0487  0.0557
13653W        W30500   1.129   8.297  11.181  0.1887  0.0529 -0.0472
13654W        W30501  14.651   8.620   1.067  0.1002 -0.1326 -0.1146
13655W        W30502  10.094   6.759   0.324  0.1137  0.1809  0.5230
13656W        W30503   3.903  13.432   4.188  0.0651 -0.0158  0.0050
13657W        W30504  14.194   9.026  12.914 -0.2000  0.1432  0.0851
13658W        W30505   3.985  16.273   0.475  0.0133 -0.0087 -0.0075
13659W        W30506  16.675   1.519   5.389  0.3453  0.0400 -0.3091
13660W        W30507  16.746  16.234  12.077 -0.1054 -0.2471  0.0690
13661W        W30508   1.284   5.518  13.588  0.1186  0.1125  0.0425
13662W        W30509  18.178   1.266   0.764 -0.0799  0.6009 -0.0097
13663W        W30510  11.269  16.832  11.561 -0.1495  0.1569 -0.3659
13664W        W30511  13.399   9.068   9.858  0.1788 -0.0090  0.0469
13665W        W30512  17.795  11.283   1.857 -0.0291  0.0271 -0.2020
13666W        W30513   1.349  14.096   2.581  0.1445  0.2839 -0.1941
13667W        W30514   3.913   1.754   1.525 -0.0646 -0.0482  0.0213
13668W        W30515  14.804  15.786   4.131  0.0358 -0.1333 -0.0774
13669W        W30516  17.377  10.361  11.163  0.0747 -0.2717 -0.2077
13670W        W30517  11.940   5.022  13.545  0.1539  0.3343 -0.0503
13671W        W30518   5.353   1.383   4.403 -0.0084  0.1380 -0.2614
13672W        W30519  10.161  16.449   4.764  0.0353 -0.2875  0.2693
13673W        W30520  17.789  17.733  13.557  0.2550  0.1478 -0.0930
13674W        W30521  18.239  18.065   0.537 -0.0549  0.0230  0.1269
13675W        W30522   2.671  15.064   4.735 -0.4339  0.3563  0.0289
13676W        W30523  19.264   8.736   2.053  0.2129  0.3216 -0.3085
13677W        W30524  14.349  19.149  12.126 -0.0167 -0.2509 -0.0020
13678W        W30525   3.371  13.710   3.214 -0.0545  0.0252  0.0296
13679W        W30526  10.867   4.221   2.370  0.2944 -0.0861 -0.2728
13680W        W30527  17.860   4.631  11.341  0.2977  0.2878  0.1724
13681W        W30528   4.096   7.112   3.969 -0.0513  0.1454 -0.1894
13682W        W30529   1.208  14.677   3.197  0.1822 -0.1983 -0.2210
13683W        W30530   3.205  15.872   0.924 -0.1571 -0.0950 -0.1924
13684W        W30531  12.017   1.007   4.106 -0.3488  0.0902 -0.0775
13685W        W30532  14.527   7.343  11.779 -0.0694 -0.0488 -0.0798
13686W        W30533   6.222  13.258   0.844 -0.0156  0.0209 -0.0592
13687W        W30534  18.944   3.313  11.049  0.1131  0.1561  0.1140
13688W        W30535   7.247   2.295  14.197  0.0759 -0.1456 -0.1270
13689W        W30536   2.496  15.162  14.329 -0.2233  0.0330  0.0489
13690W        W30537  19.437   1.164   4.426  0.0973 -0.1321 -0.0877
13691W        W30538  12.058  13.883   0.645  0.1885 -0.2360  0.2032
13692W        W30539  10.233   2.499   4.790  0.0763 -0.1196  0.0552
13693W        W30540   5.128  12.840   4.340  0.2788  0.1618  0.3066
13694W        W30541  12.441  17.412  12.414 -0.4049 -0.0750  0.0227
13695W        W30542   3.377   6.643  13.413 -0.0572 -0.0227 -0.1772
13696W        W30543  19.316  19.239   0.541 -0.4809  0.1920 -0.2896
13697W        W30544  10.685  11.343  11.269  0.0859  0.1491 -0.1516
13698W        W30545   8.151  19.348   1.170 -0.1001 -0.2833 -0.1556
13699W        W30546   5.727  17.465   9.208  0.0891 -0.3088  0.0123
13700W        W30547  13.095   4.717  10.641  0.1849 -0.0891  0.1877
13701W        W30548  12.012  16.053   0.185 -0.0228  0.4815  0.3763
13702W        W30549   2.266  14.594  11.025 -0.0177 -0.1130  0.0659
13703W        W30550   2.451  17.081  13.423 -0.0539  0.2686  0.1015
13704W        W30551  19.732   2.378   0.848 -0.2276  0.2845  0.0120
13705W        W30552  11.492   5.165  11.552  0.2261  0.1340  0.2468
13706W        W30553  12.648  16.603  13.101 -0.0546  0.0409  0.2244
13707W        W30554  10.879  10.511   3.334 -0.0263  0.0826  0.3650
13708W        W30555   8.052  16.571  14.159  0.1313 -0.1081 -0.3511
13709W        W30556  16.175   1.937  11.519  0.0636 -0.1179 -0.2493
13710W        W30557  18.916   8.152   1.738  0.0461 -0.1434 -0.1595
13711W        W30558  11.711  11.740   4.623 -0.0937 -0.1348  0.1375
13712W        W30559  12.552  16.913   2.180  0.1680  0.0765 -0.0721
13713W        W30560   8.842  13.058   1.494 -0.1657 -0.0310  0.1231
13714W        W30561   0.300   2.908   5.585  0.0726  0.1564  0.2134
13715W        W30562  19.534  18.501  13.209 -0.0049 -0.2856 -0.0196
13716W        W30563  16.786   4.496  11.687  0.3073  0.2492 -0.1206
13717W        W30564   8.731  11.571   3.461  0.1919 -0.0796  0.2665
13718W        W30565  12.723   3.804  13.552 -0.1053 -0.0833 -0.1353
13719W        W30566  10.015  12.047   3.338  0.3073 -0.1731  0.1100
13720W        W30567   2.431   8.204   3.895  0.1142 -0.0648 -0.2475
13721W        W30568  15.754   6.549  10.737  0.1973 -0.0227  0.1533
13722W        W30569   6.427   8.596  11.330  0.0166 -0.0774 -0.2277
13723W        W30570  16.515   7.204  10.865 -0.0177 -0.1005  0.0956
13724W        W30571   5.594  18.249   3.041 -0.0091  0.1914 -0.1871
13725W        W30572   2.049  14.196   4.500  0.0171  0.0316  0.2311
13726W        W30573  16.383  17.496  13.886  0.0215 -0.0734 -0.1025
13727W        W30574   2.414   5.089   5.107 -0.3366  0.1289 -0.0571
13728W        W30575   0.066  17.144  10.862  0.1567 -0.0941 -0.0608
13729W        W30576   2.987   4.317   0.384  0.4253  0.0312 -0.0746
13730W        W30577  19.293   5.161  12.806  0.0163  0.2920  0.0859
13731W        W30578  13.723  16.018   0.590  0.1613 -0.2294  0.3260
13732W        W30579  19.863   4.964  13.509 -0.0290  0.1995 -0.0478
13733W        W30580   7.251   9.710  12.101 -0.1791  0.1178  0.0629
13734W        W30581   0.069   5.472   3.529 -0.0368  0.1006  0.2421
13735W        W30582   2.433  18.581   2.954 -0.2169 -0.0594 -0.3144
13736W        W30583  11.482   3.825   0.600  0.0492  0.2590  0.1511
13737W        W30584  19.486   8.704  14.017  0.0743  0.4239 -0.1620
13738W        W30585  11.210  13.390   4.888  0.2134  0.1181 -0.1570
13739W        W30586  10.079  12.856   0.821  0.1788  0.4581  0.1027
13740W        W30587   4.583  14.818  12.586  0.0832  0.2001 -0.1239
13741W        W30588  11.360  19.090   3.830 -0.0172  0.1358 -0.1344
13742W        W30589   0.878   7.277   4.713 -0.1861 -0.0234 -0.0175
13743W        W30590   4.860  18.405  13.307 -0.1853 -0.1195  0.1623
13744W        W30591  13.310  17.083  10.025  0.0233 -0.2615  0.0419
13745W        W30592  17.663   7.509   9.768 -0.2424 -0.1510  0.1305
13746W        W30593   1.438   3.655   3.306 -0.1040 -0.1360 -0.1358
13747W        W30594  12.803  10.784  13.199  0.1104 -0.2044 -0.5445
13748W        W30595  16.312  16.672  11.945  0.0472 -0.0065 -0.1261
13749W        W30596   7.777   7.091   1.717 -0.3008 -0.2139 -0.1920
13750W        W30597   8.671  10.278   2.552 -0.2418  0.1677  0.4110
13751W        W30598   0.824   4.588  11.848 -0.4330  0.0570  0.0407
13752W        W30599  11.599   1.010  12.305  0.0892 -0.0198 -0.1339
13753W        W30600   2.953  16.603   1.578  0.0546  0.2927 -0.0734
13754W        W30601   0.974  11.207   1.134 -0.1460  0.2774 -0.1411
13755W        W30602   9.067   9.225   2.828 -0.2241 -0.0506 -0.1110
13756W        W30603  18.126  15.266  12.309 -0.2972 -0.2511 -0.0269
13757W        W30604  19.079  12.968  13.734  0.1221  0.1338  0.0249
13758W        W30605   5.179   9.379  10.058 -0.0413  0.6062 -0.1265
13759W        W30606  15.444   0.050  11.937 -0.2581 -0.3221  0.2114
13760W        W30607  10.573  11.045  12.098  0.1309  0.0377  0.4899
13761W        W30608  11.410  19.818   2.305 -0.1245  0.3085 -0.1826
13762W        W30609  19.678  18.437   1.906 -0.0200  0.0513 -0.0354
13763W        W30610  14.113   2.697   9.795 -0.0464 -0.1486 -0.0717
13764W        W30611   8.861   9.129  11.704 -0.2933 -0.1175 -0.3877
13765W        W30612   5.441  18.564  13.068  0.0002 -0.1532  0.1624
13766W        W30613  15.702   5.257   2.140 -0.3725 -0.1838 -0.0456
13767W        W30614  13.285  13.479   4.452 -0.2490  0.7159 -0.3235
13768W        W30615   9.678   6.816  13.820 -0.2258  0.2645  0.0719
13769W        W30616   1.545  18.967   0.769  0.3217 -0.2040 -0.0725
13770W        W30617   2.364  11.990  14.293  0.2359 -0.0022  0.1337
13771W        W30618   2.007   6.569  11.923 -0.0314  0.0042 -0.4205
13772W        W30619   2.678  13.050   4.366 -0.0835  0.1169  0.2721
13773W        W30620   8.000   6.932  12.522 -0.0367  0.1068 -0.0872
13774W        W30621  11.476   9.652   3.273 -0.1388 -0.1855  0.0787
13775W        W30622   5.076   9.965   2.783  0.2046 -0.1300 -0.0909
13776W        W30623   3.368  13.419  13.326 -0.3476  0.0292 -0.1131
13777W        W30624  17.918  16.332   2.454  0.1874 -0.1238 -0.2001
13778W        W30625  12.585  10.561  12.732 -0.0264 -0.0481  0.2168
13779W        W30626   2.768  18.008   1.343 -0.0520 -0.2449 -0.2166
13780W        W30627  17.162   8.510   0.853  0.0526 -0.1444  0.0664
13781W        W30628  18.308  12.828  11.356 -0.2452 -0.0849  0.0585
13782W        W30629   9.687   5.922   3.304  0.1802 -0.2394 -0.0389
13783W        W30630   8.282   8.608   5.015 -0.0117 -0.0284 -0.3693
13784W        W30631  14.458  13.349  13.744  0.1867  0.0292 -0.0085
13785W        W30632  13.027   8.961  10.310 -0.1310 -0.0135 -0.0717
13786W        W30633  11.980   6.298  11.997  0.1264 -0.0124  0.1243
13787W        W30634   7.201   0.352  14.334  0.0006  0.0706 -0.0231
13788W        W30635   1.282   2.781  13.157 -0.0298 -0.2351 -0.3853
13789W        W30636   8.724   4.784  11.203 -0.0229  0.0694 -0.1662
13790W        W30637  14.547   1.379  13.375 -0.3548 -0.2151 -0.3030
13791W        W30638  18.977  18.949   0.232 -0.0821  0.1274 -0.1310
13792W        W30639   8.096  15.767  14.096  0.0600  0.1766  0.4122
13793W        W30640   2.125   5.451   1.674  0.3574 -0.0152  0.2277
13794W        W30641  10.607   4.445   1.593  0.0300 -0.0549  0.3813
13795W        W30642  16.555   7.893   1.086  0.0243  0.2232 -0.0487
13796W        W30643  10.397   0.338   2.861 -0.0282 -0.2337 -0.3619
13797W        W30644  19.524   5.175   2.232 -0.1074 -0.1182  0.2091
13798W        W30645   4.413   3.380   9.430  0.1138  0.0765 -0.0614
13799W        W30646   2.975  13.686   0.219 -0.0850 -0.2178  0.1253
13800W        W30647   4.487   7.266  12.805  0.1493 -0.1521 -0.0446
13801W        W30648  10.943  13.881  11.947 -0.1317 -0.2188 -0.1839
13802W        W30649   3.607  16.348  11.434 -0.0242  0.0887 -0.2957
13803W        W30650   3.466   3.578  11.894 -0.1169 -0.1111  0.2558
13804W        W30651   8.354   1.126   2.647  0.0459  0.1504 -0.1721
13805W        W30652  18.051  16.801   9.673 -0.2490  0.2318  0.3504
13806W        W30653  19.212   4.971   3.101 -0.1133  0.0072  0.3876
13807W        W30654  10.517   7.555   4.521 -0.0920  0.2513 -0.0394
13808W        W30655   9.079   5.608  12.552 -0.2704 -0.1587  0.0205
13809W        W30656   8.427  18.376  11.053  0.1133 -0.0910 -0.1864
13810W        W30657  16.176  19.262  11.670 -0.0154  0.3623 -0.1852
13811W        W30658   9.007   4.765   2.628  0.0312 -0.1843 -0.2062
13812W        W30659  14.428  15.055  12.099 -0.3454  0.1635  0.0305
13813W        W30660  10.476  17.326   0.871  0.0663 -0.2734  0.1705
13814W        W30661  15.762   5.444   2.592 -0.0467 -0.0878 -0.2064
13815W        W30662  17.037  16.029   1.027  0.0346 -0.0844 -0.0317
13816W        W30663  11.357  17.211  12.748  0.0906 -0.0429  0.0231
13817W        W30664   5.810  19.182  14.123  0.2098 -0.0912 -0.2375
13818W        W30665   3.565   9.729  13.505  0.1372 -0.0240  0.0394
13819W        W30666  14.900   5.522  12.076 -0.1932  0.0913  0.4128
13820W        W30667  14.768  10.053  13.585  0.1207  0.0083  0.0047
13821W        W30668  19.104  17.171  13.938 -0.2041  0.0872  0.2207
13822W        W30669  15.111  16.536  10.595  0.0569 -0.1494 -0.2012
13823W        W30670  17.109   5.722   1.850 -0.2380  0.1506  0.0994
13824W        W30671  16.699  16.322   5.263 -0.1574  0.1293  0.1637
13825W        W30672  15.755   2.447   4.906  0.0879  0.0406  0.1717
13826W        W30673   7.785  10.204  10.263 -0.2371  0.3609  0.2910
13827W        W30674  13.583  11.632  13.938  0.0445  0.1182 -0.4552
13828W        W30675   4.554  11.332   4.247 -0.3157 -0.0006  0.0989
13829W        W30676   8.208  17.540  13.213 -0.0668 -0.0790  0.0483
13830W        W30677  12.193  18.208   0.766 -0.0370 -0.1026 -0.0805
13831W        W30678  13.938   8.749   3.894 -0.0807  0.2942  0.0873
13832W        W30679   7.445  19.369  10.825  0.1043 -0.0096  0.3424
13833W        W30680   6.766   1.099  12.989 -0.1337 -0.0387 -0.1079
13834W        W30681   2.006  11.194   4.704 -0.0053 -0.1187  0.1798
13835W        W30682  17.579   4.529  10.044 -0.0830 -0.2471 -0.0628
13836W        W30683  12.352   8.423  11.068 -0.0468 -0.1061 -0.0731
13837W        W30684   2.683   8.594   4.029 -0.0912 -0.0002 -0.1463
13838W        W30685  12.333  10.901  10.302 -0.2512  0.0888 -0.2492
13839W        W30686   5.074  12.058  11.087 -0.0401  0.1050 -0.0190
13840W        W30687   5.392   6.507  12.323  0.1983 -0.1371  0.0204
13841W        W30688  17.587  11.475  10.096  0.1259  0.0772 -0.1158
13842W        W30689   7.197  15.314  13.627 -0.1099 -0.1816  0.2369
13843W        W30690   0.133   3.002  12.240 -0.1974  0.2206  0.1484
13844W        W30691   5.324  13.865  10.365 -0.1388  0.2171  0.0733
13845W        W30692   3.563   8.415   4.631  0.1008 -0.3578 -0.4633
13846W        W30693  11.428   6.611   0.029 -0.1002 -0.1757 -0.3280
13847W        W30694  13.922  18.732   1.347 -0.2573  0.0580 -0.2322
13848W        W30695   4.578  14.133  13.044  0.1945 -0.2679  0.0945
13849W        W30696  17.291  14.818  11.326 -0.3845  0.2056 -0.3151
13850W        W30697  14.795   4.987  12.974 -0.0814  0.0486 -0.2822
13851W        W30698   2.824  15.377   0.799 -0.0177 -0.1269  0.1185
13852W        W30699   2.468   9.935  13.812 -0.0147  0.1840 -0.4259
13853W        W30700   1.180  11.698  12.767  0.1988  0.1578 -0.1935
13854W        W30701  10.332  11.462  14.122  0.1835  0.1481 -0.2468
13855W        W30702   9.443   1.850  10.785 -0.0264  0.1914  0.0976
13856W        W30703  11.758  12.154  12.132 -0.1171 -0.0513 -0.1835
13857W        W30704   9.736   7.331  11.020 -0.1620 -0.2021 -0.0892
13858W        W30705   2.975  10.636  12.415  0.1609  0.0492  0.0477
13859W        W30706   4.177   1.846  11.924  0.0608 -0.2078 -0.0184
13860W        W30707  17.235  10.381  12.083  0.2345 -0.2758 -0.1288
13861W        W30708  10.933  11.945  11.863  0.0786 -0.0604 -0.1840
13862W        W30709   2.818   8.533  12.560  0.0200 -0.0346  0.0844
13863W        W30710   1.843   0.872   0.519 -0.1113 -0.1906 -0.1180
13864W        W30711   4.432  13.837   1.169 -0.1184 -0.1408 -0.2738
13865W        W30712   9.687  17.273  11.642  0.1603  0.1138  0.1281
13866W        W30713   7.529  15.559   2.083 -0.1176 -0.0645 -0.3494
13867W        W30714   4.277   8.808   1.274 -0.0138  0.0357 -0.1512
13868W        W30715  16.644   4.760  13.675 -0.1653  0.1524  0.0462
13869W        W30716  18.604  11.715   9.376  0.0709 -0.2229  0.0920
13870W        W30717   9.151   5.312  10.027 -0.2879 -0.3394  0.1383
13871W        W30718  14.219  17.004  10.649  0.0260  0.1064 -0.0673
13872W        W30719  15.168   9.841   0.645  0.2454 -0.2740 -0.2590
13873W        W30720   5.376  12.237  13.505  0.1230 -0.0681 -0.2350
13874W        W30721   8.049   5.591   3.939  0.1355  0.1184  0.3594
13875W        W30722   9.585  15.195   4.345  0.0787 -0.0962  0.0229
13876W        W30723  14.214  16.035  12.331  0.0252  0.0340 -0.1770
13877W        W30724   1.715  15.205  14.195  0.4392  0.0604  0.2901
13878W        W30725  13.773  12.473   1.751  0.0578 -0.2270  0.2382
13879W        W30726   0.616   4.022   4.780  0.1289  0.2843  0.3712
13880W        W30727   4.451  15.649  14.147  0.0072 -0.3417 -0.0581
13881W        W30728   3.029   5.626   0.529 -0.1870 -0.3479 -0.0280
13882W        W30729   1.526   1.190   0.831  0.1379 -0.1841 -0.1414
13883W        W30730   3.241   5.998   1.385  0.1300  0.1895  0.0858
13884W        W30731   6.320  15.812  12.803 -0.1137 -0.1406 -0.2764
13885W        W30732   2.932  16.320  13.548 -0.0480 -0.1176  0.1038
13886W        W30733  18.268   5.034   9.524  0.3517 -0.1010  0.1359
13887W        W30734   6.128   0.978   4.166 -0.0819 -0.0983 -0.0885
13888W        W30735  18.499  14.025  10.708  0.1099  0.1818 -0.2137
13889W        W30736  11.410  17.648   1.618  0.0545  0.0380 -0.1050
13890W        W30737  10.558  16.917   1.293  0.2140 -0.0492 -0.0709
13891W        W30738  14.881  13.322   3.874  0.3437  0.7092  0.2425
13892W        W30739  13.539   7.330  12.633  0.1988  0.2510 -0.0389
13893W        W30740  15.672   5.058  13.515 -0.1791  0.1613  0.2814
13894W        W30741  11.677   7.869  10.467  0.0654  0.0254 -0.1682
13895W        W30742  17.213  12.303   3.520  0.1299  0.0702  0.0557
13896W        W30743  11.207   4.253  11.615  0.1005 -0.1480  0.5331
13897W        W30744   8.276   3.078   2.490  0.1226 -0.3793 -0.2164
13898W        W30745   2.291  14.309  11.684 -0.0473  0.0431  0.0686
13899W        W30746  18.804   3.205   2.821  0.0501 -0.0531 -0.1855
13900W        W30747   7.999   8.071   9.574  0.2430  0.2399  0.0332
13901W        W30748   9.675  11.528   0.159  0.0070 -0.3396 -0.0458
13902W        W30749  11.690  16.257  12.199 -0.0570 -0.1798 -0.7355
13903W        W30750  12.327   0.672   3.287  0.2500 -0.0334 -0.1304
13904W        W30751  15.768   2.952  11.710 -0.2593 -0.1142 -0.1191
13905W        W30752   8.945   5.192  11.962 -0.1244  0.0508  0.0183
13906W        W30753   1.485   4.887  12.565  0.1501  0.1641 -0.1966
13907W        W30754   1.538  14.684   3.948  0.0375  0.0059  0.0634
13908W        W30755   9.558   5.357  11.767  0.3510 -0.0337 -0.1715
13909W        W30756  13.537  14.964   2.459  0.2400  0.0573 -0.1151
13910W        W30757   0.590   5.121   3.169 -0.2617  0.2156 -0.0074
13911W        W30758   8.323   8.866  13.302 -0.1357 -0.2623  0.0215
13912W        W30759   1.462  18.376  13.497  0.0653 -0.1281  0.0357
13913W        W30760   2.727  11.039   4.225 -0.1009 -0.1564 -0.1853
13914W        W30761   7.781   6.054   3.935 -0.3337  0.1081  0.0236
13915W        W30762   5.977   8.113   2.273  0.0426 -0.0705 -0.1841
13916W        W30763  14.338  18.604   1.534 -0.2270  0.0452  0.0470
13917W        W30764  18.720  18.724  11.671 -0.2453  0.1938 -0.0809
13918W        W30765   0.710   3.898   1.180  0.1910  0.3435 -0.3004
13919W        W30766  13.627  13.517   3.699  0.0361 -0.0193  0.0981
13920W        W30767   4.565   9.035   4.803 -0.3602  0.2557  0.2099
13921W        W30768   9.460  17.116  11.051 -0.2445 -0.0314  0.0764
13922W        W30769  17.887   4.400   5.419  0.2046  0.1625 -0.1483
13923W        W30770  19.243  12.564   0.018 -0.1498  0.1587 -0.0175
13924W        W30771  18.095   3.650   5.254 -0.3069 -0.1419  0.1287
13925W        W30772   1.665   7.110  10.630  0.2352  0.1023 -0.0275
13926W        W30773   3.720   5.693   3.680  0.1153 -0.1034 -0.0781
13927W        W30774  17.400  16.873   1.777 -0.0883 -0.1054  0.1904
13928W        W30775   0.367  10.735   2.975  0.0445  0.0998  0.0847
13929W        W30776   7.092  19.242  11.473  0.0551  0.0140  0.3748
13930W        W30777  10.179  11.447   4.772  0.1501  0.2596 -0.2865
13931W        W30778  12.317   8.211   1.130  0.4262  0.0325  0.2875
13932W        W30779   2.992   7.853  13.249  0.0380 -0.0239 -0.2505
13933W        W30780   0.222  16.361   5.300 -0.0179  0.0153  0.1002
13934W        W30781  18.356  19.013  11.395 -0.0574  0.0215  0.1758
13935W        W30782  17.111   8.492  10.459 -0.1331  0.1262 -0.0740
13936W        W30783  11.564   9.814  11.594 -0.2323 -0.1331 -0.2569
13937W        W30784  10.169  16.449  12.508  0.3920  0.0161  0.0683
13938W        W30785   3.948   2.961  14.250 -0.0226  0.2945  0.1212
13939W        W30786  17.566  16.601  10.486 -0.0290  0.1701 -0.1769
13940W        W30787   3.959   5.822   1.706  0.1257 -0.4007  0.3443
13941W        W30788   6.518   6.732  12.054 -0.0879  0.1764 -0.1992
13942W        W30789   2.014   9.423  12.536 -0.1365  0.1592 -0.3436
13943W        W30790  18.804   6.276   3.536  0.2224  0.1671  0.1987
13944W        W30791   0.572   7.185   2.830  0.0303 -0.0046  0.2418
13945W        W30792  16.510   0.603  10.905  0.2624  0.2293 -0.1148
13946W        W30793   6.154   7.647  13.547  0.1217 -0.0826 -0.4444
13947W        W30794  10.888   8.980   2.383  0.0939 -0.3935  0.4098
13948W        W30795  19.461  14.456  14.193 -0.2585 -0.0663  0.1461
13949W        W30796   2.670   8.978  11.208 -0.1211 -0.1995 -0.0446
13950W        W30797  13.273  11.723   3.152 -0.1004 -0.2542 -0.2323
13951W        W30798  15.574  11.889   0.461 -0.1989 -0.3065  0.1475
13952W        W30799   0.507  19.696   1.155  0.2007  0.1257  0.1949
13953W        W30800  17.107  15.639  12.419  0.1553 -0.0663 -0.1485
13954W        W30801   8.450   6.296  14.362 -0.2919  0.1606  0.5606
13955W        W30802  15.407   0.018  10.950 -0.4021  0.0597  0.0304
13956W        W30803   7.807  16.274   2.169 -0.1811 -0.1536 -0.0472
13957W        W30804  14.351   3.437  13.424 -0.1578 -0.2555  0.0817
13958W        W30805  19.409  10.925  11.358  0.1200 -0.6030  0.1775
13959W        W30806   7.629   5.647  10.633  0.6128 -0.1672  0.1805
13960W        W30807  10.926   3.017   1.005  0.0527  0.0887 -0.0934
13961W        W30808  17.543   0.164   5.094  0.2626  0.2241 -0.1120
13962W        W30809  13.621  12.306   9.814  0.1780 -0.3264 -0.1674
13963W        W30810  11.456   7.831   0.935 -0.0024 -0.0919  0.0117
13964W        W30811   6.770   3.443  13.078  0.0701 -0.2092 -0.0518
13965W        W30812  14.074   4.322  11.729 -0.1051 -0.2012  0.2222
13966W        W30813   8.821  10.911  14.229  0.2560 -0.0962  0.1321
13967W        W30814  15.987  16.026   1.439  0.0775  0.2897  0.2369
13968W        W30815  11.997   7.192   3.257  0.1018  0.0162 -0.4073
13969W        W30816   7.146  12.741  13.984 -0.0181 -0.3764  0.0957
13970W        W30817   0.604   4.743  10.338 -0.0606 -0.1913 -0.0686
13971W        W30818  18.787  19.549  12.034  0.1146 -0.1791 -0.0007
13972W        W30819   3.705   7.925   4.678  0.1311  0.1399 -0.0109
13973W        W30820  16.882  12.424  13.386  0.0172  0.0798  0.0920
13974W        W30821  10.251   4.637   4.543  0.1100  0.0658 -0.0464
13975W        W30822  15.392   3.265  11.385 -0.4214 -0.1153 -0.0978
13976W        W30823  17.994   7.611   4.368  0.0280  0.2891  0.1315
13977W        W30824   6.216  14.088   4.127  0.1652  0.2165  0.2943
13978W        W30825   6.600   5.625   0.171 -0.0172  0.4034  0.0013
13979W        W30826   7.872  16.040  10.154  0.0739  0.4095 -0.2896
13980W        W30827   6.973   3.254   1.457  0.0630  0.1196  0.0745
13981W        W30828  10.006   8.853   2.977  0.4038 -0.1057  0.0382
13982W        W30829   9.989  15.433   0.782 -0.2327  0.2675  0.1908
13983W        W30830   0.519  12.760   4.461 -0.0048 -0.0554  0.2615
13984W        W30831   0.541  14.040   2.211 -0.2778  0.4838  0.0599
13985W        W30832  12.338   4.225   9.443  0.0906 -0.0007  0.1313
13986W        W30833  13.963  10.721   0.732  0.1206  0.2259  0.0300
13987W        W30834   1.545   5.973   3.972  0.1293 -0.0955 -0.0085
13988W        W30835  17.478  13.568   3.786 -0.0610  0.1861  0.2794
13989W        W30836   8.482   1.580  13.156 -0.1465 -0.1267 -0.1308
13990W        W30837  16.544   1.413   1.259 -0.1163 -0.0241 -0.3714
13991W        W30838  17.000  10.604  13.425  0.4805 -0.0535 -0.0518
13992W        W30839   8.110  13.124  11.894 -0.2070  0.0048  0.0693
13993W        W30840  16.934  10.214   1.391 -0.0968  0.1391  0.0681
13994W        W30841   2.773  10.979   3.639  0.2965  0.0009  0.0254
13995W        W30842   2.879   9.128  14.207  0.3407  0.0042  0.1746
13996W        W30843  12.681  17.811   3.488  0.1062 -0.2547 -0.3200
13997W        W30844  16.223   1.538  11.176  0.1083  0.2212 -0.1528
13998W        W30845   7.856   6.245  12.043 -0.2128  0.0994 -0.0165
13999W        W30846  10.458   8.784   4.206 -0.3704 -0.0306 -0.0442
14000W        W30847  16.677   8.346  10.683  0.2099 -0.2153 -0.0181
14001W        W30848   1.415  13.157  13.579 -0.2974 -0.0604  0.0214
14002W        W30849  14.773   3.158   1.614  0.2316  0.3270 -0.2005
14003W        W30850  13.422   1.123   0.228  0.2423  0.1259  0.3036
14004W        W30851  19.782  15.048   1.031 -0.2282  0.0786  0.0556
14005W        W30852  10.014  12.941  13.454 -0.1174  0.0087 -0.0302
14006W        W30853   8.849   1.281  13.780  0.2041 -0.3488  0.2796
14007W        W30854   9.791   6.541   1.271  0.1219  0.0742 -0.3436
14008W        W30855  10.140  18.145  13.525 -0.1837  0.1323 -0.1308
14009W        W30856  11.498  16.141   1.795  0.2285  0.0774 -0.0106
14010W        W30857  15.762  16.226  13.328 -0.1542 -0.2543 -0.0670
14011W        W30858   3.567   9.877   0.478 -0.1685  0.0226 -0.2747
14012W        W30859   3.532   3.957   2.894 -0.3959  0.0018 -0.3650
14013W        W30860   8.626  16.733   4.211  0.1035 -0.0425 -0.0624
14014W        W30861  16.229   6.553   0.255  0.0359  0.2491  0.1104
14015W        W30862   0.725  16.018  10.294 -0.2248  0.1571 -0.0997
14016W        W30863  15.069  19.309  13.995  0.0108  0.0074 -0.0309
14017W        W30864  13.092  15.235   4.206  0.1331 -0.2703  0.2338
14018W        W30865  17.733  13.100   2.517  0.0501 -0.0740 -0.1301
14019W        W30866   8.362   3.420  14.324  0.0914  0.0439 -0.1181
14020W        W30867  17.539  17.681   2.027  0.0215  0.3201 -0.0543
14021W        W30868   6.334  16.636  11.361  0.0059 -0.4540  0.0612
14022W        W30869   0.195   6.800  10.403 -0.1455 -0.2748  0.1340
14023W        W30870  11.344   0.016  10.157 -0.0997  0.2749  0.1008
14024W        W30871  15.148  16.033   3.836  0.2613 -0.0122  0.0517
14025W        W30872  11.046   1.389   9.976 -0.0436  0.1580  0.2277
14026W        W30873  14.714  14.314   0.580 -0.3495  0.1667 -0.0747
14027W        W30874  13.798   6.308  11.164  0.0163  0.2314  0.0385
14028W        W30875  19.463  15.532  11.127 -0.1259  0.1590 -0.0832
14029W        W30876   8.962   5.242  13.379 -0.0916  0.1033 -0.3229
14030W        W30877   1.160  18.797   4.075  0.0343 -0.1283  0.0131
14031W        W30878  11.002  17.831  11.572  0.1691  0.1346  0.2736
14032W        W30879   0.751   5.146   5.332  0.0058 -0.2087 -0.2528
14033W        W30880  16.108   0.389   0.973  0.2337  0.0208  0.3168
14034W        W30881   2.146  19.843   3.148  0.0719  0.0041 -0.1213
14035W        W30882   3.998   4.225   3.456 -0.0420 -0.1391 -0.1330
14036W        W30883  10.145   6.533   2.000 -0.3539 -0.2655 -0.0180
14037W        W30884   7.371  12.139  11.405 -0.0121  0.2285 -0.0981
14038W        W30885   3.650   1.672   0.543  0.1765 -0.0810  0.0199
14039W        W30886  11.226  13.829  12.402 -0.1712  0.0665  0.0536
14040W        W30887  14.578   3.881  13.423  0.2149 -0.2063  0.0167
14041W        W30888   4.886   9.076  12.115  0.0153 -0.1088 -0.0985
14042W        W30889  18.335  15.372   2.092 -0.0427  0.1382  0.1253
14043W        W30890  15.972   2.890  13.106 -0.2932  0.1698 -0.1829
14044W        W30891   7.984  18.908   3.158 -0.0547 -0.1043 -0.3992
14045W        W30892   3.818  18.096   2.296 -0.0056 -0.0729  0.1367
14046W        W30893  14.624   3.369   3.052  0.1622 -0.2118 -0.3120
14047W        W30894   3.269  11.410  11.068 -0.0368  0.0987  0.2947
14048W        W30895   2.532   5.420   1.114 -0.2596  0.2924 -0.1785
14049W        W30896   7.660  16.141  14.090 -0.2420 -0.1615  0.2884
14050W        W30897   1.098  10.001   2.469 -0.1892 -0.0350  0.1441
14051W        W30898  13.230  12.010  11.950  0.0068  0.1493  0.4104
14052W        W30899  10.298   9.346   4.232  0.1022  0.1296 -0.3382
14053W        W30900  14.813  15.887  10.484  0.0604  0.0526 -0.0873
14054W        W30901  16.690  10.357   4.420  0.0420 -0.0313 -0.0147
14055W        W30902   8.453  17.990  12.026 -0.1107 -0.0462  0.0240
14056W        W30903  13.698  11.894  12.636 -0.0270  0.1919 -0.3377
14057W        W30904  14.110   2.019  11.042 -0.0295  0.2464  0.4003
14058W        W30905  18.076  10.641  10.645  0.1327 -0.1729  0.0872
14059W        W30906  15.758   4.388   1.583 -0.0625 -0.2198  0.2819
14060W        W30907  11.258   9.999  12.868 -0.2318 -0.0072 -0.0485
14061W        W30908   4.857   7.691   1.527 -0.1629  0.0615  0.1151
14062W        W30909  18.293  13.559   2.016  0.3656  0.0294 -0.3318
14063W        W30910  13.072   0.008   1.212 -0.0875  0.0765 -0.0403
14064W        W30911  10.383   6.514   4.248 -0.1205  0.1945 -0.4768
14065W        W30912   1.940  13.578  11.519  0.1385 -0.1626  0.0558
14066W        W30913   1.412  14.852  12.610  0.0865 -0.1241 -0.0540
14067W        W30914  16.784   8.449   0.481 -0.0057  0.0418  0.0519
14068W        W30915  19.656  12.816   0.074 -0.2053 -0.1811 -0.2075
14069W        W30916  14.051  13.504   2.886  0.1675 -0.1705  0.2005
14070W        W30917  12.644  14.947   2.928  0.1271  0.3181  0.0086
14071W        W30918  12.350   5.525   1.993 -0.0111  0.0891 -0.2386
14072W        W30919   7.918   1.939   3.108  0.1416  0.2517 -0.0601
14073W        W30920  10.038   7.362   0.131  0.2625 -0.1451  0.1364
14074W        W30921   3.242   3.493   0.470 -0.0260  0.0599  0.0680
14075W        W30922  13.390   4.196  10.485  0.0742 -0.1112 -0.2245
14076W        W30923   8.644  16.845   1.947 -0.1433  0.2384  0.1385
14077W        W30924   0.813  10.021  12.536 -0.2079  0.0542  0.0904
14078W        W30925  18.257   6.496   2.957  0.0126 -0.0250  0.1005
14079W        W30926  18.741   8.856   4.161 -0.0114  0.1852  0.0920
14080W        W30927  16.401   5.605  10.431  0.1736  0.0964  0.4803
14081W        W30928  11.951  13.435   0.605  0.2827 -0.1634  0.0510
14082W        W30929   5.744   7.718  12.264  0.1196 -0.1878  0.1838
14083W        W30930  11.537   3.763  13.121 -0.0368 -0.1082 -0.1095
14084W        W30931   3.401   3.584   2.492 -0.2758  0.2484 -0.2355
14085W        W30932  19.123  17.585   4.849 -0.2049  0.1508 -0.1825
14086W        W30933   7.158   5.070  13.656 -0.0237 -0.2579  0.1531
14087W        W30934  15.133   0.344  12.199 -0.1642 -0.0199 -0.0325
14088W        W30935   6.649  10.900   5.486  0.0622 -0.0172  0.1147
14089W        W30936  18.583  17.553   2.910 -0.3322 -0.0616  0.1435
14090W        W30937   7.928   8.918   3.708 -0.1665  0.0789 -0.0432
14091W        W30938  18.581  16.028  12.319  0.2852  0.3590 -0.2048
14092W        W30939   2.509   7.078   3.066 -0.0315 -0.1823 -0.0265
14093W        W30940  12.887   7.360  13.237 -0.0284 -0.2574  0.1686
14094W        W30941  19.517   6.322  10.233  0.0589  0.0488  0.0045
14095W        W30942   1.771   4.406   1.762 -0.2897 -0.0793  0.1786
14096W        W30943  16.076   4.955   9.820 -0.0312  0.2333 -0.4022
14097W        W30944   2.426   1.741   2.301 -0.0269  0.2273  0.2200
14098W        W30945  13.828  19.358   1.668  0.1902 -0.1709  0.0902
14099W        W30946  14.396  10.909   4.308 -0.0779  0.1049  0.4073
14100W        W30947   5.421  13.094   3.978  0.1611  0.3379 -0.5550
14101W        W30948  17.100   2.251  12.985 -0.1959 -0.0246  0.0220
14102W        W30949  11.785   2.055  10.329  0.2288 -0.3197  0.2634
14103W        W30950   7.374   3.063   8.885 -0.3842 -0.0178 -0.2979
14104W        W30951   6.255  10.198   1.394 -0.0216 -0.2267 -0.0598
14105W        W30952   7.093   6.665   4.434 -0.0409  0.1598  0.1978
14106W        W30953  19.666   5.419  11.079 -0.2554 -0.0257 -0.1032
14107W        W30954  13.716  12.532   5.186 -0.0377 -0.0954  0.1933
14108W        W30955   0.855  14.519   1.707 -0.1784  0.1486  0.1363
14109W        W30956  14.476   1.611   9.840 -0.0107 -0.3272  0.1689
14110W        W30957  10.409   7.026   4.216 -0.2497  0.0155  0.2988
14111W        W30958  16.253   2.076   0.820  0.2109  0.2817  0.1912
14112W        W30959  19.470   8.956   3.361  0.0451 -0.0944  0.0018
14113W        W30960   2.323  18.264   3.927 -0.1762 -0.1644 -0.1130
14114W        W30961   7.255   1.750  13.046 -0.1109  0.2030  0.0449
14115W        W30962  11.655  15.582   4.733 -0.1873 -0.3913 -0.1405
14116W        W30963  10.840   8.500  12.323  0.0327  0.1486 -0.0833
14117W        W30964  11.360  19.871  11.504 -0.1241  0.3398  0.2858
14118W        W30965  10.841   6.157  10.269 -0.1441 -0.3082 -0.1573
14119W        W30966  18.204  12.667   3.690 -0.1889  0.0432 -0.2768
14120W        W30967  14.786   7.966   2.298 -0.0512 -0.2200 -0.0651
14121W        W30968  10.511   6.356   1.631  0.2153  0.2393 -0.2330
14122W        W30969  18.327   7.426  11.658  0.2082 -0.0390 -0.0239
14123W        W30970   7.720  19.460   0.004 -0.3987 -0.2291 -0.0587
14124W        W30971   0.862   0.946  12.682  0.1320 -0.1233 -0.0537
14125W        W30972  12.617  17.571   2.932  0.0152 -0.3114 -0.0469
14126W        W30973   0.973   3.744  13.047 -0.0170 -0.0088  0.2305
14127W        W30974   0.179  10.140   9.658 -0.3834  0.1346  0.1591
14128W        W30975  19.042   9.760   0.484 -0.0811 -0.0366  0.2517
14129W        W30976  13.997  15.175   0.479  0.2096  0.0427  0.0512
14130W        W30977  13.156   6.629   0.902 -0.2756 -0.0851  0.0619
14131W        W30978   4.732   9.852   3.222 -0.0230 -0.1006 -0.2351
14132W        W30979   0.094  19.358  13.045 -0.0872 -0.1141  0.0639
14133W        W30980   4.528   8.274   1.190 -0.1657 -0.1830  0.3621
14134W        W30981   6.479  15.166   4.088  0.1682  0.0041 -0.3013
14135W        W30982   8.503  12.409   4.389  0.2934  0.2925  0.1920
14136W        W30983   9.899   4.359   1.074 -0.0850 -0.2357 -0.1749
14137W        W30984   3.098   2.612   4.277  0.1364  0.1399  0.0538
14138W        W30985   4.499   1.127   1.049  0.1288  0.0087  0.1999
14139W        W30986  10.724   4.191  12.327  0.3010 -0.0976 -0.1399
14140W        W30987  15.500  16.094   1.208 -0.2061  0.1311  0.1193
14141W        W30988  12.082  16.945   1.339  0.1517 -0.1609 -0.0767
14142W        W30989   8.362   9.655   4.209  0.0038  0.2461  0.1065
14143W        W30990   6.661  12.134   1.607 -0.0041  0.1430 -0.0777
14144W        W30991  17.269  18.557  10.599  0.2207 -0.1201  0.4492
14145W        W30992   3.073   0.111  10.555  0.2514 -0.1800  0.3034
14146W        W30993   7.825  16.807   1.936 -0.0985  0.3619 -0.3702
14147W        W30994  14.098  16.318  11.483 -0.3123  0.0635  0.1423
14148W        W30995  12.299   8.974  12.990 -0.0250 -0.2150 -0.0210
14149W        W30996   5.578  15.120   4.868 -0.1343 -0.1183  0.1152
14150W        W30997  14.626   3.278   0.626  0.1277  0.3129 -0.0130
14151W        W30998   5.517   3.071   3.963  0.1321 -0.2016 -0.0821
14152W        W30999  15.780  11.365   3.130 -0.1038 -0.3054 -0.4147
14153W        W31000  18.905  17.280   3.140  0.1292 -0.0427  0.0013
14154W        W31001  14.395  10.074   4.789 -0.3533 -0.2664  0.0195
14155W        W31002  14.127   3.826   1.288 -0.0749  0.0431 -0.0946
14156W        W31003  17.589  14.719   4.167 -0.5042  0.3091  0.0202
14157W        W31004  14.312  11.472   3.329 -0.1565 -0.0508 -0.0743
14158W        W31005   0.999   6.379  11.887  0.0565  0.1049 -0.2523
14159W        W31006  11.465   3.570  10.387 -0.3200  0.1957 -0.0491
14160W        W31007  18.315   8.892  13.342  0.2249 -0.0915 -0.1083
14161W        W31008   0.318   3.449  11.194 -0.1871  0.1322  0.0828
14162W        W31009  13.128  11.842  11.280 -0.2376  0.3063 -0.2312
14163W        W31010  17.587  12.080  11.736  0.0819 -0.1651 -0.3178
14164W        W31011   3.650   8.781   4.310  0.1700 -0.1667  0.1453
14165W        W31012  16.391   3.914  10.471  0.1386  0.0338  0.1099
14166W        W31013  19.084  10.545   4.489 -0.0059 -0.1552 -0.3321
14167W        W31014   0.176   8.101   3.876 -0.2135  0.1925 -0.1286
14168W        W31015  17.715  11.341  12.681 -0.0447 -0.3003 -0.0880
14169W        W31016   3.290  13.236  12.453 -0.3480 -0.1274  0.0672
14170W        W31017  12.153  19.534   0.815  0.0171 -0.1090 -0.0386
14171W        W31018  10.982   6.105  11.074 -0.0505 -0.0799 -0.2925
14172W        W31019  19.329   8.022   0.334 -0.1503 -0.0655  0.2813
14173W        W31020  11.008  14.577   0.956  0.1763 -0.1482 -0.3018
14174W        W31021  14.302  16.683   3.989  0.0890 -0.1097 -0.0146
14175W        W31022   1.537   8.725  12.569  0.2829 -0.2276  0.2879
14176W        W31023   7.746   8.370   3.128  0.0090 -0.2353 -0.3571
14177W        W31024   8.630  11.234   2.782  0.0183  0.0411  0.1352
14178W        W31025  13.338   7.171   9.975  0.2811  0.0300  0.2098
14179W        W31026  13.988   9.143  14.314 -0.1384 -0.0777  0.1215
14180W        W31027   6.443   5.677  10.172 -0.1271 -0.0407 -0.1538
14181W        W31028  16.930  17.598  10.438 -0.0520  0.1762 -0.0793
14182W        W31029   5.660   6.228   5.065 -0.3853 -0.0970 -0.1224
14183W        W31030  18.736  15.762   1.231  0.1580 -0.0153 -0.1421
14184W        W31031   8.739  10.155  13.726  0.0047  0.0689  0.4126
14185W        W31032  11.697  13.604  12.414 -0.0080 -0.1874  0.3287
14186W        W31033   0.400   1.755  14.246 -0.3261 -0.3857  0.2649
14187W        W31034   8.171   0.364   4.042 -0.4100  0.0792 -0.1261
14188W        W31035   8.483  16.658  12.875  0.2961  0.0754  0.2360
14189W        W31036  13.344   7.568  12.277 -0.1575 -0.2152  0.2769
14190W        W31037   5.086  17.926   3.822  0.2730  0.0583 -0.1454
14191W        W31038   3.069  14.003  11.388  0.1982 -0.0039  0.3831
14192W        W31039   2.741   6.158  10.342  0.1573  0.4007 -0.0020
14193W        W31040  10.847  19.005   5.108  0.0805 -0.3795  0.3810
14194W        W31041  11.200  19.808   4.736  0.2447  0.1863  0.1904
14195W        W31042   4.299  17.867  12.068 -0.0819 -0.2184  0.0775
14196W        W31043   9.635   3.547  14.112  0.1972 -0.2673  0.1455
14197W        W31044  15.682  17.239  11.238  0.1604 -0.2145 -0.2771
14198W        W31045   6.745  15.761   1.158 -0.2192 -0.1797  0.0176
14199W        W31046   0.207  12.477   2.764 -0.2028  0.0045  0.1498
14200W        W31047  14.681  19.561   0.742  0.0930  0.2598  0.0765
14201W        W31048   6.537  10.697  11.452  0.1929 -0.0073 -0.1007
14202W        W31049   1.476  15.612  14.246 -0.0295  0.0503 -0.1520
14203W        W31050   9.873  19.798   4.313 -0.1353  0.2202  0.1152
14204W        W31051  13.075   8.856  13.974  0.1477  0.0451 -0.0502
14205W        W31052  13.855   7.550  13.983 -0.1434 -0.2100  0.0629
14206W        W31053   5.545   8.158   1.496  0.0580  0.1226  0.0523
14207W        W31054   9.305   7.977   2.331 -0.1313  0.0961 -0.0665
14208W        W31055  12.369   7.984   2.361 -0.0994  0.1609 -0.4005
14209W        W31056  16.120   4.594  12.537  0.3756  0.0682 -0.2511
14210W        W31057   1.595   4.374  12.594  0.3134  0.1179 -0.3794
14211W        W31058   1.395   9.624   2.463 -0.2760 -0.0259  0.0805
14212W        W31059   3.276  11.973  14.310  0.0628  0.2534  0.1070
14213W        W31060  14.116   3.870   1.822  0.1659 -0.1493  0.4275
14214W        W31061  17.519   3.966   2.309  0.1808  0.1613  0.0875
14215W        W31062   3.916  14.836   2.403 -0.3992 -0.0887 -0.2113
14216W        W31063  12.298  16.284  14.168  0.2002  0.0067 -0.1733
14217W        W31064  17.106  11.777  10.756 -0.1471  0.2287  0.0839
14218W        W31065   2.168  12.205  13.884 -0.0636 -0.3503 -0.2927
14219W        W31066  19.406   6.954  12.670  0.0635 -0.1732  0.1411
14220W        W31067   4.298   8.499   3.310 -0.1107 -0.2847  0.0251
14221W        W31068   2.985  14.468   2.143  0.2014  0.1288  0.0652
14222W        W31069   2.539   7.859  11.730  0.1518  0.1426 -0.2652
14223W        W31070   2.261  15.071   3.249 -0.1076  0.4725 -0.1042
14224W        W31071  18.906  10.763  10.118  0.3353 -0.3744  0.1237
14225W        W31072  10.351  16.045  12.170 -0.0958 -0.2869  0.2583
14226W        W31073   2.929  11.672   0.428  0.0567 -0.1969  0.1810
14227W        W31074  19.733   7.719   4.178 -0.2395  0.2057 -0.0254
14228W        W31075   5.443  19.749  10.836  0.1880  0.1034  0.1281
14229W        W31076  12.193   5.336   4.743  0.1422  0.3320  0.4296
14230W        W31077   0.638   8.746   0.569 -0.0524 -0.2846 -0.5205
14231W        W31078   7.651  11.541  12.030  0.0858  0.0101 -0.2095
14232W        W31079   0.687  13.777   3.327  0.0298 -0.0962 -0.0913
14233W        W31080   0.644  17.944   4.894  0.2249  0.1611 -0.1367
14234W        W31081  16.286   0.288  12.711  0.2870  0.1046 -0.1719
14235W        W31082  13.875   6.844  10.273 -0.0850 -0.3685 -0.0497
14236W        W31083   0.181  17.134   3.647  0.2225  0.0756 -0.2595
14237W        W31084   4.995  14.852   0.092  0.0792  0.0151 -0.1234
14238W        W31085   8.338  10.006   1.041  0.0980 -0.1712  0.0176
14239W        W31086   5.556  18.110   3.879  0.0224 -0.1675  0.5360
14240W        W31087   7.595   4.915   8.772  0.1934  0.1004  0.1726
14241W        W31088  13.538   1.369   9.989 -0.2325  0.3782 -0.2632
14242W        W31089   4.974   9.551   1.240  0.3286 -0.0634 -0.1073
14243W        W31090  15.858   3.478  11.603 -0.0433  0.0406 -0.1488
14244W        W31091   9.102  17.375  12.777 -0.0906 -0.0368  0.2861
14245W        W31092   0.392   2.114  10.390  0.0556  0.0867  0.0274
14246W        W31093  15.058   2.518  12.840  0.2809 -0.0511  0.1728
14247W        W31094  12.245  15.094  11.896  0.0256 -0.3800  0.3824
14248W        W31095  12.479   8.967  14.002  0.1856 -0.3427  0.2324
14249W        W31096   6.283  16.238  13.093 -0.1332  0.1626  0.1483
14250W        W31097  17.018   7.751   1.384  0.1269 -0.0817 -0.0140
14251W        W31098   5.153   0.688   1.455 -0.1831  0.1639  0.1634
14252W        W31099  14.642   0.434   4.709  0.0217 -0.0470  0.3233
14253W        W31100  15.449  16.738  13.766 -0.0754  0.0032 -0.2410
14254W        W31101  11.295  14.572   3.403 -0.2708  0.0087 -0.1460
14255W        W31102   6.696  18.172   5.197  0.0707 -0.1182  0.1962
14256W        W31103  12.979   0.433   2.143 -0.0221 -0.0061  0.0681
14257W        W31104  12.024  13.040  10.384  0.0425 -0.1669 -0.1100
14258W        W31105   9.903   4.217   3.386  0.0816 -0.0646  0.3279
14259W        W31106   3.412   5.924  13.742  0.0488 -0.2406  0.1173
14260W        W31107   9.308  19.395   3.397  0.1310  0.0217 -0.1177
14261W        W31108   6.436   3.418   3.067  0.1174  0.2597  0.1604
14262W        W31109   2.586   5.401   4.210 -0.0079 -0.2374  0.0459
14263W        W31110  10.133   9.014  12.354  0.5446  0.2067  0.0092
14264W        W31111   5.700   9.468  13.511 -0.1119 -0.0333 -0.0717
14265W        W31112   9.968   1.582   4.713 -0.2086 -0.4175 -0.0557
14266W        W31113  14.871  18.822   2.836  0.0103  0.1112 -0.1487
14267W        W31114   6.969  18.959  13.787  0.1525  0.3865 -0.1701
14268W        W31115  11.230  17.011   0.562 -0.2460 -0.1140  0.0424
14269W        W31116  14.085   6.307   3.041 -0.3228 -0.0065 -0.1444
14270W        W31117   0.197   0.578   4.829 -0.0004  0.1637  0.0927
14271W        W31118  15.727   1.706  11.277 -0.1565 -0.1495 -0.1791
14272W        W31119  14.302  18.680  10.717  0.2699  0.0187  0.0127
14273W        W31120  13.087   4.587  12.965  0.1928  0.0544  0.0149
14274W        W31121  16.500   1.357   3.707  0.2771  0.1539 -0.1376
14275W        W31122  18.412  19.203  12.969  0.5024 -0.3030 -0.0311
14276W        W31123  19.480   5.354  10.521 -0.3269 -0.2027  0.2497
14277W        W31124   8.806  15.574  11.402  0.1294 -0.2872  0.0980
14278W        W31125   8.296  13.893   9.467 -0.0802 -0.1591  0.1163
14279W        W31126  11.946  16.161  13.255 -0.2146  0.1486  0.1313
14280W        W31127  12.061  14.115   1.319 -0.2711  0.1839 -0.2753
14281W        W31128   6.463  14.530   4.309 -0.0388  0.0707  0.0289
14282W        W31129  18.474  10.922  11.478  0.1701 -0.0105  0.1132
14283W        W31130  10.753   2.265   9.914  0.2111 -0.0772  0.0612
14284W        W31131  14.821   1.511  10.792  0.1947  0.6127  0.1158
14285W        W31132  12.796   4.689  11.073 -0.1199 -0.2282  0.0759
14286W        W31133   6.290  19.839   4.127  0.0574  0.0612  0.0275
14287W        W31134  16.725  13.411   0.325 -0.0111 -0.2939 -0.4022
14288W        W31135   8.257   0.539  12.719 -0.3655  0.2602  0.2124
14289W        W31136  11.224   2.866   2.133  0.0358 -0.1933  0.1405
14290W        W31137  12.743   3.841  10.424  0.2285 -0.1185 -0.2719
14291W        W31138   2.428  12.277  11.319  0.2687 -0.0288  0.0946
14292W        W31139  11.276  17.040   2.885 -0.2000 -0.1902 -0.1373
14293W        W31140   9.462  13.715  13.557 -0.0321 -0.1051  0.0200
14294W        W31141  10.048   8.178  13.737 -0.3967 -0.1951 -0.3508
14295W        W31142   8.284   4.256   1.315 -0.0449  0.1047 -0.2728
14296W        W31143   7.794  13.314   0.905 -0.0142  0.1269 -0.0413
14297W        W31144  11.250   6.138  10.558  0.2582  0.0683 -0.1751
14298W        W31145  10.999  18.562   2.215  0.0964  0.1181  0.0019
14299W        W31146   4.901   6.673   0.358  0.3709 -0.5560  0.1546
14300W        W31147  11.288  12.948  12.373  0.2571 -0.3040 -0.0815
14301W        W31148  17.479   5.114  11.203 -0.1892 -0.1752 -0.0928
14302W        W31149  18.455  14.765  10.514  0.4055  0.2605  0.0193
14303W        W31150   9.082  14.250  13.745 -0.0816  0.2749  0.0006
14304W        W31151   2.868  19.753  13.678 -0.0397 -0.2088 -0.0895
14305W        W31152   0.640  16.890   0.091  0.1502 -0.0801 -0.1391
14306W        W31153  10.253   2.277  10.670 -0.2779  0.2719  0.4027
14307W        W31154   4.172   1.855  10.981 -0.2788 -0.0173  0.2287
14308W        W31155  11.747  12.174  10.839  0.1863  0.1105 -0.0315
14309W        W31156   3.106  13.307   4.292  0.2986  0.1298 -0.2630
14310W        W31157  11.564  13.849   2.721 -0.2536  0.0199  0.1376
14311W        W31158   4.379  19.225  13.612  0.2767  0.0798  0.0418
14312W        W31159  14.270  12.157   1.550 -0.0475  0.2624  0.0652
14313W        W31160   2.999   5.013   4.188 -0.2345 -0.1015 -0.3067
14314W        W31161  11.956   3.543   3.905  0.2015  0.2028 -0.0050
14315W        W31162   0.161  14.575   2.387 -0.0075 -0.0153 -0.3488
14316W        W31163   1.304   5.801   1.759 -0.0505  0.1277 -0.0111
14317W        W31164  11.062   7.049   2.274 -0.2177 -0.1125 -0.3141
14318W        W31165  16.750  17.638   1.736  0.1665 -0.2410 -0.1177
14319W        W31166  14.773   6.957   9.413  0.0094 -0.0651 -0.0587
14320W        W31167  16.997   1.332  11.349  0.0454 -0.2843 -0.1259
14321W        W31168  17.987   9.960   4.378  0.5618  0.1419  0.0169
14322W        W31169  14.418  17.487   1.217 -0.0559 -0.0180 -0.3381
14323W        W31170  11.799   0.140   0.368 -0.1823  0.0615 -0.1360
14324W        W31171  15.524   1.607  13.554  0.2446 -0.4709  0.0967
14325W        W31172   1.927  14.296  12.085  0.1486 -0.2997  0.1310
14326W        W31173  13.041  17.609  11.329  0.0013  0.0554  0.1220
14327W        W31174  12.533   7.678   1.906  0.2151 -0.0843  0.0327
14328W        W31175  10.332   8.210  10.673 -0.0969 -0.2422 -0.2140
14329W        W31176   2.793   3.662  13.013 -0.1046  0.3047 -0.1890
14330W        W31177   9.989   4.337   2.356  0.0119 -0.1416  0.2734
14331W        W31178   9.711  17.533  14.264 -0.4090 -0.1880 -0.0666
14332W        W31179  13.012  10.395  13.467 -0.0825  0.1772  0.1065
14333W        W31180   1.659   1.717   2.198 -0.1053 -0.1532 -0.4275
14334W        W31181  10.041   6.989   2.217  0.2883 -0.1478  0.2528
14335W        W31182   8.040  17.856  10.651  0.0683  0.0241 -0.0416
14336W        W31183   3.518  14.289   0.223 -0.0074 -0.0431  0.0653
14337W        W31184  15.154  16.240   3.163  0.0280 -0.1145 -0.1540
14338W        W31185   0.749  16.895   9.138 -0.0884  0.0375 -0.2452
14339W        W31186   5.633   5.889   4.640 -0.0267  0.1703  0.1484
14340W        W31187   8.760   4.029  13.754 -0.0962  0.0463  0.2693
14341W        W31188   4.900  19.169   3.119  0.1118  0.1058 -0.0777
14342W        W31189  17.279  17.662  13.559  0.0211  0.0139  0.0956
14343W        W31190   7.673  17.389   3.184 -0.0878 -0.0342  0.1804
14344W        W31191   5.400   6.898   0.310 -0.2225  0.1511  0.0128
14345W        W31192   0.548   0.349   3.909 -0.4568  0.1523  0.2158
14346W        W31193  10.044   4.779  10.648  0.0360  0.1161 -0.0047
14347W        W31194  11.321   4.102   3.574 -0.2777 -0.0027 -0.0350
14348W        W31195   6.804   6.263   2.951 -0.2193 -0.0287 -0.2515
14349W        W31196  12.563   4.119   3.049 -0.0143 -0.2260 -0.2489
14350W        W31197  16.430   3.301   3.626  0.1743  0.0733 -0.0871
14351W        W31198  16.091   0.144   4.074 -0.0724  0.2795  0.3508
14352W        W31199   5.840  14.181  11.398  0.3214 -0.1416 -0.2639
14353W        W31200  10.608   1.557   0.383 -0.1315  0.0983 -0.1447
14354W        W31201  16.209   3.638  12.757  0.1147 -0.0607  0.0256
14355W        W31202  14.090   5.620  10.510 -0.1232 -0.0540 -0.1768
14356W        W31203   2.030  18.102   3.576  0.0710 -0.1747 -0.2849
14357W        W31204   0.718   9.343  13.239  0.0497  0.1568  0.2760
14358W        W31205   9.149   6.678   3.649 -0.2764 -0.2597 -0.2139
14359W        W31206  16.409  13.269  12.722 -0.0316 -0.1381  0.4248
14360W        W31207   5.323   8.192   3.073 -0.1686  0.1289 -0.1764
14361W        W31208   4.789  12.911   3.253 -0.0498  0.1142  0.0541
14362W        W31209  15.897  12.753  11.665  0.2598  0.3567  0.3282
14363W        W31210  15.876   0.804   2.245 -0.4197 -0.0698  0.1353
14364W        W31211  16.646   6.347  14.331  0.1784  0.2966 -0.1404
14365W        W31212   5.052  10.214   5.071  0.0827  0.2309 -0.5768
14366W        W31213  19.851   1.541   2.737  0.0052 -0.0641 -0.0681
14367W        W31214   6.189   8.364  12.288  0.3293  0.0460 -0.3966
14368W        W31215   7.121   3.019   0.052  0.1524  0.0513 -0.0772
14369W        W31216  17.070  18.119  13.595 -0.0045 -0.1892 -0.2459
14370W        W31217   7.908  19.385   3.031  0.1755 -0.0539 -0.0923
14371W        W31218  13.505  16.774   2.333  0.0517  0.0954  0.1283
14372W        W31219   9.404   0.351   4.437 -0.0872  0.1783 -0.0954
14373W        W31220   9.397  18.108   3.402 -0.2635  0.3130 -0.0326
14374W        W31221  15.724  19.531   2.931 -0.2222 -0.0291  0.0431
14375W        W31222   6.382   3.195  13.725  0.2919 -0.1744  0.2419
14376W        W31223   3.892  16.768   0.085 -0.0356 -0.2187 -0.4268
14377W        W31224   8.534  10.302  11.029 -0.3672 -0.1457  0.2398
14378W        W31225   1.557  14.196   2.137 -0.5043 -0.1392 -0.3367
14379W        W31226  13.340  18.346   1.156 -0.0488 -0.2923  0.2773
14380W        W31227   7.560   8.621   2.629 -0.1068 -0.2354 -0.1410
14381W        W31228  15.294  17.634   2.832 -0.0283 -0.2566 -0.1140
14382W        W31229  17.955   2.660   0.428  0.0784 -0.0630  0.1773
14383W        W31230   8.432  13.966  11.053  0.1534  0.1235 -0.1483
14384W        W31231  18.777  11.141  10.614 -0.1446 -0.0494  0.1972
14385W        W31232  16.161  19.766  11.513 -0.3967  0.0634 -0.2228
14386W        W31233  11.531   3.531  11.060  0.0962 -0.0855 -0.1162
14387W        W31234   3.882  12.562   1.772  0.1316  0.0601 -0.1001
14388W        W31235   9.210   1.756   2.412  0.2096  0.0794 -0.0394
14389W        W31236  15.373  13.494  14.170 -0.2776  0.0851 -0.1654
14390W        W31237   0.682  14.686   3.984 -0.1679  0.3252 -0.0840
14391W        W31238  11.614  19.635   0.662 -0.0961 -0.0052  0.3297
14392W        W31239  17.481  17.491  13.941  0.2629  0.2690 -0.1170
14393W        W31240   0.370  11.613   2.357 -0.4301 -0.2823  0.1085
14394W        W31241  11.772   4.747   4.852  0.0628 -0.0660  0.0860
14395W        W31242  13.391  13.389  12.939  0.1067 -0.1375 -0.0693
14396W        W31243   1.221   6.098   1.307 -0.4972 -0.3401  0.0936
14397W        W31244  17.662   7.650  10.305  0.1747  0.1297 -0.2494
14398W        W31245  17.585  10.368   0.783  0.2791  0.0867  0.2790
14399W        W31246   4.233  12.245  14.272  0.0947  0.3699  0.0764
14400W        W31247  17.900   0.270   5.488 -0.0754  0.1852 -0.0904
14401W        W31248   2.354  16.188   0.009 -0.2562  0.1360  0.0259
14402W        W31249  16.496   4.188   1.697  0.2037  0.0738 -0.2193
14403W        W31250   5.932  17.428  11.819  0.0132  0.2287  0.0871
14404W        W31251  17.695  12.831   1.774  0.0958 -0.3374  0.0076
14405W        W31252   5.069  15.416  12.767  0.0784  0.1217  0.1119
14406W        W31253   9.529  13.260   0.368 -0.2608  0.3139  0.0408
14407W        W31254  19.014  11.780  12.781 -0.0567  0.1026 -0.1060
14408W        W31255   7.194  17.871   9.557 -0.0273 -0.0664 -0.2721
14409W        W31256   1.859   9.700  10.566  0.1122  0.2032  0.0173
14410W        W31257  11.339   7.745  11.408  0.1577  0.1394  0.1447
14411W        W31258   8.169   8.425   2.398  0.0861 -0.0143  0.1203
14412W        W31259   8.903  14.812   0.134  0.0715 -0.0580  0.2269
14413W        W31260   0.098  11.492   3.611  0.4901 -0.0894 -0.1921
14414W        W31261  13.923  18.085   4.277  0.0458  0.0149 -0.0940
14415W        W31262   1.693  15.697   2.052 -0.0665 -0.2914 -0.0946
14416W        W31263  16.502  13.198   3.902 -0.1110  0.1399 -0.1225
14417W        W31264   3.921  12.054   5.901  0.1522 -0.0061 -0.2268
14418W        W31265   2.560  15.630   2.145 -0.3362 -0.3544  0.0076
14419W        W31266  14.052   0.069   3.196  0.1122 -0.0010  0.0088
14420W        W31267  11.085  13.969  10.501  0.1255 -0.0365 -0.2005
14421W        W31268   9.684   6.664   0.014 -0.4229 -0.2677 -0.0420
14422W        W31269   6.306   3.335  13.210 -0.0852 -0.0816 -0.0044
14423W        W31270  13.946   8.014  12.352 -0.3600 -0.0959  0.2199
14424W        W31271   4.394  18.317   1.018  0.2039 -0.3221  0.1066
14425W        W31272  11.705  14.363   5.000 -0.0443  0.0022 -0.1725
14426W        W31273  12.178  12.343   1.512  0.1786  0.0131 -0.2300
14427W        W31274   4.554  16.369  11.651  0.1508 -0.1009 -0.0618
14428W        W31275   2.995   4.433   2.375  0.0237  0.3144 -0.0352
14429W        W31276  19.745  17.750  10.508  0.0682 -0.1698 -0.0094
14430W        W31277   2.080   7.402  14.130  0.0346  0.0024  0.2978
14431W        W31278  16.438   4.606   3.124 -0.0292 -0.3295 -0.0884
14432W        W31279  12.385  10.474  10.874 -0.0461  0.1619 -0.0774
14433W        W31280   7.813  17.260   2.321 -0.2292  0.1535  0.1535
14434W        W31281   1.136   3.650  12.162  0.2337  0.0740  0.2131
14435W        W31282  10.563  17.677   0.489 -0.0761 -0.0236 -0.0848
14436W        W31283  18.370   0.885   0.408 -0.3467 -0.1580  0.2876
14437W        W31284   2.275  11.462   2.603 -0.1859 -0.0789 -0.0852
14438W        W31285  16.479   1.857   4.346  0.3433 -0.1940 -0.0114
14439W        W31286  15.163   3.516   0.142  0.2644 -0.1203 -0.2698
14440W        W31287  17.521  18.225   4.396  0.3431 -0.0553  0.0213
14441W        W31288  10.975  12.956  12.010 -0.2033  0.1172 -0.1619
14442W        W31289  14.796  17.917   1.895 -0.2164  0.1768  0.0655
14443W        W31290   8.465  15.823  13.709 -0.1848  0.0192 -0.0785
14444W        W31291  10.599   4.393   3.347 -0.0710  0.1227  0.4182
14445W        W31292  14.724   8.479  12.483 -0.1043 -0.0781  0.0074
14446W        W31293  15.154   4.164   3.247  0.4221  0.1456  0.0327
14447W        W31294   7.628  11.852   4.862 -0.0528  0.2906 -0.2097
14448W        W31295  17.000  18.468  12.273  0.2572 -0.2237 -0.0149
14449W        W31296  13.834  13.834   3.324 -0.5628 -0.2723  0.1088
14450W        W31297  15.134   7.243   1.960  0.0925  0.3466  0.1981
14451W        W31298  11.034  13.772  13.364  0.1088  0.5389  0.1724
14452W        W31299   0.597  17.431   1.391  0.1605  0.1147  0.0040
14453W        W31300   8.981  16.720   2.409 -0.0194  0.1419  0.0435
14454W        W31301   1.271   6.071  11.586 -0.2419 -0.0174  0.0031
14455W        W31302  17.935  10.890   3.157 -0.0794 -0.1007 -0.1978
14456W        W31303   8.667   9.816  12.348  0.4301 -0.3864 -0.0968
14457W        W31304  11.784  16.836  14.105  0.3267 -0.1713  0.0929
14458W        W31305  17.126   0.162  10.316  0.0228  0.1684 -0.4315
14459W        W31306  18.882  18.853  10.822  0.1102 -0.0664  0.1519
14460W        W31307   0.686   3.972   9.722  0.0865  0.1690 -0.0165
14461W        W31308   5.239  16.577   5.105 -0.0130 -0.1916 -0.0705
14462W        W31309  15.638   1.860  13.014 -0.0737  0.0989 -0.0410
14463W        W31310  16.187   2.126  11.960  0.0243  0.3460 -0.2353
14464W        W31311  10.504   4.265  11.222  0.0300 -0.1849  0.0079
14465W        W31312   8.180  14.959  11.297  0.0976 -0.0626  0.2533
14466W        W31313  15.227  13.018  13.321 -0.4214  0.0022 -0.3312
14467W        W31314   6.723  13.359  10.802 -0.5743  0.1020  0.0809
14468W        W31315   9.612  17.491   4.730  0.2363 -0.0028  0.1206
14469W        W31316  18.854   5.409  13.261 -0.0451  0.2198  0.0477
14470W        W31317  15.158   4.404   0.607  0.4543  0.2660 -0.0786
14471W        W31318   9.630  12.798   0.556  0.0264 -0.2978  0.0187
14472W        W31319   2.486  17.549   5.768  0.0173  0.3014 -0.1047
14473W        W31320   1.210   0.542  11.049  0.0101 -0.2581  0.1315
14474W        W31321   8.075   1.286  11.590 -0.1240 -0.1864  0.0208
14475W        W31322  18.890  17.808  10.283 -0.0014  0.0987  0.3541
14476W        W31323   9.338   9.814  11.775  0.0443 -0.0735  0.0037
14477W        W31324   4.038  18.959  13.380 -0.0890  0.0377 -0.0706
14478W        W31325  18.120  12.862  13.670 -0.3367 -0.0356  0.0054
14479W        W31326  19.601  16.077  12.778 -0.2464  0.0688 -0.1294
14480W        W31327  16.423  17.339   0.780  0.0036 -0.3275  0.1311
14481W        W31328   1.526   8.498  11.374  0.1223 -0.2201  0.0837
14482W        W31329   5.743   2.085   4.884 -0.0461 -0.0259 -0.1974
14483W        W31330  13.642   7.668   1.711 -0.0395 -0.0336  0.1354
14484W        W31331   3.704   0.255   3.044  0.0339  0.0063  0.5438
14485W        W31332  10.230  14.862   2.183 -0.3184  0.1840  0.1792
14486W        W31333   7.748   5.966  13.679  0.4055 -0.3583  0.0479
14487W        W31334  17.705   3.087  11.922 -0.1854  0.1374 -0.1538
14488W        W31335   1.210  14.284   0.452 -0.0826 -0.2672  0.1023
14489W        W31336   8.193  13.951   9.955  0.1026 -0.0788  0.2724
14490W        W31337   0.831   9.834  14.060  0.3689  0.0935 -0.1478
14491W        W31338   1.115   6.819  14.176  0.3997 -0.1023 -0.1097
14492W        W31339  12.968  18.091  11.325 -0.1803 -0.0778  0.1786
14493W        W31340  17.458  11.821   2.204  0.0332  0.1208 -0.2822
14494W        W31341   0.039   3.542  12.177  0.1776  0.1886 -0.2480
14495W        W31342  10.135  17.191   2.941  0.5961  0.2086 -0.0821
14496W        W31343   1.559   0.890   0.012  0.5028  0.2528 -0.1394
14497W        W31344  19.302   4.487   0.561  0.0115  0.2103 -0.0159
14498W        W31345   5.338  19.800   2.206  0.3873 -0.0199 -0.2476
14499W        W31346   0.866   7.440  10.773  0.3163  0.1303  0.0247
14500W        W31347   8.801   4.762   3.565 -0.0158 -0.2674  0.3486
14501W        W31348  14.212   2.748   0.854 -0.0887  0.1628  0.1475
14502W        W31349  12.259   0.718  12.570  0.0652 -0.1349  0.0633
14503W        W31350  14.862   6.477  10.491 -0.1061  0.3623 -0.0720
14504W        W31351  12.134  12.227   3.980  0.1997  0.2656 -0.0212
14505W        W31352  18.662   1.582   3.275 -0.0924  0.0964  0.0990
14506W        W31353  14.825   3.352  13.466 -0.0766 -0.0776 -0.0374
14507W        W31354   3.250  16.446   0.948  0.2278 -0.0481 -0.1806
14508W        W31355   2.642   4.411   3.546  0.0553 -0.3483  0.2250
14509W        W31356  11.785  18.186   9.297  0.0050 -0.1142 -0.2413
14510W        W31357  19.758   7.401  12.348 -0.2555 -0.0617  0.1037
14511W        W31358  18.344   8.881   2.008  0.2806 -0.0218  0.0822
14512W        W31359  10.040  14.996   1.039 -0.0660  0.1128 -0.1146
14513W        W31360   6.305   9.347  14.161 -0.0319  0.0672 -0.1530
14514W        W31361  10.652  12.059   0.795 -0.4195  0.2141 -0.2724
14515W        W31362   2.236   1.095  13.379 -0.0637 -0.0719  0.2087
14516W        W31363  18.994  13.967  13.589 -0.2743  0.0278  0.0092
14517W        W31364   3.250   1.713  10.931  0.0443  0.0414 -0.1211
14518W        W31365   9.041  15.265  13.905  0.1693 -0.0822  0.0477
14519W        W31366  11.915   7.814   1.307  0.0564 -0.1417 -0.0436
14520W        W31367   2.706   2.641   4.884 -0.2485  0.5527 -0.1108
14521W        W31368   7.127  15.913  12.709  0.3278  0.1495  0.0502
14522W        W31369  14.210   4.113   0.359  0.2307  0.2123  0.0460
14523W        W31370  13.606  11.849   3.643 -0.0636 -0.2015  0.0292
14524W        W31371  18.595   3.230  11.427  0.3668  0.0227 -0.3901
14525W        W31372   7.676  15.937   2.478 -0.3064  0.3045  0.0010
14526W        W31373   2.349   0.687   1.299 -0.0919 -0.2958  0.0340
14527W        W31374   8.751   2.907  12.256 -0.1185 -0.0301  0.0944
14528W        W31375  17.129   1.109   2.643  0.1199 -0.0689 -0.0943
14529W        W31376  11.569   8.010  13.257 -0.2413 -0.0756  0.1390
14530W        W31377   3.931   2.877  10.112 -0.3159  0.2509  0.0988
14531W        W31378  11.839   0.390  13.950 -0.3475  0.0409 -0.2890
14532W        W31379   1.641  11.082   0.530 -0.2133 -0.2934  0.0129
14533W        W31380   2.209  17.481   0.822 -0.0253  0.2675 -0.1599
14534W        W31381  13.213  14.335   9.278 -0.1266 -0.0029  0.0666
14535W        W31382   8.962   1.371   0.061  0.0109 -0.4092  0.0810
14536W        W31383   3.648   9.857   1.429  0.1446  0.0467 -0.2506
14537W        W31384  16.927   3.284  13.170 -0.0667 -0.2160 -0.0696
14538W        W31385   8.933  19.628   3.140 -0.0174  0.3284  0.0626
14539W        W31386   2.637  12.074  13.781  0.0788  0.0441 -0.1724
14540W        W31387  15.025  17.939   2.334 -0.1902  0.0416  0.0071
14541W        W31388  18.998  19.820  13.837  0.1336  0.2812 -0.2596
14542W        W31389   9.248   1.828  11.998 -0.3491  0.1909  0.2024
14543W        W31390   8.822   6.848   2.792 -0.0960 -0.0946 -0.0832
14544W        W31391   9.499   0.423  12.109 -0.4583 -0.2537 -0.1900
14545W        W31392   4.820   3.146   2.730  0.0381 -0.1014  0.2139
14546W        W31393  18.361   2.048   1.937  0.3260 -0.2319 -0.2546
14547W        W31394  12.580   5.471   0.921  0.2431  0.0225  0.1866
14548W        W31395   4.417   3.968   0.115 -0.0389  0.1679  0.2582
14549W        W31396   2.933   6.025   3.941 -0.1624  0.0332  0.4161
14550W        W31397   8.304   4.350   1.838  0.0826  0.2062 -0.0895
14551W        W31398   9.056   3.817  11.331 -0.1609  0.0878  0.0476
14552W        W31399   1.225   3.394   9.456  0.2564  0.1325 -0.1059
14553W        W31400  12.369  17.189   1.728  0.0579  0.0117 -0.0706
14554W        W31401   6.687   2.738   1.383 -0.0380 -0.1763  0.0479
14555W        W31402  19.505  11.482  13.070 -0.1380  0.0762 -0.3464
14556W        W31403  19.456  13.422  11.420 -0.0635 -0.0900  0.1152
14557W        W31404   3.109   3.486  11.231 -0.1087  0.2213 -0.0267
14558W        W31405  16.677   4.469  13.277 -0.0247  0.2570 -0.1902
14559W        W31406   8.462  16.083   0.565 -0.1108  0.2608 -0.0158
14560W        W31407  16.191  18.056   0.310 -0.0665 -0.0994  0.0704
14561W        W31408   5.006   7.880   5.287 -0.0745  0.0756 -0.1057
14562W        W31409   6.230   6.748  11.595  0.1403 -0.0038  0.2425
14563W        W31410  17.618   8.038  12.315 -0.0302  0.0764 -0.1525
14564W        W31411   3.506   5.645   0.390  0.1812 -0.2996 -0.2366
14565W        W31412  13.694   3.846  10.687  0.1161  0.0431 -0.1646
14566W        W31413  12.068   3.992   3.111 -0.0156 -0.0176  0.2235
14567W        W31414   4.090   8.046   1.303 -0.3901  0.1480 -0.2199
14568W        W31415   6.042   0.276   9.793  0.0977  0.0758 -0.0193
14569W        W31416  17.585  12.776  11.404 -0.1928 -0.1376 -0.0196
14570W        W31417  11.830  18.329   3.541  0.2767  0.2475  0.0624
14571W        W31418  10.487   1.201   3.894 -0.2269 -0.1093 -0.1155
14572W        W31419  10.621  14.625   0.534  0.1948  0.2267 -0.4088
14573W        W31420   2.995  13.424   2.118 -0.0174  0.1331  0.3008
14574W        W31421   7.965  12.811  11.530  0.1303 -0.1070  0.2534
14575W        W31422   6.108  19.122  12.230  0.3309 -0.0269  0.3017
14576W        W31423   4.350   1.703   4.529  0.2426 -0.0031 -0.1952
14577W        W31424   1.710   9.514  14.325 -0.0568  0.0809  0.2643
14578W        W31425  11.079   2.362   2.554  0.0373 -0.3928  0.2223
14579W        W31426  11.314   6.135  13.645  0.0162  0.0799  0.1927
14580W        W31427  13.878   1.342   1.368  0.0448 -0.2601 -0.1417
14581W        W31428   5.805   7.192   2.497  0.3684  0.0411  0.0059
14582W        W31429  16.709   7.904  11.950 -0.0637  0.1008  0.1199
14583W        W31430  19.401   7.939  13.235  0.3552 -0.0942  0.0427
14584W        W31431  10.778   8.480   4.430 -0.1139  0.0373  0.0061
14585W        W31432   4.630   9.296   3.059  0.1676  0.0869 -0.0654
14586W        W31433  17.690   3.958   0.237  0.0912 -0.2056 -0.1976
14587W        W31434  10.554  10.532   4.326  0.0516 -0.1855 -0.0390
14588W        W31435  13.684  10.293  12.112 -0.1489  0.1670 -0.4465
14589W        W31436   1.916   3.655  13.290 -0.1847 -0.0175  0.0273
14590W        W31437   4.849   4.645  11.200 -0.0826 -0.0911 -0.0212
14591W        W31438   7.357  14.349  10.177  0.0010 -0.0084  0.1115
14592W        W31439  16.515  16.654   1.919  0.0580 -0.0293  0.0842
14593W        W31440   7.519   2.371   2.089  0.1777  0.0775 -0.2777
14594W        W31441   8.474  10.866   0.769 -0.3215  0.3226 -0.1418
14595W        W31442  11.142   6.846  14.043  0.0495  0.3786  0.2207
14596W        W31443   6.153  16.000  11.338  0.0611 -0.0579 -0.0695
14597W        W31444  10.668   9.304   1.992  0.1443  0.0060  0.0769
14598W        W31445   0.576  18.911   2.524  0.0044 -0.4586 -0.1828
14599W        W31446  17.119  19.531   2.085  0.1606  0.0445  0.3593
14600W        W31447  11.502  11.147  10.014  0.6505 -0.4761 -0.2282
14601W        W31448   1.068  19.532  10.716  0.4202 -0.0560 -0.1233
14602W        W31449  17.961  14.799   5.207 -0.1549  0.1369  0.0641
14603W        W31450   0.094   7.664   3.643  0.0624 -0.0216  0.2869
14604W        W31451  12.569   5.283  13.685 -0.0965 -0.0890  0.2072
14605W        W31452  10.699   6.741  13.445  0.1621  0.1914  0.3067
14606W        W31453  13.332  16.319   2.581 -0.0641 -0.0627  0.2254
14607W        W31454   8.517  17.940   1.252  0.0569  0.0591 -0.0461
14608W        W31455  14.259  11.275   1.881 -0.4512  0.3642  0.0649
14609W        W31456  15.946  16.586   3.770  0.4294  0.0809  0.0761
14610W        W31457   1.658  17.140  13.850  0.2899  0.1590  0.1752
14611W        W31458   2.018  12.872   4.252 -0.3173  0.3847  0.2099
14612W        W31459  16.908   1.997   0.426 -0.2740 -0.0337 -0.0410
14613W        W31460   9.830  11.726  11.185  0.0220 -0.1172 -0.0434
14614W        W31461  12.310   4.771   3.548  0.1528 -0.1418 -0.3464
14615W        W31462   8.478   8.292  14.000  0.1786 -0.1004 -0.1835
14616W        W31463   6.821   6.350   5.299 -0.0803 -0.0397  0.1543
14617W        W31464  13.996   7.142  10.634 -0.0710  0.0340 -0.0224
14618W        W31465  19.543   5.116   3.564  0.1234  0.3227 -0.1316
14619W        W31466  15.778  10.469   4.387  0.2948  0.1968  0.0492
14620W        W31467   9.651   9.694   4.472  0.1685 -0.0558  0.1396
14621W        W31468   5.700   4.019   4.440 -0.2458  0.2004  0.3687
14622W        W31469  16.295  14.425   8.988  0.2366 -0.0180  0.3258
14623W        W31470  15.715   3.916   4.129  0.1013  0.0688  0.1195
14624W        W31471  19.114   0.287   4.564  0.2790 -0.1505  0.1299
14625W        W31472  17.693  17.622   0.932 -0.2519 -0.0347 -0.0040
14626W        W31473  12.789   3.934   2.096 -0.0556 -0.0449 -0.1059
14627W        W31474   7.085   4.020  14.244  0.1918 -0.0535 -0.1802
14628W        W31475  17.689  17.387   0.489  0.0016 -0.1478 -0.1668
14629W        W31476  19.170  15.360  14.089  0.1111  0.0997  0.1241
14630W        W31477  17.565   1.126   3.721  0.0814 -0.2671  0.2953
14631W        W31478   3.194  16.009  10.469 -0.1721 -0.2306  0.0729
14632W        W31479  10.386  14.733   1.520 -0.0634 -0.2181 -0.1242
14633W        W31480  10.842   1.851   1.471 -0.0106  0.1710  0.0099
14634W        W31481   3.343   0.578   4.386  0.0253  0.0662 -0.0915
14635W        W31482  17.511   7.087   4.147 -0.1960  0.4079 -0.2509
14636W        W31483  15.226   9.065  12.547  0.2715 -0.4616  0.6721
14637W        W31484   1.586  10.279   0.422  0.2548  0.0905 -0.1333
14638W        W31485   3.995  19.386  10.319 -0.2571 -0.0589  0.0874
14639W        W31486  17.919   8.460   3.500  0.0562 -0.0783 -0.1917
14640W        W31487  15.813   9.099   0.170 -0.0061 -0.0917 -0.2140
14641W        W31488   3.034   9.303   0.277 -0.0848  0.1191  0.0507
14642W        W31489   5.078   5.077   5.411  0.1417  0.1894  0.1655
14643W        W31490   7.901  16.844  10.794 -0.5474  0.0691 -0.2071
14644W        W31491  13.523   8.233  12.985  0.0878 -0.0501 -0.1025
14645W        W31492   1.603  18.203  10.964  0.2021 -0.0058  0.2472
14646W        W31493   0.602  13.185   4.679 -0.1931  0.1962 -0.1142
14647W        W31494  17.217   4.078   3.555 -0.0875 -0.3666 -0.1893
14648W        W31495  13.711   4.284  10.921 -0.4549 -0.2091 -0.1425
14649W        W31496  16.027   5.071   4.032 -0.0598 -0.1295 -0.0267
14650W        W31497  11.162  15.107  11.257 -0.0528  0.3851  0.3362
14651W        W31498  11.510   9.954   0.355 -0.0273 -0.0428  0.0768
14652W        W31499  15.391  14.312  10.041 -0.0328 -0.0051 -0.3075
14653W        W31500  14.748   8.849  12.916  0.0022  0.0158  0.2033
14654W        W31501   5.259   9.433   0.298 -0.1113  0.0177 -0.2685
14655W        W31502   1.067  11.701   3.525  0.4659 -0.1313  0.0094
14656W        W31503   7.422   1.565   1.797  0.3576 -0.2478 -0.1569
14657W        W31504   3.731  11.519   4.539  0.0800  0.1985 -0.0178
14658W        W31505  14.293  10.979  13.193 -0.2662 -0.2225 -0.1591
14659W        W31506  19.667   3.919  13.251 -0.2131  0.2250 -0.2063
14660W        W31507  16.201   8.757  14.170 -0.1203  0.0931 -0.0207
14661W        W31508   0.575   5.333  11.611 -0.0522 -0.3258  0.2914
14662W        W31509   4.918   3.762   1.089 -0.1890 -0.2266 -0.0718
14663W        W31510  12.859   4.315   3.382  0.0555  0.2831 -0.2443
14664W        W31511   8.245  18.230   0.846 -0.2118 -0.0182 -0.1318
14665W        W31512   3.035  14.608  14.253 -0.4872 -0.1691 -0.1283
14666W        W31513   5.324  12.560  12.781  0.1513 -0.0410 -0.0556
14667W        W31514  14.297   2.626  11.801  0.1918 -0.1630  0.1884
14668W        W31515  10.905   0.409   2.952 -0.1060  0.0704 -0.3465
14669W        W31516   9.978   9.058   0.195  0.0967 -0.2108  0.1483
14670W        W31517  10.228  18.431   1.673 -0.1891  0.2174  0.0316
14671W        W31518   1.874  14.056  11.649  0.2175  0.0576 -0.2463
14672W        W31519  15.126   0.796  10.455  0.2669 -0.0178 -0.1407
14673W        W31520   1.551  15.848   3.935  0.2709 -0.2295 -0.2411
14674W        W31521  10.850   8.149   2.489 -0.1786  0.1306  0.0269
14675W        W31522   8.892   9.449  10.180 -0.0163 -0.1335  0.1253
14676W        W31523  17.017   6.428  10.804  0.0708 -0.1940 -0.2597
14677W        W31524  15.936   2.043   3.571 -0.1574  0.0159  0.1254
14678W        W31525   0.012   9.649   5.327  0.0996 -0.6271  0.1451
14679W        W31526   4.382  13.001   0.384 -0.0591  0.1448  0.1674
14680W        W31527   5.808   3.339   1.730 -0.1987  0.1072  0.1911
14681W        W31528   4.435  18.168   2.100 -0.2290  0.4180  0.2789
14682W        W31529   6.148   5.236  11.987  0.1651 -0.2364  0.2704
14683W        W31530   0.893  11.281   5.476 -0.0275 -0.0727 -0.0799
14684W        W31531   1.718  19.771  11.888  0.2145  0.2320  0.1558
14685W        W31532   7.600   4.794  13.837 -0.1415 -0.1829 -0.2535
14686W        W31533  14.757  19.853   0.374 -0.1611  0.1611  0.0241
14687W        W31534  14.220  19.663   2.471  0.2623 -0.0844  0.1781
14688W        W31535   6.465   0.590   2.398  0.1695 -0.0059  0.1405
14689W        W31536  15.289  17.710  10.471  0.0939 -0.0905  0.1695
14690W        W31537  10.131   6.419   9.660 -0.1488 -0.0138 -0.0905
14691W        W31538   0.416  17.282  11.395 -0.1028 -0.2380 -0.2579
14692W        W31539  17.773   6.504   4.250  0.2999  0.3040  0.1017
14693W        W31540   3.967   3.033  11.477  0.0149 -0.2647 -0.1433
14694W        W31541  17.120   4.552   1.226  0.1362  0.1182 -0.1884
14695W        W31542   7.773  10.245  13.217 -0.0356 -0.1823 -0.0704
14696W        W31543  15.581   6.799  13.294 -0.0953 -0.0808 -0.0188
14697W        W31544  13.130   6.333   9.827 -0.1708  0.2519 -0.2796
14698W        W31545   2.749  12.067   0.650  0.4150  0.2789 -0.0424
14699W        W31546   1.628   3.191  13.494 -0.0943 -0.1780  0.2380
14700W        W31547  19.246  11.225   1.637 -0.2358 -0.0525 -0.2591
14701W        W31548   2.424   3.774  11.167 -0.0432  0.0173 -0.1231
14702W        W31549  10.359   7.279   1.465  0.0858 -0.0952  0.1064
14703W        W31550  15.080  15.427  11.375  0.1152 -0.3268 -0.2592
14704W        W31551  17.110   6.854   5.089 -0.1579 -0.1074  0.0405
14705W        W31552  16.287  15.036  10.294 -0.0991  0.1419  0.3150
14706W        W31553  17.211   7.425   9.559 -0.1803  0.2697  0.1568
14707W        W31554   7.344  17.775   2.724 -0.2010  0.0869 -0.1769
14708W        W31555   2.658  14.125   5.182 -0.3421  0.1602 -0.3060
14709W        W31556  11.139   4.622   1.098  0.0036 -0.0738 -0.0745
14710W        W31557   5.963   1.426   3.170 -0.0363  0.0480  0.2863
14711W        W31558  14.450  15.626  10.788 -0.1259  0.0074 -0.1042
14712W        W31559  16.973  14.640   1.535  0.1333  0.1861  0.0930
14713W        W31560  18.215   9.996  11.277 -0.4284  0.7392 -0.0224
14714W        W31561  11.290  10.839   0.648 -0.0999  0.0523 -0.0431
14715W        W31562  18.112   9.748  10.144 -0.1745  0.3895  0.1291
14716W        W31563   5.685   0.743   2.737 -0.2932 -0.0306  0.1111
14717W        W31564   6.984   6.082   2.270 -0.2683 -0.0355  0.2002
14718W        W31565   3.703  18.160   4.859 -0.0498 -0.3457 -0.0150
14719W        W31566  19.653   0.329   4.043  0.1278 -0.0497  0.2370
14720W        W31567   2.692   1.700   0.883  0.0273 -0.2828  0.1573
14721W        W31568   8.980  17.357  13.869  0.1279 -0.1051  0.0325
14722W        W31569  10.187   5.181   3.803 -0.0662  0.0599  0.1483
14723W        W31570   1.051   6.407   3.885  0.0567  0.2723  0.1477
14724W        W31571  13.012   4.953   0.138 -0.3393  0.2893  0.0479
14725W        W31572  16.295   7.901   0.018 -0.1380  0.1026 -0.2316
14726W        W31573   1.250   4.005  10.372 -0.1041  0.1428  0.1457
14727W        W31574  13.717  14.617   3.811 -0.1844 -0.1404 -0.1395
14728W        W31575   2.053  16.745  13.264 -0.2322  0.1996 -0.5984
14729W        W31576  12.244   8.102  12.520 -0.2763 -0.2502  0.3775
14730W        W31577   5.313  19.593   3.109  0.3660  0.1175 -0.3070
14731W        W31578  13.845  18.536   0.228 -0.1601 -0.0007 -0.0356
14732W        W31579   7.171   5.351   2.297  0.0542  0.2526 -0.0687
14733W        W31580  12.728  14.316   3.646 -0.1197 -0.1525 -0.0255
14734W        W31581  16.852   4.488   3.384 -0.0611 -0.2643  0.0378
14735W        W31582  13.071   7.794   1.260 -0.0202  0.1900 -0.0693
14736W        W31583  17.386  11.471   3.634 -0.1327  0.0601 -0.1088
14737W        W31584   3.520   6.818  10.332  0.0161 -0.1544 -0.2220
14738W        W31585  11.463  13.458   4.408  0.3459  0.1610 -0.2433
14739W        W31586  13.322   8.301   0.373  0.2320  0.0371  0.1542
14740W        W31587  14.337  16.412   2.586 -0.3325 -0.1361 -0.1080
14741W        W31588   3.406  12.467   4.630  0.2646  0.2311 -0.1869
14742W        W31589   8.107  15.081   2.454  0.2014  0.0730 -0.0554
14743W        W31590   5.671  16.878  12.637  0.0979  0.0296 -0.0053
14744W        W31591   6.310   4.896   1.077 -0.0444 -0.0068 -0.0380
14745W        W31592  16.992   3.206   4.550 -0.0007 -0.0375  0.1641
14746W        W31593  19.180   4.573  13.534 -0.0756 -0.2086 -0.0614
14747W        W31594  15.671   6.455  12.600  0.0241 -0.4029 -0.0399
14748W        W31595   8.868  16.674   3.428 -0.2272 -0.2302 -0.0463
14749W        W31596  13.174  10.961  11.688  0.0058 -0.2979 -0.2096
14750W        W31597  18.190  13.308  10.955  0.0901 -0.2996 -0.1116
14751W        W31598  16.949  13.613   1.386 -0.1522  0.0195 -0.0627
14752W        W31599  12.596  18.523  11.266 -0.1275  0.2257  0.0740
14753W        W31600   8.092   0.954  10.183 -0.0494 -0.0142 -0.0932
14754W        W31601  19.782  14.134   1.328 -0.5723 -0.1582 -0.0935
14755W        W31602   1.943   3.792   3.391  0.2852  0.0401 -0.0276
14756W        W31603  14.162  14.717   4.682 -0.0165 -0.2712  0.0510
14757W        W31604  17.491   2.171   3.378  0.1016  0.1561 -0.1846
14758W        W31605  14.875  16.706   0.647  0.1162 -0.1411 -0.4263
14759W        W31606   5.821  13.837   3.931 -0.0147  0.3616  0.1644
14760W        W31607   3.894   1.079  12.336  0.0153 -0.1539 -0.1040
14761W        W31608  14.676  16.707   2.044  0.0657  0.1932  0.0005
14762W        W31609  13.569   3.647   0.727  0.0883 -0.0258 -0.1367
14763W        W31610  15.013  19.192  13.526  0.0691  0.0236  0.1920
14764W        W31611   5.283  15.620  13.163 -0.1514 -0.0389  0.0154
14765W        W31612  11.223  15.431  14.258 -0.3090  0.1141 -0.0428
14766W        W31613  10.739   0.638   1.475 -0.0725  0.3468 -0.2288
14767W        W31614   7.965   7.837   1.055  0.0145  0.0312 -0.2372
14768W        W31615   1.359   0.306   3.613 -0.0605  0.1781 -0.1551
14769W        W31616  15.161  17.750  12.315 -0.0101  0.2900  0.1097
14770W        W31617   7.712  18.318   1.640 -0.1366 -0.0076 -0.0604
14771W        W31618   7.532  10.248   1.830 -0.2802 -0.1600 -0.0642
14772W        W31619   2.699  12.229  13.276  0.0347  0.1637 -0.2679
14773W        W31620   7.384  17.500  11.330  0.1828 -0.0745  0.0113
14774W        W31621   2.318  18.635  12.983  0.2174  0.0569 -0.0793
14775W        W31622  18.545  14.527  11.519 -0.4734 -0.1511 -0.2714
14776W        W31623   3.688  15.162  14.121  0.1558  0.3934 -0.4491
14777W        W31624   3.821  15.758   4.980  0.2024  0.0732  0.0693
14778W        W31625   6.656  17.100  11.680 -0.0217 -0.3428 -0.1829
14779W        W31626  11.350  12.371   0.003  0.3766 -0.2828  0.1381
14780W        W31627   6.490   2.150   3.266  0.1445 -0.0282 -0.1206
14781W        W31628   7.728  13.912  11.533 -0.1556  0.2749  0.0729
14782W        W31629  18.095  17.307   9.934 -0.2041  0.0589  0.0387
14783W        W31630   0.876   6.045  10.395 -0.3405 -0.0804 -0.0237
14784W        W31631  19.405   0.610   1.195  0.2288 -0.1373 -0.2571
14785W        W31632   3.833  10.299  12.858 -0.0799 -0.1624  0.0421
14786W        W31633   9.447  14.751   5.150 -0.1069  0.3553  0.0417
14787W        W31634   2.456  19.062   2.697 -0.0241 -0.0285  0.0500
14788W        W31635  19.884   4.546   9.922  0.0704 -0.3528  0.2546
14789W        W31636  19.669  14.359   4.436 -0.0581  0.2794  0.3039
14790W        W31637   2.757   5.099  13.646  0.0133  0.3824  0.1608
14791W        W31638   1.477  18.597   5.691 -0.2474 -0.4228  0.3499
14792W        W31639   9.478   8.278   4.667 -0.2880  0.2299  0.0479
14793W        W31640   6.033   0.987   2.929 -0.0473  0.1729 -0.3020
14794W        W31641   7.250   6.285  13.585  0.5337 -0.2867 -0.2019
14795W        W31642   8.850   4.291  11.965 -0.0260 -0.0397 -0.2115
14796W        W31643   3.004   9.392   2.046 -0.1887  0.5040 -0.1538
14797W        W31644   2.440   5.233  10.839 -0.0466 -0.2735  0.1605
14798W        W31645   6.050  18.066  10.780 -0.3615  0.0317  0.5465
14799W        W31646  17.807  10.599   1.770 -0.4374 -0.0063 -0.0604
14800W        W31647   2.018  17.277   1.317  0.1207 -0.0327  0.0584
14801W        W31648  17.903   1.305  14.344 -0.1044  0.1100 -0.0501
14802W        W31649  13.543   0.264  14.293 -0.2871  0.1920  0.0245
14803W        W31650  14.196  11.274   0.253  0.1101  0.4289  0.1616
14804W        W31651   6.275   0.011  12.190 -0.1926  0.2709  0.3471
14805W        W31652   1.215   3.086  10.736 -0.0061  0.2640  0.1279
14806W        W31653   5.903   8.427   0.692 -0.1856 -0.0422 -0.1486
14807W        W31654  13.992  10.098   4.430 -0.7136  0.1079 -0.0871
14808W        W31655  10.973  13.473  11.746  0.0999  0.0078 -0.1424
14809W        W31656   9.539  18.222   2.283 -0.0020  0.0735  0.0195
14810W        W31657   9.255   1.850  10.271 -0.2710  0.1783 -0.2201
14811W        W31658  17.036   8.907  12.264  0.0221  0.5049 -0.0779
14812W        W31659   0.604  17.943   3.143 -0.1228  0.2043 -0.1489
14813W        W31660   1.505  19.757  12.914 -0.0238 -0.2078  0.4150
14814W        W31661  13.274  11.014   0.027  0.0978  0.0061  0.0422
14815W        W31662  10.575   6.199   2.157  0.3275 -0.0078  0.2745
14816W        W31663   4.648   7.497  13.916 -0.1156 -0.1478 -0.1078
14817W        W31664   9.336   4.882  12.934 -0.0056 -0.1743  0.1608
14818W        W31665  12.237   4.528   9.070  0.2140 -0.2882  0.1077
14819W        W31666   2.307   2.322   3.358  0.0751 -0.2112 -0.1942
14820W        W31667  19.440   0.411   3.259  0.1040 -0.3573 -0.2506
14821W        W31668   0.302  18.703   9.835 -0.0230 -0.1709  0.5074
14822W        W31669  13.082   6.491  14.338  0.0936 -0.0172  0.0706
14823W        W31670   4.794  10.009   0.628  0.1956 -0.1315  0.1331
14824W        W31671   5.376  11.265  14.063  0.0030 -0.3247  0.0377
14825W        W31672   4.497  16.281   2.703 -0.2280 -0.3756  0.2681
14826W        W31673  18.768   5.073  14.172 -0.0916  0.2120 -0.1385
14827W        W31674  10.924   1.365   0.011  0.2880 -0.0598  0.0455
14828W        W31675   2.127  17.925  13.864 -0.0040  0.1442 -0.0608
14829W        W31676   7.802  14.152  10.223  0.0133  0.0330 -0.0783
14830W        W31677   5.291   3.571  10.053 -0.2917  0.0207  0.0762
14831W        W31678   7.383  11.031   0.697 -0.1965  0.1046  0.1066
14832W        W31679   0.053   7.884   4.684 -0.0790  0.0013 -0.3626
14833W        W31680   1.462  13.446  11.659 -0.1686 -0.0373  0.1375
14834W        W31681  11.573  11.394  13.494  0.5020 -0.1178 -0.2003
14835W        W31682  13.310   7.263   2.917 -0.1284 -0.0956  0.0670
14836W        W31683  16.607   3.979   1.283  0.1011 -0.1481 -0.3080
14837W        W31684  11.086   2.543  11.357 -0.0010  0.0974  0.0548
14838W        W31685   3.053  18.813   0.800  0.3531 -0.2748 -0.2815
14839W        W31686  17.239   3.509   0.327  0.3287  0.2774 -0.1641
14840W        W31687   8.138   3.744   0.351  0.3624  0.1438  0.0664
14841W        W31688  13.216   1.457   1.319  0.0641  0.2415 -0.3452
14842W        W31689   6.328   7.727  10.383 -0.0123  0.2128 -0.0255
14843W        W31690   5.189  14.150  10.720  0.1631 -0.2024 -0.2692
14844W        W31691   8.723  12.956   0.422 -0.1695 -0.0236  0.2167
14845W        W31692   3.184  14.352   4.070 -0.0291  0.0248 -0.1358
14846W        W31693  12.161  19.381   9.654  0.0128  0.0372 -0.0684
14847W        W31694   2.198  16.768   1.253  0.0968  0.0340 -0.1984
14848W        W31695   9.829  14.497   0.870  0.3581  0.1793  0.0832
14849W        W31696  12.573  19.805  10.879  0.3692 -0.1866  0.0734
14850W        W31697   5.723   5.790  12.850 -0.2621  0.1385  0.2978
14851W        W31698  16.541   2.214   1.210  0.1260 -0.1170 -0.4394
14852W        W31699   9.995  12.115   1.190 -0.1117  0.0088  0.1247
14853W        W31700   1.177  18.378  10.268 -0.3135  0.3428 -0.3459
14854W        W31701   7.954   9.243  10.280  0.1036  0.2439 -0.0175
14855W        W31702   9.078  17.980   1.182  0.1940  0.2195  0.3362
14856W        W31703   3.635   8.873  13.874 -0.0889 -0.2074  0.0375
14857W        W31704   8.259  13.771  13.216  0.2268 -0.0141  0.1961
14858W        W31705  17.842  19.618  12.226  0.1266 -0.1376  0.1166
14859W        W31706  16.310   9.007  10.224 -0.1130 -0.0187 -0.0326
14860W        W31707  13.895  17.589   2.448  0.1679 -0.1843 -0.0874
14861W        W31708   4.957  13.605   2.174 -0.1800  0.0854 -0.2283
14862W        W31709  15.036  19.095  12.545  0.0306  0.1456  0.0196
14863W        W31710  13.917  10.035  10.092 -0.2089  0.0490 -0.0804
14864W        W31711  17.826   2.694   2.091  0.3116 -0.1213  0.0264
14865W        W31712   4.753  19.731   4.451  0.0973  0.1249  0.4475
14866W        W31713  13.639   8.764  12.964  0.1222  0.0735 -0.0376
14867W        W31714   7.230  11.474   4.257 -0.0875 -0.3093 -0.0629
14868W        W31715   9.778  12.107  13.165  0.1663 -0.1994 -0.0861
14869W        W31716  14.788   6.876   2.989  0.2151 -0.3568  0.1578
14870W        W31717  15.647  15.921  12.595  0.0066 -0.0617  0.1071
14871W        W31718   9.748  13.055   3.523  0.0818 -0.2902 -0.2619
14872W        W31719  11.134  15.651   3.267  0.3337 -0.1412 -0.1702
14873W        W31720  10.617   0.416   4.376 -0.2775  0.2665 -0.2252
14874W        W31721   3.982   4.071  13.850  0.0559  0.1703  0.2995
14875W        W31722  18.354   7.044   9.975  0.0441 -0.2352 -0.0473
14876W        W31723   8.454   2.277   4.265 -0.0944 -0.3876 -0.0374
14877W        W31724  10.996  17.791  14.060  0.0333 -0.1148 -0.0131
14878W        W31725   6.730  11.824   3.502  0.2767  0.0085 -0.0582
14879W        W31726  19.664  19.527   0.074 -0.0696  0.3551  0.2003
14880W        W31727  17.931  17.376   2.409  0.1297  0.2053 -0.0706
14881W        W31728  16.023   1.339   3.018 -0.0726 -0.0467 -0.1261
14882W        W31729   5.257   7.742  14.060 -0.1187 -0.1096 -0.1857
14883W        W31730  14.104  19.447   9.093 -0.2000  0.1504  0.2426
14884W        W31731  17.907   6.769   1.464  0.1727  0.1765 -0.1333
14885W        W31732   4.759   5.485   1.652  0.1480  0.5562 -0.2099
14886W        W31733   9.910  17.733  10.025  0.1563 -0.0757  0.1538
14887W        W31734   3.474  10.898  11.245  0.0988  0.2532  0.0018
14888W        W31735   5.774  19.637   0.699  0.2911  0.2263  0.3179
14889W        W31736   5.472   5.958  12.501 -0.0271  0.1154 -0.0907
14890W        W31737  16.147  16.498  10.810 -0.0411 -0.2414  0.0309
14891W        W31738  14.659  13.459   0.377 -0.0720 -0.1643 -0.0618
14892W        W31739   3.110  11.047   2.036  0.1539 -0.1917  0.2536
14893W        W31740   7.358  13.318  13.239  0.0371  0.0766  0.2693
14894W        W31741  14.830  14.814  13.011  0.0543  0.2002 -0.1838
14895W        W31742   6.911   5.409   0.554  0.0972 -0.0959  0.0480
14896W        W31743   6.903   1.363  10.242 -0.0278 -0.2175 -0.1159
14897W        W31744   1.531  13.263   9.451  0.2276  0.1343 -0.5103
14898W        W31745   2.074  15.566  11.513 -0.3230 -0.0872  0.1379
14899W        W31746  15.469  10.287  11.616  0.1714 -0.1849  0.0281
14900W        W31747   4.951   9.530   1.780 -0.0965 -0.3269 -0.1212
14901W        W31748   9.006   8.793  14.293 -0.1020  0.1547  0.2977
14902W        W31749   8.671   5.998  13.407 -0.1908  0.0963  0.2373
14903W        W31750  14.636   2.729  12.937 -0.1962  0.1177  0.0694
14904W        W31751   2.430  17.203   3.970  0.0489 -0.3014  0.0559
14905W        W31752   2.479   7.058  12.601  0.2204  0.1960  0.0826
14906W        W31753   6.311   0.587   1.009  0.1880  0.8370 -0.1066
14907W        W31754   0.843  17.067   1.112 -0.0445  0.0061 -0.0680
14908W        W31755  16.907   6.739   3.799 -0.0493  0.0698 -0.2136
14909W        W31756   3.680  15.919  10.509  0.3380 -0.0869  0.1142
14910W        W31757   4.342   3.706  14.064 -0.2600  0.1845 -0.2619
14911W        W31758   8.663  17.193  10.192 -0.2447 -0.0048 -0.5050
14912W        W31759  12.597  17.674  10.785  0.3984 -0.5464 -0.0794
14913W        W31760   7.763   3.513   0.676  0.0442  0.2845 -0.2486
14914W        W31761  14.432  19.179  10.793  0.0004  0.1260  0.2828
14915W        W31762  15.746   8.283   4.318  0.2401  0.3768  0.0836
14916W        W31763  16.634  14.097   5.450 -0.0086  0.3068 -0.0888
14917W        W31764  16.954   3.903  14.038  0.0545  0.0738  0.1784
14918W        W31765  12.312  16.931   2.598  0.2429  0.1710 -0.2966
14919W        W31766  17.062   1.474  12.115  0.1028 -0.2019 -0.3871
14920W        W31767   6.763  12.654  11.833  0.2079 -0.0106 -0.0961
14921W        W31768   2.912  17.147   2.635 -0.3152  0.1545  0.3879
14922W        W31769   6.842  16.334  11.091 -0.0139  0.0402 -0.1396
14923W        W31770  17.650  15.111  11.108  0.3449  0.0150  0.1456
14924W        W31771  14.442   9.172  11.451 -0.0941 -0.1202 -0.2125
14925W        W31772   5.889   3.922   0.164  0.2859  0.0562  0.1074
14926W        W31773   1.801   7.626   2.450 -0.0523 -0.0353 -0.1783
14927W        W31774  19.821   5.175   0.918 -0.4073 -0.0167  0.0851
14928W        W31775  19.038   1.790   9.410  0.0895  0.0126 -0.1401
14929W        W31776  16.986  11.787   3.587 -0.0800  0.1141 -0.2469
14930W        W31777   4.408   7.048  11.331  0.0445  0.0977 -0.0657
14931W        W31778   1.584   0.299  12.648 -0.2565  0.1169  0.0184
14932W        W31779  16.360  14.808   0.274  0.0301  0.3353  0.2984
14933W        W31780   8.500   4.380  11.575  0.3422  0.3373  0.1166
14934W        W31781   0.613  16.831  12.303  0.2653  0.3376  0.0618
14935W        W31782   6.696  11.129   0.081 -0.2543 -0.3760  0.0154
14936W        W31783  14.973   2.964   9.538  0.1350  0.3225 -0.0180
14937W        W31784  10.294  13.225   2.838 -0.2292 -0.0387  0.0351
14938W        W31785  13.964  18.559  12.695  0.1759 -0.1340  0.0903
14939W        W31786   4.146   0.306   0.559 -0.2044 -0.1355  0.2367
14940W        W31787  18.814  12.740  11.469 -0.2446  0.1205 -0.1811
14941W        W31788   3.127   2.511   3.811 -0.1477 -0.0917  0.3532
14942W        W31789  12.945   5.471   3.484  0.2638  0.1880  0.1573
14943W        W31790   8.036  17.929   4.000 -0.4371  0.2659  0.0615
14944W        W31791  13.677   2.586   1.925  0.0400  0.3253  0.0241
14945W        W31792   2.330   5.904   1.716 -0.0669  0.3198  0.1570
14946W        W31793   4.216  10.273  13.206  0.3321  0.1002  0.0072
14947W        W31794  12.505   6.011  10.927  0.1241 -0.1173  0.2913
14948W        W31795   7.561  16.105   2.961 -0.0261  0.0296 -0.0416
14949W        W31796   3.591   1.101  10.394  0.2502  0.0852  0.2599
14950W        W31797   8.699   5.556   1.360 -0.5317  0.0047  0.0061
14951W        W31798   8.066   9.450   2.496 -0.0728  0.1816 -0.0152
14952W        W31799   0.044   4.326   3.877 -0.3676 -0.2137 -0.0122
14953W        W31800  19.291   6.397  10.838 -0.0237  0.0391 -0.1075
14954W        W31801   0.769   4.399   3.319  0.3794  0.1596 -0.0735
14955W        W31802   9.014   1.863   2.875 -0.1594  0.3053 -0.1270
14956W        W31803   3.339  16.911   0.814 -0.3957 -0.1199 -0.0058
14957W        W31804  14.656   5.363   9.689 -0.0446  0.0405 -0.0636
14958W        W31805  12.581   5.613  12.500  0.1800 -0.0116  0.2059
14959W        W31806  12.801  16.087   4.139 -0.1009  0.0146 -0.1250
14960W        W31807   7.507   6.846  10.101 -0.0010 -0.1116 -0.2722
14961W        W31808   8.322  16.305   4.168  0.1154 -0.2379  0.0320
14962W        W31809   8.458  13.766   4.324 -0.3545  0.1020  0.3136
14963W        W31810  19.456  18.433  11.237  0.3860 -0.2384  0.2166
14964W        W31811  16.596  14.253   4.512  0.2008  0.0114 -0.1362
14965W        W31812  15.353   3.592  13.311 -0.1665  0.0474 -0.0771
14966W        W31813  10.300   7.901   3.901 -0.0289  0.1054  0.2959
14967W        W31814  15.506  12.812   4.579 -0.2185  0.1712  0.3446
14968W        W31815   8.221  15.336   1.043 -0.1233  0.0436 -0.3286
14969W        W31816   7.892   7.157   2.280 -0.4230 -0.3829 -0.0349
14970W        W31817   4.448  15.280   1.665 -0.5396  0.3803  0.0288
14971W        W31818   5.776   6.598   0.522  0.1141 -0.1501  0.1078
14972W        W31819   0.876  16.516  11.973  0.0771  0.4487 -0.5192
14973W        W31820  17.694  12.688   2.226 -0.0082  0.0404  0.3293
14974W        W31821  12.367   6.900   1.456 -0.2091  0.0247 -0.1594
14975W        W31822  11.537   2.851  10.360 -0.3436 -0.0106 -0.0823
14976W        W31823  11.282  15.745   1.906  0.0371  0.5640  0.3105
14977W        W31824  17.761   6.726  11.814 -0.0121 -0.0958  0.0685
14978W        W31825  10.766   1.939   2.337 -0.0417  0.1960 -0.1038
14979W        W31826  15.909  17.247  12.656 -0.2284  0.0620 -0.0870
14980W        W31827   4.906  14.165   3.755 -0.2703  0.3682 -0.1616
14981W        W31828  17.981   4.811   0.197 -0.1886  0.0054 -0.0518
14982W        W31829   9.450   9.556  13.413 -0.3093  0.0728 -0.2760
14983W        W31830  13.634  11.347   0.257  0.1324 -0.0858 -0.0384
14984W        W31831   1.215   5.056  12.202 -0.1242  0.3169 -0.0310
14985W        W31832  13.563  11.579   5.385 -0.0749 -0.0905  0.3041
14986W        W31833  17.928  13.520   3.374  0.0086 -0.1752 -0.0108
14987W        W31834   0.510  13.225   9.431 -0.3554 -0.0369  0.1769
14988W        W31835   2.176   9.743  10.972 -0.2046 -0.1896  0.0421
14989W        W31836   7.871  19.630  11.098 -0.0293  0.0617 -0.3350
14990W        W31837   3.917  16.403  13.017 -0.2007  0.3627  0.0510
14991W        W31838  14.031   0.897   1.068  0.0078  0.0391  0.1921
14992W        W31839  18.527  18.439  12.044  0.2162  0.0642  0.0454
14993W        W31840   2.346  17.935  12.213 -0.1621  0.1049  0.1128
14994W        W31841   4.346  17.509   5.598 -0.1196 -0.0836  0.0794
14995W        W31842  15.046   4.234  11.869  0.5541 -0.0209  0.1355
14996W        W31843  12.495   4.026   4.069  0.0030 -0.0063 -0.0859
14997W        W31844  17.859  14.892  12.641 -0.0009  0.0126  0.1410
14998W        W31845   8.810  19.540  14.201 -0.2839 -0.0500  0.0629
14999W        W31846   1.124   2.274   0.683 -0.3901 -0.0448  0.3410
15000W        W31847   8.390  17.138   9.483 -0.0180  0.4029 -0.3161
15001W        W31848  11.741  12.828  13.197  0.1098  0.0944  0.3226
15002W        W31849   1.446  12.352  10.447 -0.2026  0.2828  0.1140
15003W        W31850  11.844   3.181  10.570 -0.3413  0.1301 -0.5566
15004W        W31851   6.957  15.900  10.569  0.2786  0.0294  0.1894
15005W        W31852  16.961   0.116   1.179  0.1298 -0.1274  0.1102
15006W        W31853   1.008   7.722   0.677  0.1358  0.1880  0.0430
15007W        W31854  17.432   3.245   4.677 -0.1500  0.1533 -0.2442
15008W        W31855   0.862  11.993  10.954  0.0350 -0.1435 -0.4009
15009W        W31856  19.258   0.557  10.379 -0.0030 -0.2549 -0.0674
15010W        W31857   2.603  12.054  12.443 -0.2290  0.5183  0.3401
15011W        W31858  19.350  14.415  10.575  0.0565  0.0112  0.0364
15012W        W31859   1.780  11.776  12.676 -0.2665  0.0879  0.1371
15013W        W31860  13.341   6.479   2.779  0.1957  0.1332  0.0386
15014W        W31861   1.308   9.829   3.880  0.1366  0.2511 -0.4213
15015W        W31862  10.017  11.121  10.542 -0.1271  0.3183  0.2148
15016W        W31863  13.781  10.671   3.641  0.0151 -0.0147 -0.0329
15017W        W31864  12.586   8.592   3.069 -0.0054  0.0336 -0.0092
15018W        W31865  16.066   7.968   1.677 -0.2861  0.2030 -0.0276
15019W        W31866   0.017   7.127   3.034  0.0295 -0.0074 -0.0941
15020W        W31867   9.993   9.923   1.952  0.0995  0.3321 -0.2597
15021W        W31868   4.621   8.762  14.027  0.0748 -0.2139 -0.2110
15022W        W31869  11.676  11.043   1.176  0.1215  0.0838  0.5029
15023W        W31870  13.010  16.587   2.009  0.3437 -0.1280 -0.0457
15024W        W31871  11.773  19.014   1.004 -0.0160 -0.1134 -0.2187
15025W        W31872   5.120   9.933   0.168 -0.2247 -0.3098  0.1037
15026W        W31873   3.031  16.177   1.310 -0.0360  0.2062 -0.0935
15027W        W31874   3.182  12.952   4.695  0.1010  0.3365 -0.0350
15028W        W31875  17.405  15.906   0.434  0.1429 -0.1892 -0.4485
15029W        W31876  13.740   0.785   5.176 -0.1602 -0.0975  0.1455
15030W        W31877   9.830   3.499   0.739 -0.1555  0.0734 -0.0213
15031W        W31878  17.166  13.475  14.357 -0.0726  0.2682 -0.0008
15032W        W31879   8.443   5.397   2.522 -0.0516  0.1954  0.0596
15033W        W31880  13.297  10.505   0.211 -0.0487  0.1001  0.3736
15034W        W31881   7.423  19.650  11.233  0.0966 -0.4955  0.2976
15035W        W31882  19.642  12.399   0.391  0.3260  0.3882 -0.3244
15036W        W31883  16.413  16.329   3.939 -0.2794 -0.1652  0.4045
15037W        W31884  12.338   1.183   3.327 -0.1236  0.0808 -0.1709
15038W        W31885  11.668   0.831   3.857  0.1288 -0.0654 -0.1741
15039W        W31886   2.589   4.461   1.224 -0.2795  0.0511 -0.2386
15040W        W31887   1.854   2.059  13.098 -0.0031  0.0273 -0.2400
15041W        W31888  19.062  14.386  13.955 -0.0080  0.1075  0.0019
15042W        W31889   2.020   2.113   9.672 -0.1027 -0.0137  0.0812
15043W        W31890   1.703   5.653  13.285 -0.3366  0.2106 -0.2131
15044W        W31891  12.599   6.053  12.787  0.3156 -0.0923  0.2576
15045W        W31892  19.626   0.998   0.222  0.0618 -0.1420  0.3788
15046W        W31893  16.473  15.394  10.017  0.1098  0.0928  0.2644
15047W        W31894  14.295  10.407   3.377 -0.1960  0.0754 -0.2051
15048W        W31895   9.197   3.677  10.257 -0.0404 -0.0885 -0.1338
15049W        W31896   6.993   2.282   4.445  0.0452 -0.1217 -0.3864
15050W        W31897  13.925   1.510   2.257  0.1390 -0.1916  0.0137
15051W        W31898  14.439   7.625  11.165  0.1331 -0.1017  0.0690
15052W        W31899   8.391  18.457   3.592 -0.0961  0.0068 -0.3263
15053W        W31900  19.887  12.460  14.200  0.3830 -0.1552  0.1247
15054W        W31901   8.607  12.946  11.894 -0.3913 -0.0203  0.2217
15055W        W31902   3.656  13.086   0.708 -0.0167 -0.1602  0.1102
15056W        W31903   9.617   5.684  13.286 -0.1293  0.1198 -0.2259
15057W        W31904  13.623  11.631  10.639 -0.2740 -0.0107 -0.1600
15058W        W31905   9.352   8.426   2.583 -0.3901 -0.2043 -0.2701
15059W        W31906   0.309  19.673   2.687 -0.1076 -0.3600  0.0743
15060W        W31907   2.996  18.660  12.215 -0.0518  0.1323  0.3182
15061W        W31908  15.502   4.444   1.985 -0.2090 -0.0291 -0.2869
15062W        W31909  13.267   4.947  12.555 -0.2892  0.0777 -0.1566
15063W        W31910   9.709  15.531  10.421 -0.0600  0.0847  0.1488
15064W        W31911   9.695   6.717   3.641 -0.2532 -0.1432  0.1773
15065W        W31912   6.130  11.682   5.155  0.2827 -0.0936 -0.0955
15066W        W31913   8.441  10.614  13.996 -0.1489 -0.0004  0.0479
15067W        W31914  12.083   1.604  10.515 -0.1421  0.1739  0.0083
15068W        W31915   7.694   5.246  10.967 -0.1996 -0.0114  0.1260
15069W        W31916  12.965  14.906  12.412 -0.1458  0.0683  0.1702
15070W        W31917  14.063   4.125   3.162 -0.0376  0.1798 -0.0981
15071W        W31918  18.875  11.493  14.352  0.1551 -0.0474 -0.5233
15072W        W31919  19.174   7.972  13.738 -0.2186 -0.4237  0.0478
15073W        W31920   5.582   7.778  12.711 -0.2278  0.0599  0.3291
15074W        W31921   5.951   4.700  12.898 -0.0118 -0.1797 -0.1282
15075W        W31922   6.079   5.066   4.380 -0.0232 -0.0257  0.0221
15076W        W31923   6.210   7.148  11.929 -0.1892 -0.2252 -0.0889
15077W        W31924  14.154  16.040   5.189  0.2887 -0.0636 -0.2703
15078W        W31925  10.052  14.869  12.226 -0.2543  0.1591  0.1351
15079W        W31926  19.401   1.343   2.518  0.4630 -0.0405 -0.5322
15080W        W31927  11.891  10.247   2.492 -0.1318  0.1772 -0.1109
15081W        W31928  11.472   7.594  10.976 -0.0105 -0.0709  0.1066
15082W        W31929  14.899   8.513  11.269  0.2773 -0.1798 -0.3248
15083W        W31930   3.298   0.016  11.507 -0.3066  0.2906 -0.0069
15084W        W31931  11.255   7.914   5.041 -0.2239 -0.1656 -0.0736
15085W        W31932   5.705   6.460  10.132 -0.0846 -0.2009  0.0530
15086W        W31933  10.186  13.378  10.751 -0.1107  0.1028 -0.0710
15087W        W31934  11.568  11.031   3.540 -0.2619  0.3041  0.0946
15088W        W31935  19.235   5.761   2.874 -0.1316  0.1097 -0.1750
15089W        W31936  16.552  13.140  10.275  0.0976 -0.1934 -0.2346
15090W        W31937  12.930  18.205  14.149  0.1302  0.0812 -0.0291
15091W        W31938   3.042   9.993  11.143 -0.0032 -0.1268 -0.0719
15092W        W31939  10.709   0.278   3.886  0.2297  0.0376 -0.1713
15093W        W31940  15.744   5.615  13.855  0.4883 -0.3185  0.1786
15094W        W31941   0.294  17.818  12.262  0.1767 -0.3108  0.2289
15095W        W31942  11.373  13.659   5.399 -0.1562  0.1517  0.2421
15096W        W31943   2.142   0.013  10.223  0.2689 -0.3800 -0.3842
15097W        W31944   8.788   9.163   3.449 -0.0774  0.3505  0.2785
15098W        W31945   0.375  11.012   1.831 -0.2690  0.1567  0.2202
15099W        W31946  13.600   5.244  13.581  0.2418 -0.4370 -0.0726
15100W        W31947  17.059   6.686   2.868 -0.1068  0.1287 -0.3070
15101W        W31948  15.709   7.830   1.365 -0.1810 -0.0030  0.0568
15102W        W31949  11.258   6.650  11.105  0.1308 -0.4771  0.1221
15103W        W31950   8.898   7.361  11.157  0.0867  0.2359 -0.1571
15104W        W31951   2.501   3.300  13.414  0.1351  0.2666  0.0230
15105W        W31952   8.745  19.206  12.390 -0.1095  0.0521 -0.1034
15106W        W31953  16.335   9.796  10.516  0.0955 -0.1142 -0.0671
15107W        W31954  13.122  18.665  11.227  0.2163 -0.1123  0.1330
15108W        W31955   6.616  11.367  11.233  0.1311  0.1823  0.2932
15109W        W31956   1.855   3.523   1.319  0.0416  0.1862 -0.1111
15110W        W31957   9.668  15.444   3.412  0.0766 -0.4469  0.0150
15111W        W31958  12.743   8.922   0.072 -0.0735  0.1092  0.0571
15112W        W31959  11.357   4.155   1.341 -0.0116 -0.2879  0.1309
15113W        W31960   5.489   8.640   4.889 -0.2758  0.3452 -0.2634
15114W        W31961   2.222   6.223   2.666 -0.0487 -0.0294  0.4395
15115W        W31962  16.084   5.944  13.744  0.0189 -0.1042 -0.1377
15116W        W31963  19.470  15.089   3.218 -0.1800  0.1225 -0.2935
15117W        W31964   8.394   9.635  11.507  0.3007  0.1059  0.2066
15118W        W31965  10.278  14.201  10.932 -0.1773 -0.0420  0.0748
15119W        W31966  15.406  10.261   4.041  0.1374 -0.2021  0.1344
15120W        W31967  19.182  18.961  10.427 -0.2496  0.2109  0.2242
15121W        W31968   3.124   3.665   2.993 -0.0628 -0.0255 -0.2440
15122W        W31969  15.499   9.477   0.785 -0.0505 -0.2112  0.1344
15123W        W31970   4.758   5.631   9.682 -0.1868  0.1468 -0.2151
15124W        W31971  14.640   1.207   1.819 -0.0945 -0.2614 -0.0998
15125W        W31972   1.345  17.881  10.570 -0.0195 -0.2543  0.2743
15126W        W31973  14.591  15.644  11.408  0.2283  0.0169 -0.0202
15127W        W31974  12.163   0.380  10.754 -0.2724 -0.1062  0.2328
15128W        W31975  13.596   1.100   0.693  0.2695  0.3395  0.1931
15129W        W31976  12.632  12.698   3.358  0.0970 -0.3844  0.1808
15130W        W31977   4.729  11.127  12.866 -0.1192 -0.1964 -0.2446
15131W        W31978   1.242  19.778   1.164 -0.0271  0.2054  0.3093
15132W        W31979   4.389  12.803   0.909 -0.1955  0.2041  0.0520
15133W        W31980   6.033   9.252   0.944 -0.0777 -0.1532  0.0176
15134W        W31981   2.589   5.672   4.714 -0.0096 -0.0983 -0.0879
15135W        W31982  17.504  15.307   1.645 -0.2182 -0.1405  0.0452
15136W        W31983   3.608  18.147  11.200  0.0387  0.0851 -0.1234
15137W        W31984   6.501  19.622   2.318 -0.1032  0.3330 -0.2451
15138W        W31985  16.125   8.368  11.749 -0.3944 -0.2008  0.3854
15139W        W31986   5.721   9.883  11.814  0.1796 -0.4363 -0.0275
15140W        W31987  15.435   9.900  11.951  0.2084  0.0086  0.1694
15141W        W31988   7.776   0.551  13.932 -0.1391  0.1741 -0.2853
15142W        W31989  18.858  14.734  12.708  0.1469  0.1526 -0.2545
15143W        W31990   5.823   1.881   3.396 -0.4303 -0.2088 -0.2731
15144W        W31991   3.278   2.149   4.548 -0.1505 -0.1944  0.2767
15145W        W31992  10.455  13.753  11.007 -0.1035  0.0857 -0.0169
15146W        W31993  12.995  14.053   0.708 -0.2887 -0.2654 -0.1022
15147W        W31994  11.236  17.771   3.371  0.1622 -0.0737 -0.0546
15148W        W31995  17.904  18.259   2.594 -0.4305 -0.2909 -0.0189
15149W        W31996  11.653   1.017  12.802  0.2423 -0.2107 -0.0216
15150W        W31997   2.031   7.899   4.383 -0.2768 -0.0745  0.0180
15151W        W31998   6.384   6.694   1.187  0.1077 -0.3109  0.1095
15152W        W31999   7.452  14.395   1.989  0.0306 -0.0413 -0.0580
15153W        W32000  13.697   2.070   0.180 -0.0417  0.0613 -0.0991
15154W        W32001   6.096  19.769   3.390 -0.0787 -0.1604 -0.1659
15155W        W32002  11.181  11.583  11.016 -0.0250 -0.0677  0.0135
15156W        W32003  12.056   5.596  12.372 -0.2073 -0.1693 -0.4094
15157W        W32004  16.737  13.659  10.972 -0.1107 -0.0832  0.0519
15158W        W32005   9.058  14.299   3.941 -0.2152 -0.2576 -0.0930
15159W        W32006  16.868   5.542   0.486 -0.2091  0.1801 -0.2047
15160W        W32007   3.173  10.451   3.020 -0.0382  0.0763 -0.1961
15161W        W32008  17.330  11.153   4.019 -0.0835 -0.4157  0.1425
15162W        W32009   4.531  13.398  12.670 -0.1574  0.1228  0.1971
15163W        W32010  11.977   8.039  11.952 -0.3021 -0.1742  0.0188
15164W        W32011   5.564  15.742   3.614 -0.2108  0.2164  0.0259
15165W        W32012  14.612  13.929  13.346  0.1037  0.0822 -0.0298
15166W        W32013  10.007  18.904   4.191 -0.0270  0.3817 -0.5831
15167W        W32014   6.800   9.345   0.041  0.0161 -0.0642  0.1274
15168W        W32015   0.661  12.784   5.039  0.1405 -0.1676  0.2451
15169W        W32016   2.196   6.459  12.466 -0.1358  0.0886  0.1829
15170W        W32017  14.698   8.585   0.184  0.2419 -0.1634  0.0885
15171W        W32018  18.798   2.294  12.263  0.2866  0.1868  0.0493
15172W        W32019  10.247  19.086  10.132 -0.0304  0.0931  0.1073
15173W        W32020   0.612  10.106   1.758 -0.0316  0.0499  0.1285
15174W        W32021  16.021  14.681  11.470  0.5371 -0.1532  0.0326
15175W        W32022   1.426   7.602   3.669  0.3250 -0.1416 -0.0282
15176W        W32023  15.564  16.023   1.710 -0.2606  0.3553 -0.1755
15177W        W32024  12.911  15.341   5.489  0.1638 -0.1171 -0.1684
15178W        W32025  13.810   4.177   1.050 -0.1941 -0.1208 -0.3696
15179W        W32026  15.537   7.639   1.810 -0.2667  0.0839  0.1773
15180W        W32027   6.797   7.460  13.421 -0.2097 -0.2727 -0.2201
15181W        W32028  15.037   0.717   2.289 -0.0008  0.0214  0.1778
15182W        W32029  15.441  17.737  14.266 -0.1786  0.1383 -0.0206
15183W        W32030   2.835  18.062   4.408  0.1771  0.1981  0.2058
15184W        W32031   6.467   3.509   2.547  0.0147 -0.1822 -0.1135
15185W        W32032   3.780  19.406   2.406 -0.0666  0.3318  0.0832
15186W        W32033  14.944   8.169  10.629  0.2539 -0.2125  0.0546
15187W        W32034   1.423   2.016  11.593  0.1282  0.0992 -0.2279
15188W        W32035   1.084   4.878   3.849 -0.3505  0.1466 -0.0024
15189W        W32036   5.267   0.516  10.485  0.1999  0.1553 -0.1839
15190W        W32037   4.666  19.112   5.137  0.0909  0.1456  0.0938
15191W        W32038   0.774   6.703   0.532  0.1467 -0.3066  0.0049
15192W        W32039   1.740   1.863   1.781 -0.0739 -0.2078 -0.3411
15193W        W32040   1.203   5.567   1.259  0.2673  0.0282  0.3016
15194W        W32041  15.808  16.745  11.036 -0.4513  0.1921 -0.0898
15195W        W32042   2.841   5.415  10.243 -0.1326 -0.5223 -0.0710
15196W        W32043  17.844   4.166   1.843  0.1638  0.1029 -0.2452
15197W        W32044   7.670   2.835  10.634 -0.1758  0.1278 -0.0098
15198W        W32045   1.175   4.043   8.800 -0.2400 -0.2505 -0.0910
15199W        W32046   5.450  16.975   4.503 -0.1283  0.0089  0.0421
15200W        W32047   6.097  10.640   3.589 -0.0402  0.1102  0.1026
15201W        W32048   0.881   7.890   1.679 -0.0493  0.1409  0.4183
15202W        W32049  19.404  10.831   3.502 -0.2274  0.1851  0.1293
15203W        W32050  11.315   0.080   2.778  0.0602 -0.1487  0.2453
15204W        W32051  10.962   8.536   3.288  0.2428  0.1697  0.0546
15205W        W32052   0.803  15.101   2.959  0.3783 -0.1448  0.0119
15206W        W32053   5.845  16.670  13.954 -0.1113  0.2383 -0.0383
15207W        W32054   3.772   8.114  10.940 -0.1181  0.2522 -0.1687
15208W        W32055  10.033   7.029  11.293  0.1633 -0.0497 -0.2067
15209W        W32056   2.606  19.879  11.686  0.2193  0.4375  0.4323
15210W        W32057   7.302  10.852   1.218 -0.1283  0.1105 -0.1793
15211W        W32058   1.947  12.259   1.485  0.2466 -0.0693 -0.1075
15212W        W32059  19.351  12.448   4.403  0.1944  0.0095 -0.0991
15213W        W32060   7.114   6.671  13.900 -0.3931  0.0571  0.0096
15214W        W32061   5.271  16.292   3.669  0.1127  0.5941 -0.2060
15215W        W32062   5.553   2.583   2.580 -0.0091  0.1965 -0.1462
15216W        W32063  14.006   3.288   9.898 -0.0767  0.1599 -0.0312
15217W        W32064   4.550  18.822   4.367 -0.0903 -0.2969 -0.1219
15218W        W32065  12.009   6.717  12.431  0.2499 -0.1739  0.0032
15219W        W32066   5.127   7.347   0.707  0.0576 -0.0018  0.5180
15220W        W32067  18.364   2.374  11.944 -0.1037 -0.0189  0.2571
15221W        W32068  11.482   1.788   2.353 -0.0303 -0.1436  0.0564
15222W        W32069  10.741   2.546   2.871  0.1722 -0.2737 -0.1044
15223W        W32070   6.670   1.799   1.671 -0.1099  0.3782  0.3985
15224W        W32071  11.756  11.984   1.546 -0.0162  0.3425 -0.1383
15225W        W32072  13.104  17.986   1.907 -0.1411 -0.0909  0.2604
15226W        W32073   2.191   0.897   2.625  0.1042  0.1781 -0.3536
15227W        W32074  11.477   6.001   5.087 -0.1915 -0.0420 -0.3775
15228W        W32075   3.685   5.516   9.619  0.0125  0.1009 -0.3095
15229W        W32076   4.450   4.261   3.768  0.2229  0.3150  0.1110
15230W        W32077  13.219   7.749   4.006  0.0414  0.2292  0.1810
15231W        W32078  16.808  17.159  13.748  0.0243  0.3476 -0.5247
15232W        W32079  15.908  13.077   0.835  0.0392  0.0265 -0.0709
15233W        W32080  12.890   7.368   2.145 -0.0803  0.0494  0.0051
15234W        W32081   0.171   2.593   3.003 -0.1944 -0.2057 -0.1035
15235W        W32082   5.736   3.882  14.022  0.0907 -0.1044 -0.2807
15236W        W32083  16.238   1.223  13.946  0.0019 -0.0627  0.1538
15237W        W32084  15.566   7.608  10.520 -0.0926  0.0056  0.1145
15238W        W32085   8.465   7.498  14.041  0.2245 -0.1461  0.0711
15239W        W32086  11.093  11.175  14.101 -0.2940 -0.1210  0.0298
15240W        W32087  10.781   5.554  13.089  0.1565  0.2855 -0.3382
15241W        W32088  18.481  10.013  10.413 -0.0451 -0.1157 -0.4947
15242W        W32089  13.667  19.020   3.081  0.0260 -0.0039  0.3389
15243W        W32090   4.748  18.834  11.891  0.3569  0.2128  0.3744
15244W        W32091  19.393  15.655  13.681  0.4073  0.2297 -0.0330
15245W        W32092  19.003   3.707  10.159 -0.1740  0.0083  0.0175
15246W        W32093   1.643  15.116  10.458  0.0318  0.2105  0.3456
15247W        W32094   1.398  15.316   0.657  0.0128  0.2768  0.2929
15248W        W32095   9.002  11.465   5.319  0.1127 -0.1400  0.4306
15249W        W32096  11.506   3.158   1.725  0.0397 -0.0050 -0.1586
15250W        W32097   8.248   5.046   0.168 -0.2021 -0.0398 -0.0925
15251W        W32098   2.035   8.120   3.534  0.1113  0.4283  0.0402
15252W        W32099  14.761  10.333  10.061  0.2588 -0.1047 -0.0815
15253W        W32100   6.065   2.667   4.505 -0.3182 -0.1588 -0.0381
15254W        W32101   7.041  10.972   3.435 -0.1387 -0.2619  0.0711
15255W        W32102  16.319  18.715   8.850  0.1730 -0.2882 -0.0664
15256W        W32103  16.343   8.660   9.852 -0.0208  0.1052  0.2084
15257W        W32104   4.432  12.364  10.377  0.1616 -0.3831  0.1979
15258W        W32105  10.657   7.498   3.514  0.1590 -0.0633  0.0187
15259W        W32106   7.622  18.400   0.017  0.2554 -0.1469 -0.2866
15260W        W32107   4.360   5.233   4.817 -0.1743 -0.1225 -0.0865
15261W        W32108  17.846   0.329   9.882  0.2053  0.1461  0.1584
15262W        W32109   7.598  19.560  12.729  0.0678 -0.2102 -0.1649
15263W        W32110   8.613   8.444   3.398 -0.1813 -0.2804  0.1609
15264W        W32111  15.809  10.114   9.749 -0.3595 -0.1513  0.4673
15265W        W32112   4.778  12.442  12.859  0.0795  0.1584 -0.0536
15266W        W32113   9.253   9.009  10.103  0.2018  0.2865 -0.0898
15267W        W32114   3.163  13.844   4.389  0.1151  0.2869 -0.1166
15268W        W32115  19.380  17.136   3.407 -0.1692 -0.0469  0.2772
15269W        W32116   7.128  10.390  13.981 -0.1925 -0.3857  0.0969
15270W        W32117  17.718   7.311   1.327 -0.2485 -0.0074  0.0873
15271W        W32118   8.468   4.010   3.801 -0.0561 -0.4278 -0.1679
15272W        W32119  18.894  15.011   0.596  0.0565 -0.1174 -0.1221
15273W        W32120  19.032   2.746   2.785  0.0815 -0.0880  0.3775
15274W        W32121  15.690  18.095   0.670  0.1129 -0.0643  0.0773
15275W        W32122   9.515   2.996   4.034  0.2300 -0.1891 -0.4148
15276W        W32123  17.036  19.768  11.149 -0.2333  0.4147  0.1250
15277W        W32124  10.606  10.071   2.631 -0.0535 -0.2596  0.1584
15278W        W32125   5.560   2.182   0.080 -0.1770 -0.0054  0.0088
15279W        W32126   4.973   6.760   2.931  0.2310  0.0165  0.0408
15280W        W32127   9.909   2.276  12.462  0.0466  0.0607 -0.2256
15281W        W32128   7.905  11.757   3.368 -0.0440  0.0356 -0.1463
15282W        W32129   3.481   3.698   4.418 -0.0918 -0.1378 -0.1603
15283W        W32130   5.383   2.193   3.963 -0.2866  0.0538 -0.2466
15284W        W32131  13.785  19.502   3.340  0.1532 -0.5902  0.0051
15285W        W32132  15.279  12.191   3.185  0.1126 -0.1350 -0.0428
15286W        W32133   2.321  15.914   1.322 -0.1227 -0.1212  0.1550
15287W        W32134  12.779   2.709  14.121  0.2951  0.0434  0.3539
15288W        W32135   6.398  15.841   3.947 -0.2513 -0.2497 -0.4019
15289W        W32136  16.373   3.567  14.088  0.3128 -0.0244  0.1841
15290W        W32137  18.675   2.337  14.354 -0.0608  0.0476  0.1938
15291W        W32138  16.804   3.850   2.761 -0.1780  0.0641  0.3285
15292W        W32139   8.179   7.855   0.591  0.2418  0.1579 -0.1836
15293W        W32140   4.641  17.484   0.910 -0.1386 -0.0914 -0.0017
15294W        W32141  10.924   9.101   0.667 -0.3868 -0.0539  0.2297
15295W        W32142  12.444   2.463  10.491 -0.1855 -0.0173 -0.1537
15296W        W32143   3.686  13.725   1.538  0.1538  0.0502  0.2730
15297W        W32144  16.975   0.036   4.002 -0.0325 -0.0177 -0.4124
15298W        W32145   5.489   9.062   2.910  0.2020  0.1741 -0.1801
15299W        W32146  14.195   8.678   0.300 -0.0481 -0.3895  0.1100
15300W        W32147  15.501   1.570  11.791  0.2161  0.0285  0.0057
15301W        W32148  19.742   7.556   3.137 -0.1334  0.0805 -0.0968
15302W        W32149   9.233   8.891   3.348 -0.2754 -0.0824 -0.0695
15303W        W32150  15.305  16.596   2.833 -0.1110  0.1445 -0.1872
15304W        W32151   9.815  10.727   2.405 -0.1938 -0.0948  0.3246
15305W        W32152  12.560  18.233   1.631  0.0590  0.0045  0.4443
15306W        W32153   9.942  19.579   0.893 -0.1288 -0.0569 -0.0092
15307W        W32154   6.223   1.907   3.857 -0.2018  0.2031 -0.3654
15308W        W32155  12.843  11.479   2.435 -0.2042 -0.0076  0.0424
15309W        W32156   0.711   7.051   0.062  0.1575  0.5689  0.0328
15310W        W32157   8.270  11.332   3.096  0.3574 -0.0356 -0.4941
15311W        W32158   8.952   1.174   4.103 -0.1712  0.0290  0.0594
15312W        W32159   5.375  15.939  12.071 -0.2345 -0.3392 -0.0201
15313W        W32160  15.645   8.687   0.053  0.4530  0.1304  0.0562
15314W        W32161  13.680  11.026  11.463 -0.0645 -0.0342  0.0495
15315W        W32162   1.732   6.085   1.392 -0.1819 -0.2071 -0.1724
15316W        W32163  13.265  18.194  13.731  0.0961  0.3946 -0.0196
15317W        W32164  19.214  15.415  13.141 -0.0930  0.1398 -0.2464
15318W        W32165   1.099   6.020   3.125  0.0970 -0.4988 -0.1979
15319W        W32166   8.782   6.373   2.548 -0.0291 -0.1860 -0.1802
15320W        W32167  12.493   2.063   4.697  0.1928 -0.0294  0.1154
15321W        W32168  18.916  19.100   5.495 -0.3058  0.0709 -0.0333
15322W        W32169  14.205  12.493  10.867  0.2126 -0.0792  0.1099
15323W        W32170   5.515   6.128  12.043 -0.2248 -0.0065 -0.1715
15324W        W32171   8.816  19.631  11.238 -0.0774 -0.0930  0.2733
15325W        W32172  12.411  11.488   2.690 -0.3301 -0.0174  0.2980
15326W        W32173   3.412  12.288   5.963  0.2251 -0.1405  0.0228
15327W        W32174   3.062   7.883   1.180 -0.0323 -0.0337 -0.2283
15328W        W32175  10.690   1.880   0.018  0.0361  0.1959  0.1048
15329W        W32176  18.765  18.442  13.901 -0.3013  0.0178  0.0443
15330W        W32177   2.484   9.129  13.348  0.1915  0.2040 -0.0588
15331W        W32178  11.730   3.949   2.347 -0.2182 -0.4279  0.1761
15332W        W32179  12.084   1.538   9.963  0.0912 -0.2560  0.2515
15333W        W32180   0.994  16.864  13.532  0.0944  0.2601  0.0661
15334W        W32181  13.966  16.161   2.376 -0.3499 -0.1283  0.0432
15335W        W32182   1.193  17.149  13.165 -0.4074  0.0050  0.1570
15336W        W32183   4.953  14.652   4.104  0.0537  0.1577 -0.0793
15337W        W32184   0.703  14.900  13.583  0.1940 -0.0591  0.1900
15338W        W32185   4.266  19.868  10.334  0.0829 -0.1042 -0.5402
15339W        W32186   6.330   6.084   3.019  0.0543  0.0327  0.0566
15340W        W32187   6.699  11.378   2.151  0.0549  0.1447  0.1662
15341W        W32188   0.378   7.475  11.524 -0.1301  0.3246  0.1879
15342W        W32189   3.856  15.914  13.156  0.4969 -0.0762 -0.0564
15343W        W32190   1.068   0.845  10.663  0.0424 -0.3489  0.0187
15344W        W32191   1.273   0.841  10.139  0.0031 -0.0906  0.1992
15345W        W32192  12.711  10.591   0.955  0.2780 -0.0846 -0.1102
15346W        W32193  16.071  14.559   3.768 -0.1573  0.0008  0.0377
15347W        W32194  14.796   7.157   1.510 -0.0036 -0.3953  0.1857
15348W        W32195   4.849  15.725   4.697  0.0921  0.1981  0.1275
15349W        W32196   9.347   0.023  14.126 -0.2448 -0.0338  0.1929
15350W        W32197   6.231   4.083   2.747  0.3657 -0.1005 -0.1828
15351W        W32198   4.791  16.367   0.924  0.0233 -0.3143 -0.1774
15352W        W32199  11.966   7.646   2.151  0.2494  0.0586 -0.2441
15353W        W32200  15.025  10.853  12.586  0.4222 -0.0478 -0.1043
15354W        W32201   1.813  17.335   5.006  0.2305  0.0760 -0.2002
15355W        W32202  10.742   7.860   9.749 -0.1187  0.1155  0.0286
15356W        W32203  13.116   9.404  10.070 -0.4597  0.3003 -0.1406
15357W        W32204   2.204   7.418   3.260  0.3463  0.1719 -0.1633
15358W        W32205   4.682   8.596  11.660  0.0453  0.2833 -0.3160
15359W        W32206   6.534  14.274   2.912  0.1624 -0.0383  0.0230
15360W        W32207   0.790   2.050   4.912  0.2488  0.0506 -0.0699
15361W        W32208  12.620  17.205  10.121 -0.0335 -0.2477  0.1959
15362W        W32209  15.842  17.688  13.856  0.2643  0.1654  0.2695
15363W        W32210   2.269   3.234   1.231  0.0792  0.0465 -0.1707
15364W        W32211   5.687  15.614   1.531 -0.0385 -0.0845 -0.3520
15365W        W32212   5.988  19.623  14.084  0.1856  0.0419 -0.1434
15366W        W32213   4.405   6.564  12.459  0.0301 -0.3444  0.1685
15367W        W32214  14.844  19.300  13.031 -0.1066 -0.1134 -0.0226
15368W        W32215  19.724  18.936   0.388 -0.1820  0.4139  0.1291
15369W        W32216  16.332  11.581  14.080 -0.1517  0.0780 -0.0382
15370W        W32217  13.577  18.931   4.377 -0.0324  0.0788  0.1605
15371W        W32218  15.989   7.648  10.257 -0.2219  0.1409  0.4399
15372W        W32219   5.101  10.568   1.463  0.3164  0.0063  0.1496
15373W        W32220  13.936  17.469   1.946  0.1423 -0.0116 -0.2246
15374W        W32221  11.379  10.135   1.409  0.0070  0.0658 -0.2357
15375W        W32222  18.329  17.595   4.358  0.2030 -0.2664  0.2710
15376W        W32223  11.817   0.468   9.003  0.1385 -0.1971  0.0978
15377W        W32224   5.715   4.720   0.559  0.5243 -0.2864 -0.4699
15378W        W32225  15.010  10.658   0.036 -0.0153  0.0748 -0.1688
15379W        W32226  16.913   2.107   2.217  0.0775  0.0882  0.0631
15380W        W32227   7.371   5.076  12.518  0.3278  0.1932 -0.0147
15381W        W32228   0.047  10.079  12.986 -0.2048 -0.1200  0.2472
15382W        W32229  14.732  10.791  12.976 -0.0349 -0.2738 -0.2338
15383W        W32230  10.190  10.841  12.299 -0.0692 -0.0055  0.1917
15384W        W32231  14.266  13.465  11.062 -0.2087  0.0798  0.0030
15385W        W32232  15.120  19.705   4.227  0.1328  0.0785 -0.0209
15386W        W32233  19.647  16.909   5.452 -0.3141  0.1681  0.0696
15387W        W32234  14.326  13.969  12.937  0.0970  0.0256  0.0115
15388W        W32235   3.216  10.662  14.106  0.3328 -0.2616  0.0871
15389W        W32236   1.288  11.106  10.630 -0.0015  0.0128  0.2823
15390W        W32237  19.818  11.116  10.492  0.2135 -0.1404 -0.1912
15391W        W32238   1.046  10.260   4.890  0.1773 -0.2405 -0.1728
15392W        W32239  12.725  17.720   1.439 -0.0706  0.1443 -0.1537
15393W        W32240  14.231   0.114  13.954  0.0703 -0.0059 -0.0047
15394W        W32241   7.211   3.053  10.782  0.1452 -0.0459 -0.0391
15395W        W32242  14.426   9.936   4.113 -0.1145 -0.0130  0.2275
15396W        W32243  17.848  11.406   1.374 -0.0811  0.1079 -0.1163
15397W        W32244  13.857  17.444  12.813 -0.0553 -0.2486  0.2393
15398W        W32245   3.188  15.418  13.786 -0.2392  0.0642  0.2519
15399W        W32246  10.711   3.021   2.140 -0.1667  0.1777  0.1949
15400W        W32247   0.357  17.708   1.695 -0.1181  0.0868  0.1578
15401W        W32248   3.036   6.178  13.489  0.2375 -0.5851  0.0568
15402W        W32249  12.255   5.441  14.356 -0.0712 -0.1343 -0.0730
15403W        W32250   9.895  16.499  12.949 -0.1794 -0.1588  0.0886
15404W        W32251  19.552  12.068   1.174  0.1743 -0.0956 -0.0776
15405W        W32252  14.965   9.687  11.804  0.0995 -0.1380  0.1874
15406W        W32253  15.533  13.675   1.765  0.2475 -0.2273 -0.0817
15407W        W32254  16.383   8.319   1.945  0.1992  0.0146  0.0601
15408W        W32255   2.242   8.869  13.763  0.3229 -0.1299  0.3631
15409W        W32256   3.743   6.727   1.517 -0.2473  0.2771  0.3101
15410W        W32257   5.652  12.495  13.135  0.0511  0.1610 -0.3035
15411W        W32258  12.533  15.964  13.758  0.0166 -0.0180  0.0301
15412W        W32259  16.653  13.306  11.329 -0.3048 -0.3571 -0.1814
15413W        W32260   3.890  16.211  12.534  0.1266 -0.1595  0.4042
15414W        W32261  11.475   0.080   1.833  0.0521 -0.1142  0.0753
15415W        W32262  16.316  13.046   1.749 -0.0392  0.6305 -0.0508
15416W        W32263   6.345   5.948   4.403 -0.0838  0.4068 -0.2907
15417W        W32264   9.106   3.010   1.474 -0.0122 -0.0805  0.0636
15418W        W32265   5.600  18.075  13.712 -0.1610  0.0868 -0.2309
15419W        W32266   4.735  14.806   5.099  0.0342 -0.0133 -0.0562
15420W        W32267   4.475  12.793   3.717 -0.0664 -0.0472  0.0978
15421W        W32268  15.886   2.927   1.964 -0.1072 -0.0695  0.0589
15422W        W32269   5.262   6.611  14.245 -0.1259  0.0391  0.0240
15423W        W32270  15.286  10.189   2.630 -0.1578 -0.2219  0.2744
15424W        W32271   6.472  17.979   2.649 -0.0183  0.1411  0.5730
15425W        W32272  12.143  10.483   3.695  0.0016  0.1762 -0.0989
15426W        W32273  14.358   4.296   3.697  0.0955  0.1920  0.1878
15427W        W32274   4.296  17.623  11.485 -0.0639  0.0570  0.1849
15428W        W32275  12.161   8.487   1.616 -0.1517  0.2773  0.2555
15429W        W32276   5.103   5.154  11.207  0.2292 -0.3650  0.1992
15430W        W32277   9.757   7.779  10.670  0.1950 -0.1690 -0.2694
15431W        W32278  14.708  17.066   2.844  0.1197 -0.0005 -0.3229
15432W        W32279   7.274   3.439   4.388  0.1469  0.2334 -0.1019
15433W        W32280  19.203  16.521   2.451  0.1932 -0.3463 -0.0968
15434W        W32281   7.539   2.786   0.272 -0.3937  0.2424 -0.0022
15435W        W32282  15.681  14.895   4.763  0.1940  0.0853 -0.1383
15436W        W32283   9.184   7.369   1.592  0.1518 -0.1043 -0.1864
15437W        W32284   9.031  10.816   1.373  0.1257 -0.1076 -0.1656
15438W        W32285  18.249   7.276  11.141  0.2501 -0.2053 -0.2956
15439W        W32286   8.163  14.199   1.150  0.1626  0.0145  0.0254
15440W        W32287   8.754  12.419  11.972  0.2682  0.1148  0.1636
15441W        W32288  17.499  18.546   1.644 -0.0110 -0.4977 -0.0002
15442W        W32289  12.147   0.032   3.852  0.0105 -0.1091 -0.0407
15443W        W32290  10.937   6.494  13.773 -0.1494 -0.0729  0.0822
15444W        W32291  12.858   5.583   2.538 -0.1054  0.1648 -0.0256
15445W        W32292  15.689  12.601  13.824  0.1212 -0.1071 -0.1250
15446W        W32293  10.917   6.514   1.978 -0.2649 -0.0471 -0.2203
15447W        W32294   1.936  11.591  13.112 -0.1489 -0.0240  0.1048
15448W        W32295   9.007   0.878  13.319 -0.2656 -0.3742  0.2764
15449W        W32296   0.042   1.203   2.388 -0.1501  0.2594 -0.0685
15450W        W32297   1.727  14.954   3.154  0.3151  0.1308 -0.1147
15451W        W32298  16.604   5.197   1.642  0.1333  0.0852 -0.1736
15452W        W32299  16.268  15.027   3.802 -0.1124  0.0067  0.0484
15453W        W32300   5.772   8.817   1.489  0.0177  0.0431  0.2814
15454W        W32301   4.401   1.142   2.319 -0.1798  0.1820  0.2012
15455W        W32302  17.924   7.087  14.121  0.0773 -0.1411  0.1630
15456W        W32303  19.197   5.015  13.946  0.0030 -0.0757  0.1384
15457W        W32304   2.173   8.590   4.133  0.0057 -0.3155  0.2852
15458W        W32305  17.157   2.725  10.652 -0.0244 -0.0466  0.1238
15459W        W32306  14.889  16.892  11.211 -0.0885  0.2564  0.1936
15460W        W32307  19.340  12.927   2.292  0.1215 -0.0428  0.3741
15461W        W32308   2.720   9.942   4.337 -0.0864 -0.0986 -0.0560
15462W        W32309  16.484  13.549   3.535 -0.0571  0.0866  0.1466
15463W        W32310  13.698   3.162   1.529 -0.2814  0.2681  0.2738
15464W        W32311   5.010   6.469  13.206 -0.1175  0.0922 -0.0283
15465W        W32312  11.892   0.636  13.059 -0.2036 -0.5039  0.0364
15466W        W32313   2.630   4.164  13.597 -0.3800  0.2192  0.1805
15467W        W32314   9.309   9.776   0.294 -0.1675  0.2603 -0.2068
15468W        W32315   2.156   6.379   1.963 -0.2042 -0.0561  0.2730
15469W        W32316  18.937  16.402  10.233  0.1551 -0.1536 -0.3129
15470W        W32317  14.465   7.196   2.782 -0.2348 -0.2658 -0.1683
15471W        W32318  16.301  15.290   1.928  0.3173 -0.0060 -0.0897
15472W        W32319   4.053  15.943  14.113 -0.0941 -0.1215 -0.0843
15473W        W32320   7.036   1.428   4.842  0.0251 -0.1058 -0.1220
15474W        W32321   8.172   9.062   2.806  0.0788 -0.3908  0.1062
15475W        W32322  16.043  11.934   0.712 -0.1332  0.1135 -0.0068
15476W        W32323   1.682   1.595   4.350 -0.0537 -0.3923 -0.3550
15477W        W32324  15.177   7.961   0.802 -0.0296  0.3609 -0.0647
15478W        W32325   1.449   0.755   3.388  0.2418  0.1155 -0.1302
15479W        W32326   7.521   0.299   9.679 -0.0583 -0.1363  0.0163
15480W        W32327  11.224  11.487   0.325 -0.0048  0.2201  0.3731
15481W        W32328  11.039   4.811   9.718 -0.0158 -0.0019 -0.2315
15482W        W32329  16.911  15.615   2.336 -0.0592 -0.4159  0.1528
15483W        W32330  13.861  19.875   0.157  0.1181 -0.0005  0.0181
15484W        W32331  17.067   1.341   1.710 -0.1060 -0.5892  0.3521
15485W        W32332   5.269  16.778  12.386  0.1579 -0.1483  0.1670
15486W        W32333  11.924   9.435  11.399  0.1545  0.0771  0.0811
15487W        W32334   3.882  12.262   4.568  0.0268  0.0086 -0.2265
15488W        W32335  10.349  13.094   3.500  0.0888  0.0688  0.2067
15489W        W32336  14.008   3.534  13.817 -0.0049  0.0032 -0.1674
15490W        W32337   4.560   3.514   0.289 -0.1687  0.0781 -0.0083
15491W        W32338   5.758  15.294   1.938  0.2695  0.1858 -0.3498
15492W        W32339   7.039  11.848   1.766 -0.0669 -0.0804 -0.0231
15493W        W32340   5.933   3.672  12.244  0.0968  0.0180  0.0733
15494W        W32341  14.872   6.661  12.660  0.0372  0.0193 -0.4044
15495W        W32342   1.726  17.533  10.843  0.2477 -0.1555  0.1703
15496W        W32343   8.609  16.345   3.740 -0.0034  0.0553 -0.1182
15497W        W32344  10.017  11.847   3.844 -0.1107 -0.0764  0.3502
15498W        W32345   1.659  18.277  10.490 -0.2726 -0.2353  0.1900
15499W        W32346  13.152   5.512   1.264  0.0395 -0.3630 -0.0235
15500W        W32347   4.338   8.276   4.164  0.4534  0.1069  0.0852
15501W        W32348   0.640   9.183   2.248  0.1083  0.0323  0.1659
15502W        W32349  15.229  15.842  12.857  0.0024  0.1968 -0.1436
15503W        W32350   1.096  10.158   0.514 -0.0114 -0.0282  0.3606
15504W        W32351  19.192   9.459   2.426 -0.1828 -0.0142 -0.0546
15505W        W32352   4.825  10.784  12.355 -0.0985  0.2532 -0.0986
15506W        W32353   3.784   4.133  13.325  0.2015 -0.1128  0.0943
15507W        W32354  12.699   8.037   3.304  0.1196 -0.1409  0.3130
15508W        W32355   4.048   5.503  13.569 -0.0321 -0.1997 -0.1795
15509W        W32356  14.921   6.297  11.652 -0.0234  0.1703  0.2164
15510W        W32357  15.783  11.889   1.180  0.0114  0.1374  0.1552
15511W        W32358  19.023   0.093  10.566 -0.0164 -0.1610 -0.2928
15512W        W32359   3.477   2.125  13.032 -0.1039  0.3691  0.1838
15513W        W32360  11.242  18.376   2.588  0.1370 -0.0095 -0.0586
15514W        W32361   7.733  15.489   0.252  0.2182  0.1772  0.0345
15515W        W32362  15.945  13.639  12.388  0.0259 -0.0240 -0.1030
15516W        W32363  12.179  11.917   4.370 -0.2522  0.0894 -0.1866
15517W        W32364   2.390   4.275  14.097  0.2293 -0.0551 -0.1038
15518W        W32365  11.548   6.937   0.979  0.2312 -0.0810  0.0309
15519W        W32366   1.141   3.270  13.120 -0.0979  0.0980  0.0471
15520W        W32367  10.385   5.854   1.654 -0.2059 -0.2087  0.0332
15521W        W32368  18.286  12.581   0.720  0.3728 -0.0452  0.3104
15522W        W32369  10.850   2.783  10.907  0.0934  0.0045  0.3405
15523W        W32370  18.633   9.857  13.397 -0.0152 -0.2281  0.1806
15524W        W32371   9.670   6.984  13.280 -0.0278  0.1024  0.0301
15525W        W32372   3.064  10.067   4.709 -0.2624  0.2241 -0.4546
15526W        W32373   8.169  18.966   4.858 -0.0843  0.2146  0.1475
15527W        W32374   6.444  16.004   1.538  0.1714 -0.1461 -0.1484
15528W        W32375  13.697  16.446   2.014  0.3134  0.1561  0.2451
15529W        W32376  16.747  15.562   0.168  0.1618  0.0230  0.1185
15530W        W32377  14.204   3.828   4.211 -0.4824 -0.0112  0.1554
15531W        W32378  12.936  13.800   2.120 -0.0168 -0.2539  0.0377
15532W        W32379  18.656  12.286  11.333  0.2476  0.2210 -0.1160
15533W        W32380   3.384   6.801   2.005 -0.3509 -0.1738  0.2924
15534W        W32381   0.466   2.910  12.717  0.0965 -0.2307 -0.2973
15535W        W32382  10.635   1.075  12.189  0.0649  0.3895  0.2104
15536W        W32383  10.200  15.426   5.035  0.1559  0.1551 -0.2407
15537W        W32384   7.635   9.728   2.595 -0.1918  0.0585  0.1673
15538W        W32385  17.304   4.969  12.310 -0.2272  0.0896 -0.3203
15539W        W32386  10.070   4.818   4.091  0.2525  0.0118 -0.0679
15540W        W32387   2.922   0.344   4.774 -0.0647  0.2032 -0.0235
15541W        W32388  14.549   1.461   0.910  0.0035  0.1734  0.0261
15542W        W32389  18.368   6.794   2.518  0.0956 -0.0026  0.1030
15543W        W32390  13.564   1.542   0.937 -0.1207  0.1654 -0.0276
15544W        W32391   5.728   2.397   1.974  0.0130 -0.0460  0.1438
15545W        W32392  16.046   5.660  12.603 -0.1410 -0.0365  0.1355
15546W        W32393  11.757   8.778   0.605  0.2767 -0.1343 -0.2289
15547W        W32394   1.033   1.339   0.679  0.0633  0.1809  0.0699
15548W        W32395   1.168   3.867  11.272  0.0393 -0.3628 -0.1966
15549W        W32396  11.759  11.720  13.833  0.0756 -0.2137  0.3977
15550W        W32397   6.055   7.357   3.049  0.0102 -0.1398 -0.0953
15551W        W32398   4.947   7.033  11.297 -0.1881 -0.0233  0.0851
15552W        W32399   9.654  17.094   0.260  0.2766  0.3064 -0.2346
15553W        W32400   8.942   0.135   4.445 -0.1341 -0.1334  0.1623
15554W        W32401  13.016  12.403  11.525  0.3149 -0.0028  0.0993
15555W        W32402   9.129   8.991   1.787  0.1938 -0.1795 -0.0015
15556W        W32403  19.728  12.793   2.548  0.3338  0.2821  0.1966
15557W        W32404   6.397  12.844  13.355  0.1680  0.1106 -0.2020
15558W        W32405  16.270  10.573   2.532  0.1025 -0.0091  0.0142
15559W        W32406  13.530   9.809  12.881  0.2803  0.0325  0.3595
15560W        W32407   6.736  17.402  10.886  0.0480 -0.3479  0.0986
15561W        W32408  11.225   2.054  10.511 -0.1543  0.2958  0.1416
15562W        W32409  14.893   4.880  11.113  0.0215 -0.0994 -0.1057
15563W        W32410  14.193   2.343   1.922  0.1205  0.3757  0.0945
15564W        W32411   9.362  14.573  11.523 -0.3159  0.1491 -0.2338
15565W        W32412  13.471  16.357  10.170  0.3892 -0.0327 -0.3033
15566W        W32413  10.373   9.760   2.285  0.2873  0.1537  0.1033
15567W        W32414  10.441  18.533   4.323  0.0913 -0.2439  0.2292
15568W        W32415  10.974   9.020  11.230  0.2245  0.0950  0.0121
15569W        W32416   0.432  14.114   5.302  0.0583  0.1214 -0.0154
15570W        W32417  15.983   2.314  13.170  0.1412  0.0679 -0.2805
15571W        W32418   6.669  11.262   3.565  0.0086  0.1385  0.0941
15572W        W32419  11.045  15.670   0.762 -0.1048 -0.1589 -0.2907
15573W        W32420   1.658  17.343   0.623  0.0099 -0.0732  0.0276
15574W        W32421   5.825  18.636  13.578  0.1132  0.1775 -0.4000
15575W        W32422  12.508  18.204   2.764 -0.1391  0.0167 -0.2238
15576W        W32423   8.257   1.898  10.102 -0.0047  0.1586 -0.2071
15577W        W32424   3.982   0.621   3.264 -0.3354  0.0192 -0.1175
15578W        W32425   7.157   9.098   1.365  0.0807  0.1458 -0.0372
15579W        W32426  10.334   5.190   3.061 -0.1055 -0.1044 -0.2303
15580W        W32427  13.349   3.419   0.316  0.1454 -0.1830  0.0743
15581W        W32428  13.206   3.972  13.865 -0.1595  0.0707 -0.1602
15582W        W32429  18.004   8.735  12.044 -0.1549  0.1924  0.1491
15583W        W32430   0.372   5.244  13.125  0.2897  0.0995  0.0992
15584W        W32431   0.249   8.932  11.784  0.0414  0.0379  0.0098
15585W        W32432  12.403   0.947   3.771  0.0397 -0.0403  0.2536
15586W        W32433  12.776  11.076  14.326  0.2361 -0.0374 -0.1695
15587W        W32434   6.614  12.308   4.824 -0.0299  0.0920  0.2191
15588W        W32435  19.765   5.241   3.095 -0.3434  0.3718 -0.3077
15589W        W32436   7.381  17.185  14.135 -0.0501 -0.0174  0.0332
15590W        W32437   1.196   5.936  12.148  0.0689 -0.0277  0.2325
15591W        W32438  18.054  12.482  12.010  0.1134  0.1891 -0.0908
15592W        W32439   5.305   9.016  10.759  0.0780  0.0476  0.1465
15593W        W32440   2.353  13.052   0.170 -0.0007 -0.4008  0.1852
15594W        W32441  12.966  16.188   1.184 -0.2389  0.4050 -0.0261
15595W        W32442  14.907  10.803   5.023 -0.1730  0.1933 -0.1919
15596W        W32443  11.934   4.307  10.911  0.1796  0.0396  0.0875
15597W        W32444   8.168   1.834   0.304 -0.2157 -0.1520 -0.1016
15598W        W32445   8.839  14.684   4.113  0.1319 -0.2369  0.2360
15599W        W32446  14.548   9.540  12.023 -0.0700  0.4275  0.4160
15600W        W32447   1.251  15.156   0.047  0.0480 -0.1299  0.3383
15601W        W32448  17.373  17.244   0.872  0.0046  0.1331  0.2817
15602W        W32449  11.724   7.564  12.113 -0.1991  0.0566 -0.1160
15603W        W32450   0.718  19.522  13.417 -0.1376 -0.1428  0.3086
15604W        W32451  17.702  12.556  13.782 -0.2279  0.3529  0.1891
15605W        W32452  13.055  16.208  13.698 -0.0882  0.0998 -0.5267
15606W        W32453  19.265  11.932  11.761  0.2325 -0.1142  0.0659
15607W        W32454   7.786   2.407   3.417  0.0638 -0.1337 -0.1479
15608W        W32455  10.184  13.755   1.375  0.5196 -0.1611 -0.2615
15609W        W32456  17.949  16.282  10.422 -0.0092 -0.2897 -0.0327
15610W        W32457  12.599   0.262   1.228  0.2036  0.4119  0.3706
15611W        W32458   0.216   7.310  13.229  0.0778 -0.2184 -0.0653
15612W        W32459  14.781   1.165   2.537  0.0289 -0.2176  0.4946
15613W        W32460   3.116  13.253  10.822 -0.4633 -0.1765 -0.3038
15614W        W32461  11.984   2.241  12.349  0.0602  0.0474 -0.0139
15615W        W32462   7.892   4.869   3.357  0.2448  0.1742 -0.0515
15616W        W32463  13.184  10.691   0.923  0.2037 -0.0194 -0.1387
15617W        W32464   5.328   5.645   0.037 -0.1238  0.1637  0.1419
15618W        W32465  10.723  16.427  12.518 -0.1571  0.3469 -0.0596
15619W        W32466   0.283   8.435   1.542 -0.3880 -0.0005 -0.2949
15620W        W32467   0.288   9.138   0.534  0.1192  0.0922 -0.1352
15621W        W32468  15.523   2.221   3.152 -0.0676  0.3735 -0.2714
15622W        W32469  15.571   8.769   2.344 -0.1244  0.0783 -0.1318
15623W        W32470  18.446  10.568  13.751  0.1248  0.1645  0.0551
15624W        W32471   8.756   5.225   2.849 -0.3201 -0.2597 -0.1665
15625W        W32472   5.988   3.633   2.677  0.1391  0.1192  0.3726
15626W        W32473  18.069   8.192   1.754  0.0242  0.0286  0.3012
15627W        W32474  10.865  16.462  10.139  0.0609 -0.0301  0.3005
15628W        W32475   1.795   3.245   3.474  0.1380  0.2913 -0.1596
15629W        W32476  17.670  17.712   3.102  0.1197 -0.1244 -0.2176
15630W        W32477  14.492   6.041   3.215  0.4123  0.0487  0.0036
15631W        W32478  18.703   1.459  10.801  0.1084  0.0686 -0.0378
15632W        W32479   3.837   7.471   2.370  0.0594  0.0834  0.0779
15633W        W32480  15.150  14.767  14.077 -0.3020  0.0410  0.0882
15634W        W32481   2.700   7.580   3.036 -0.0630  0.3709  0.2359
15635W        W32482  13.742  16.078  11.220 -0.0791  0.1384 -0.3182
15636W        W32483   7.703   1.963   0.037  0.1192 -0.0295  0.1038
15637W        W32484  16.470  11.173  11.420  0.1176 -0.2308  0.0470
15638W        W32485   8.547   1.495   0.492 -0.4165 -0.2832 -0.0573
15639W        W32486   8.015  13.574   1.533  0.2056 -0.5132 -0.1436
15640W        W32487  19.813   4.272  12.272 -0.0417 -0.0613 -0.2597
15641W        W32488  13.308   3.142  12.827  0.0787  0.3160 -0.4437
15642W        W32489   7.056  16.570   5.038 -0.0334 -0.2427 -0.1466
15643W        W32490  15.623   7.935  10.058 -0.4223  0.1338  0.1365
15644W        W32491  15.726   4.504   1.040  0.0992  0.0776  0.2376
15645W        W32492  12.613   8.536  12.066 -0.1993 -0.0765 -0.1338
15646W        W32493  16.614  11.820   3.961  0.2239 -0.0934  0.0802
15647W        W32494   6.928  14.410   1.898  0.1173  0.0166 -0.2630
15648W        W32495  16.463   3.577  13.229  0.0405  0.1443  0.4916
15649W        W32496   4.112   6.585  10.525 -0.1539  0.0365 -0.1493
15650W        W32497   9.437   2.920   1.806 -0.2621  0.2554 -0.3163
15651W        W32498   7.157  14.505   0.544 -0.1849  0.2712 -0.0754
15652W        W32499   5.958   5.008   9.842 -0.1198  0.0311 -0.1422
15653W        W32500  13.751  19.034   0.808  0.1909  0.0666 -0.2068
15654W        W32501  14.832  17.464   3.676 -0.2383 -0.2357  0.0215
15655W        W32502  10.705  12.263  13.877 -0.0188  0.1083  0.1706
15656W        W32503   5.252  12.980  10.555 -0.1162  0.1361 -0.2433
15657W        W32504   1.465  14.445  12.218  0.2077  0.1307 -0.0576
15658W        W32505   6.069   1.405  11.867  0.2022 -0.1537 -0.3280
15659W        W32506   7.332  14.628   2.420  0.2564 -0.2440 -0.1852
15660W        W32507  17.740   3.319  12.395  0.3386  0.1291 -0.1876
15661W        W32508   2.527   0.454   9.813 -0.0520  0.1455  0.1938
15662W        W32509   5.479   4.412  10.468  0.2487 -0.1107  0.2267
15663W        W32510  14.887   6.281   1.976  0.0477 -0.1371 -0.0879
15664W        W32511  14.944  13.762   4.074  0.3711  0.1639  0.1698
15665W        W32512  13.915  13.258  12.311 -0.0828  0.2336  0.2427
15666W        W32513  17.759  14.454  10.393 -0.0892 -0.1462 -0.1007
15667W        W32514   5.421   6.023   9.185 -0.0832  0.0817 -0.3147
15668W        W32515   8.939   3.869   4.014 -0.0505  0.1980 -0.0070
15669W        W32516  15.943  10.100   2.534 -0.4777  0.1403 -0.2585
15670W        W32517   5.801  16.328   2.926  0.0960  0.1857 -0.2418
15671W        W32518   0.675   5.644  12.948  0.0093 -0.0251  0.0237
15672W        W32519  12.727  16.272   1.596 -0.1684 -0.0599 -0.1045
15673W        W32520   6.700   0.295   4.039 -0.0587 -0.3551 -0.0928
15674W        W32521  14.175  19.049   5.151  0.2067  0.1108 -0.0726
15675W        W32522  12.350   4.414  13.414 -0.2654 -0.3725 -0.1932
15676W        W32523  11.575  16.292   3.857  0.1409 -0.0591 -0.4742
15677W        W32524   6.220  13.666   9.443  0.1083 -0.2268  0.2169
15678W        W32525   8.627   2.195  11.983 -0.0238  0.1688 -0.1872
15679W        W32526  12.843   6.753  13.952  0.0556 -0.2014 -0.0478
15680W        W32527  19.033   4.703  12.659  0.3294  0.1106 -0.2014
15681W        W32528  19.621   8.167  11.848 -0.2878  0.0404  0.0454
15682W        W32529   5.959   7.439  10.621 -0.1085  0.1762  0.2763
15683W        W32530  15.145  13.953  13.392 -0.0007 -0.0875 -0.0553
15684W        W32531  12.565  10.472  13.620  0.1974 -0.2237  0.1439
15685W        W32532   5.378   4.484   0.260  0.2145  0.0765 -0.0014
15686W        W32533   2.401  18.064  11.344  0.1365 -0.0851 -0.1868
15687W        W32534   2.221   0.018   0.278  0.0293  0.1350 -0.1361
15688W        W32535   6.449  10.163  12.604 -0.2310  0.0416 -0.2596
15689W        W32536  11.532  19.230   4.492 -0.1916  0.0790  0.0636
15690W        W32537   8.123   6.448   9.764  0.1123 -0.1473 -0.0750
15691W        W32538  15.406  15.550  10.895  0.0078 -0.0611  0.0510
15692W        W32539   5.809  15.726  14.245 -0.1605 -0.2027  0.2104
15693W        W32540   5.123  17.254  10.239  0.2549  0.1056  0.1725
15694W        W32541   9.663  12.260  11.622  0.1835  0.0224  0.1817
15695W        W32542   0.733  15.624   2.994 -0.0265 -0.2590 -0.0871
15696W        W32543  10.281   5.191   2.458  0.2991 -0.0983 -0.3307
15697W        W32544  16.448   4.954   4.108 -0.1244 -0.3418 -0.4468
15698W        W32545   7.168   4.757   3.575 -0.1214  0.2446  0.0938
15699W        W32546  14.362  18.116   0.063 -0.2797 -0.0026  0.0380
15700W        W32547   3.142  13.331  14.239 -0.1980 -0.2665  0.1556
15701W        W32548  17.145  14.954   4.040 -0.2109 -0.1544 -0.2980
15702W        W32549  13.821   6.651   3.310 -0.0773 -0.2154  0.1793
15703W        W32550   9.819   4.323   2.858 -0.0577  0.0619  0.1928
15704W        W32551   3.936  15.772  12.220 -0.1816 -0.0210 -0.0969
15705W        W32552   1.526  10.222  14.206  0.1127  0.1342  0.2190
15706W        W32553  10.239  19.754   0.491 -0.0180  0.0600  0.1294
15707W        W32554   0.395   5.798  13.389 -0.2408 -0.0506 -0.2734
15708W        W32555  18.457   8.406   4.756 -0.0531 -0.0459 -0.1782
15709W        W32556  15.524   0.623   0.971 -0.1038 -0.3177  0.1419
15710W        W32557  10.734   7.382  10.648 -0.0195 -0.0522 -0.4359
15711W        W32558   0.740   1.373  12.344  0.2678 -0.2018 -0.1081
15712W        W32559   6.246  11.156   4.308 -0.0223  0.3456  0.0528
15713W        W32560   8.762   4.355   1.299 -0.1868 -0.0210 -0.1760
15714W        W32561  13.848   1.131  12.149  0.0286  0.1981  0.3089
15715W        W32562  11.338  10.776  11.604 -0.2319 -0.1107 -0.0903
15716W        W32563  15.458   0.650   2.009 -0.0602  0.0710 -0.2130
15717W        W32564  16.915   1.081   0.006 -0.1244  0.1559  0.1548
15718W        W32565   4.370  14.600   3.989 -0.0673  0.3391 -0.1578
15719W        W32566  13.891   2.791   3.464 -0.0005  0.0897  0.0723
15720W        W32567  12.941  17.201  12.605  0.1910  0.1393  0.2653
15721W        W32568   5.710   0.372   4.728  0.1979 -0.1447  0.1305
15722W        W32569  10.336  11.610   4.314  0.0273 -0.0154  0.0919
15723W        W32570  15.383  14.692   1.671  0.2740  0.0076 -0.0191
15724W        W32571   6.619  13.555   1.834 -0.3975  0.1694  0.3768
15725W        W32572  12.293   8.381  10.193 -0.3150 -0.2130  0.1931
15726W        W32573  17.089   5.061  14.332 -0.2281 -0.0586  0.1302
15727W        W32574   7.469   5.256  13.149 -0.0727 -0.1100  0.1010
15728W        W32575  11.144   2.370  14.355  0.0816  0.0252 -0.0706
15729W        W32576   5.982   3.552  12.831 -0.1740  0.0244  0.3616
15730W        W32577  14.602  16.605  13.063 -0.0463  0.0238 -0.2344
15731W        W32578   0.396  17.681  13.374 -0.2642 -0.0052  0.0722
15732W        W32579   3.160   3.558   8.998 -0.2610  0.2879  0.1299
15733W        W32580  16.003  17.973  12.723 -0.5608  0.0314  0.0705
15734W        W32581  13.078  11.794   4.465 -0.2240  0.2606 -0.0530
15735W        W32582   3.675   6.397   2.206 -0.1524  0.0624 -0.0964
15736W        W32583   0.363   8.069   4.375  0.2344 -0.1430  0.0417
15737W        W32584  16.231  12.632   0.081 -0.0269  0.0799  0.0000
15738W        W32585  12.370  14.391   4.481  0.1759  0.3619 -0.0915
15739W        W32586  16.084   2.523  11.580  0.0712  0.1034  0.2199
15740W        W32587   8.439   5.960   1.295  0.2232  0.2471 -0.1747
15741W        W32588  16.054  10.353  14.187  0.2731 -0.3305  0.1572
15742W        W32589   5.655   7.524  14.313 -0.1337 -0.1110  0.1056
15743W        W32590   3.070   8.488   1.851 -0.3751 -0.0964 -0.3203
15744W        W32591  17.134  15.274   2.730 -0.3775 -0.3536 -0.0094
15745W        W32592   3.592   5.069  11.918 -0.0997  0.1994  0.1218
15746W        W32593  10.273   0.197  13.723 -0.3157  0.0729 -0.2086
15747W        W32594   1.325   7.617  13.683  0.1228 -0.0818 -0.2241
15748W        W32595  16.896  19.294  12.941  0.1199 -0.2576  0.2785
15749W        W32596   8.025   1.088   3.668  0.0233 -0.1059  0.1677
15750W        W32597   3.961   6.114   2.489 -0.1872  0.1728 -0.0702
15751W        W32598  17.552   2.244   1.263 -0.2119  0.0586  0.1413
15752W        W32599   9.918   3.232  14.313  0.1218 -0.1076 -0.1544
15753W        W32600  12.255  11.028  12.278  0.2133  0.0560  0.2719
15754W        W32601   7.840   6.503   2.384 -0.1996 -0.1664 -0.0688
15755W        W32602   9.241  19.883   2.718 -0.1014  0.1248  0.1917
15756W        W32603   0.265   4.947   9.925 -0.0818 -0.0720  0.0565
15757W        W32604   5.652  10.618  13.573  0.3312  0.0441 -0.3741
15758W        W32605   8.215   6.749  13.509  0.0804  0.1579  0.3795
15759W        W32606   5.853   7.907  13.833  0.1001  0.1415 -0.0599
15760W        W32607   9.481   4.400  11.957  0.3709 -0.0011  0.2673
15761W        W32608   4.058  18.715  12.468  0.1033 -0.0484 -0.0197
15762W        W32609   3.842  14.513   1.932  0.1145 -0.2456 -0.1063
15763W        W32610   5.413   0.488   3.126  0.1770  0.3762  0.1967
15764W        W32611   3.605  11.131  12.574  0.2584 -0.1677  0.2093
15765W        W32612   0.214   7.109  14.148 -0.0301  0.3395 -0.1274
15766W        W32613   7.082   2.809  13.191 -0.2330  0.0721 -0.3380
15767W        W32614   8.625  12.499   2.031 -0.1499 -0.2635  0.1536
15768W        W32615  10.836  15.793   2.124 -0.2589  0.1857  0.1486
15769W        W32616   5.333   9.642   0.970 -0.0067 -0.0429  0.0381
15770W        W32617   4.793  11.924  12.842  0.0251 -0.1836 -0.1920
15771W        W32618  10.873   1.736  10.901 -0.0718  0.0491  0.2693
15772W        W32619  17.315   5.431  12.709  0.1901  0.1484  0.3501
15773W        W32620   4.326   3.281  10.056 -0.0768 -0.0018 -0.1248
15774W        W32621   6.185   7.616   3.574  0.2579 -0.5639  0.0452
15775W        W32622  10.625  17.795  10.303  0.0412 -0.2788 -0.1466
15776W        W32623  18.160   3.580  13.661  0.0078  0.1806 -0.1172
15777W        W32624  10.650   9.187   2.993 -0.1474 -0.0656  0.2852
15778W        W32625  15.767  13.277   2.413  0.4763  0.4028  0.2883
15779W        W32626   3.366  18.215   4.469 -0.1426 -0.3443 -0.5878
15780W        W32627  13.206  14.068  11.824  0.1873  0.1071 -0.3099
15781W        W32628   5.995   0.773   4.631  0.0905 -0.1599  0.3502
15782W        W32629   1.068   9.178  12.318  0.0122 -0.0160  0.2391
15783W        W32630  10.048   7.554  12.227 -0.3103 -0.3671 -0.0020
15784W        W32631   6.523  18.650   1.837  0.1185 -0.1427  0.2305
15785W        W32632  18.776   4.727   4.762  0.0547 -0.1279  0.1477
15786W        W32633   8.629  12.785   2.735 -0.1718  0.0172  0.0122
15787W        W32634  15.384   7.207  12.117 -0.0453 -0.0254 -0.1826
15788W        W32635  13.767  17.697   2.895  0.0679  0.1040  0.0260
15789W        W32636   2.972   6.159  10.802  0.5242 -0.0323  0.0093
15790W        W32637   8.770  16.267  12.546 -0.2124  0.0809  0.3215
15791W        W32638  13.338  11.005   1.289  0.1966 -0.2356 -0.2784
15792W        W32639  18.422   9.817  12.955  0.2036 -0.3296 -0.0842
15793W        W32640  19.426  18.350  12.241 -0.3460 -0.3804 -0.0057
15794W        W32641  14.921   8.483   3.019  0.0392 -0.2917  0.1388
15795W        W32642  17.092   2.554   2.381 -0.0478  0.2229 -0.0234
15796W        W32643   6.874   3.344   4.051  0.0521 -0.1608  0.0660
15797W        W32644  17.069   6.791  14.047 -0.0779 -0.0138  0.4109
15798W        W32645  16.768  10.691  13.895  0.0159  0.0439  0.2441
15799W        W32646  19.762   2.507   2.549  0.3152  0.4820  0.1602
15800W        W32647   6.439  14.232  13.531  0.1178  0.0269  0.0847
15801W        W32648  13.213   7.640  10.847  0.2102 -0.4196 -0.2258
15802W        W32649   3.385   6.216  10.961 -0.4837  0.0051 -0.1547
15803W        W32650  17.102  18.400  11.051 -0.2285 -0.1461 -0.0419
15804W        W32651   8.887  11.825  11.112  0.2275  0.1879 -0.0024
15805W        W32652   8.884   7.729  10.163 -0.3540  0.0145 -0.2648
15806W        W32653   6.467   4.695  11.217  0.3736  0.1184 -0.2105
15807W        W32654   8.378  10.353  12.567  0.2281  0.4629  0.1595
15808W        W32655   7.070  14.044  10.428 -0.1727 -0.0988  0.1075
15809W        W32656   9.380   9.586   9.772  0.2566  0.2380  0.0148
15810W        W32657  14.900   0.080   1.040  0.2294 -0.1114 -0.1750
15811W        W32658  17.322  15.393   3.901 -0.1148  0.0480 -0.1773
15812W        W32659  15.188   8.556  12.743  0.2632 -0.1826  0.1978
15813W        W32660   4.248   9.678   5.411  0.5695 -0.2666  0.0811
15814W        W32661   4.675  16.664  12.574  0.2170 -0.0363  0.1494
15815W        W32662  16.449  13.772  12.580 -0.0135 -0.0013 -0.2060
15816W        W32663  19.871  12.630   5.206 -0.1074 -0.0823 -0.2739
15817W        W32664   3.432  10.697   1.724 -0.0983 -0.3047 -0.2952
15818W        W32665   9.680  19.022  13.237  0.2475  0.0396  0.0199
15819W        W32666  14.512   8.622   1.880 -0.0948  0.1293  0.0460
15820W        W32667  15.098   2.630  11.997 -0.0607 -0.0460 -0.0290
15821W        W32668   8.431  19.209  13.431 -0.2235 -0.2365 -0.1349
15822W        W32669  16.916   5.478  10.586 -0.0265  0.0501  0.0754
15823W        W32670   2.288   5.213  13.850  0.2966 -0.0992  0.0243
15824W        W32671  13.126   2.563  11.083 -0.0510 -0.0450 -0.0567
15825W        W32672   1.839   6.891  11.037  0.0651 -0.0575  0.0945
15826W        W32673   0.897   5.830   2.704  0.2468  0.2721  0.3077
15827W        W32674   6.435   1.120   3.227  0.1978 -0.2099 -0.0333
15828W        W32675  18.914   0.434   1.259 -0.2000  0.2492 -0.1801
15829W        W32676   1.220   5.037   1.212  0.1380  0.0111 -0.0190
15830W        W32677  17.283   4.616   0.115 -0.2601 -0.1085  0.2085
15831W        W32678  15.872  13.375  14.006  0.0210 -0.2964  0.1155
15832W        W32679   1.913   2.842  13.818  0.1327  0.1254  0.2618
15833W        W32680   7.852   3.255  12.928  0.0472  0.1591  0.0885
15834W        W32681  16.482   6.920  13.035  0.0974 -0.0123  0.2037
15835W        W32682   5.237  15.658   1.339  0.2286  0.0752  0.0720
15836W        W32683  16.532   8.887   2.157  0.0716  0.1520  0.1373
15837W        W32684  15.484  18.839   5.333  0.0688  0.0795  0.0647
15838W        W32685   8.768   7.229   5.210 -0.0790 -0.0540 -0.1780
15839W        W32686  12.295  14.413  11.626 -0.0182  0.1880 -0.3829
15840W        W32687  11.076  18.713   3.587  0.2044  0.0678 -0.0643
15841W        W32688   6.614  13.300   0.486 -0.1066  0.2341 -0.3235
15842W        W32689   5.796  10.820   1.520 -0.0390  0.2766 -0.2169
15843W        W32690  10.175   7.611   8.731  0.2037  0.2248 -0.1917
15844W        W32691  16.977   3.351   3.647  0.2239 -0.0263  0.1550
15845W        W32692   2.420   4.410   0.232 -0.0528  0.5042  0.0787
15846W        W32693   3.095  17.611   3.467  0.0079 -0.0400  0.2691
15847W        W32694  10.895  10.986   3.113  0.2305  0.4189  0.2640
15848W        W32695   3.476  10.378   2.217  0.1143 -0.1288  0.2289
15849W        W32696  14.955   4.130  10.575  0.0814  0.1549 -0.3168
15850W        W32697  13.050  14.648   2.915  0.2408  0.0588  0.1606
15851W        W32698  10.044   7.091  11.825  0.2771  0.0348  0.0534
15852W        W32699   6.403   8.196  12.684  0.3556  0.1458 -0.1452
15853W        W32700  19.399   6.628   0.086  0.2078 -0.1238 -0.2364
15854W        W32701  17.579   0.656  12.574 -0.0348  0.1117 -0.1035
15855W        W32702  17.904  11.858  11.431 -0.1146  0.1758  0.2336
15856W        W32703   4.045   3.131  12.609 -0.1787  0.0541 -0.6353
15857W        W32704   1.461  14.065  12.839  0.1052 -0.0122  0.2904
15858W        W32705  15.061  14.631   3.477  0.1305 -0.0201 -0.0911
15859W        W32706   8.744   9.676   1.815  0.1271  0.0960 -0.3230
15860W        W32707   5.139   3.782  11.337  0.2288  0.1286 -0.0053
15861W        W32708  15.744   6.324  13.479  0.4317 -0.1474  0.0592
15862W        W32709  18.164  10.275   1.533  0.2893 -0.2076  0.1154
15863W        W32710  11.379  12.043  11.123  0.1741  0.1086 -0.1090
15864W        W32711  19.405   8.637   0.200 -0.0550 -0.3482 -0.0857
15865W        W32712   4.228   1.391   1.871 -0.0345  0.0283 -0.0939
15866W        W32713  15.686   7.950  10.841 -0.1882 -0.1703 -0.0224
15867W        W32714   9.642   7.332  10.420 -0.1643 -0.0920  0.0724
15868W        W32715  13.805  11.393   4.184  0.0777  0.0375 -0.0281
15869W        W32716   7.370   5.892  12.056 -0.3973 -0.0631  0.0389
15870W        W32717  15.250  15.909   2.762 -0.1534 -0.3449  0.5298
15871W        W32718   0.481   0.844   3.857  0.2201  0.2587 -0.1349
15872W        W32719   5.861   9.133  14.012 -0.1748 -0.0694 -0.1541
15873W        W32720   4.579  18.406  13.757 -0.2043 -0.0108  0.2782
15874W        W32721  16.369   4.801   1.992 -0.3446 -0.0598 -0.1706
15875W        W32722  17.112  18.593   0.122 -0.2402  0.0564 -0.0858
15876W        W32723  15.745   6.036   0.957 -0.2037 -0.0041  0.2353
15877W        W32724  14.979   7.751  13.204  0.0226 -0.0948 -0.1661
15878W        W32725   9.987   3.971  11.267 -0.1713 -0.5294  0.2272
15879W        W32726  12.398   5.887   9.792 -0.0928 -0.3693 -0.4333
15880W        W32727   1.393   6.772  13.719 -0.3671  0.2842  0.0108
15881W        W32728  12.692   0.993  10.420 -0.0123 -0.0246  0.0812
15882W        W32729  19.006   4.203  13.358 -0.0926  0.3255 -0.0887
15883W        W32730  11.055  15.962   4.910 -0.3289 -0.2410  0.1536
15884W        W32731  16.451   8.972  12.395  0.0779 -0.0119 -0.0669
15885W        W32732  18.050   2.655   3.860  0.1360  0.1000 -0.3076
15886W        W32733  12.688   7.943   0.334 -0.0538 -0.0778 -0.0071
15887W        W32734  15.404   6.856   4.238  0.3951 -0.2817  0.2208
15888W        W32735   8.667   7.189  10.220 -0.0465  0.3263 -0.2053
15889W        W32736  14.129   6.375   0.113 -0.0781  0.4029  0.1398
15890W        W32737  17.249  13.194   1.099 -0.1719  0.1283  0.1232
15891W        W32738   4.791  16.369  10.319  0.0496  0.1169 -0.0805
15892W        W32739  10.615  11.319   3.794  0.0117 -0.0323 -0.1206
15893W        W32740   6.123  17.942   2.237  0.1458  0.0164 -0.5326
15894W        W32741  13.728  10.348  12.629 -0.1984 -0.1150  0.1553
15895W        W32742   4.627  11.483  10.565 -0.2100 -0.1756  0.0542
15896W        W32743  16.743  14.059   1.416 -0.2434 -0.3546 -0.0745
15897W        W32744   0.208  11.767   3.989  0.0888  0.1892  0.2195
15898W        W32745   5.912  13.042   3.453  0.0712  0.1499  0.2956
15899W        W32746   6.607  19.071  11.275  0.0368 -0.1483 -0.1605
15900W        W32747  11.824  13.104  11.399  0.0639  0.1609 -0.2721
15901W        W32748  15.087  11.275  13.783  0.0956  0.1782  0.0864
15902W        W32749  19.561   7.905   3.659  0.2671 -0.2247  0.1073
15903W        W32750   0.526  19.692   0.542  0.1081 -0.0570 -0.1006
15904W        W32751  10.967  18.593  10.069 -0.0953  0.3915  0.1636
15905W        W32752   1.014   2.360  13.148  0.1423  0.4250 -0.3436
15906W        W32753   6.988   7.697  12.508 -0.0138  0.0940 -0.0652
15907W        W32754  17.940   0.753   4.313  0.1566 -0.3992 -0.0166
15908W        W32755   3.500   3.128  14.146  0.3283  0.2074  0.0302
15909W        W32756   4.462   6.794   3.734 -0.0855 -0.2686  0.2717
15910W        W32757  15.704   8.428  10.757 -0.3837  0.1098  0.2497
15911W        W32758  10.373  13.530   3.223  0.1237 -0.1869  0.1669
15912W        W32759  10.790   2.503   4.207  0.0002 -0.2097 -0.0928
15913W        W32760   7.024  14.060  12.385  0.0657 -0.0868 -0.1669
15914W        W32761  10.480  10.598   2.313  0.1406  0.2309 -0.0821
15915W        W32762  12.241  13.127   3.501 -0.4821 -0.0018  0.1722
15916W        W32763   8.139  10.217   2.462  0.0161  0.0616 -0.0317
15917W        W32764  18.755   2.382   3.136 -0.4489  0.2325 -0.0057
15918W        W32765   5.273  15.431   4.623 -0.1046  0.0087  0.0580
15919W        W32766  16.567  17.818   2.770 -0.0843  0.1344  0.1395
15920W        W32767   7.797  13.946  13.498  0.1380 -0.0927 -0.2168
15921W        W32768   0.647  19.398   2.446 -0.1074 -0.0562 -0.3568
15922W        W32769  17.557  10.743  11.884  0.4748 -0.1725  0.0607
15923W        W32770  17.520  10.707   4.163  0.1630  0.3079 -0.2496
15924W        W32771   4.672  14.794  14.043  0.4661  0.4850  0.1475
15925W        W32772   6.806  14.540  12.676  0.0105  0.4008  0.0202
15926W        W32773   6.487  13.230   0.001 -0.1077  0.2300  0.0771
15927W        W32774  13.495   8.187   4.265 -0.0548 -0.1110 -0.1821
15928W        W32775  10.800   3.285   3.893  0.0550  0.1989  0.1229
15929W        W32776   0.396  15.486  10.640  0.1563  0.0933  0.1993
15930W        W32777  11.858   8.227   0.394  0.3050 -0.2614 -0.2873
15931W        W32778   9.513   9.996  12.583 -0.2068  0.0196 -0.0104
15932W        W32779   4.317   8.297  11.686 -0.2491 -0.2258 -0.4884
15933W        W32780   9.786   0.447   3.533 -0.6482 -0.0919  0.0568
15934W        W32781   7.917  19.787   2.643  0.0160  0.2374 -0.1385
15935W        W32782  12.622   3.794   9.897 -0.0661 -0.2335  0.0208
15936W        W32783   6.822   7.012   1.308  0.0310  0.1389  0.4739
15937W        W32784   9.480   0.425  13.844 -0.1923 -0.0937  0.1245
15938W        W32785  16.285   4.199  10.949 -0.0945 -0.0057  0.3005
15939W        W32786  18.691   4.812   9.965  0.0569  0.2801 -0.0943
15940W        W32787  13.537  12.016   1.830  0.2113 -0.0553  0.1282
15941W        W32788   0.969  10.438  11.147  0.1468  0.2608  0.2133
15942W        W32789   3.987  15.552  12.793 -0.3141  0.1348  0.1541
15943W        W32790   1.083  14.654   0.003 -0.3752 -0.2813 -0.1602
15944W        W32791   4.627  12.992   4.130 -0.1347 -0.1017  0.2494
15945W        W32792   9.840  18.176  11.253 -0.0419 -0.0481  0.1654
15946W        W32793  12.852   5.135   3.992 -0.0092  0.0145 -0.1803
15947W        W32794  14.951   1.302  10.148  0.0005 -0.2505  0.0026
15948W        W32795   7.484   5.578  12.783  0.0698  0.0819  0.0719
15949W        W32796  14.842  12.586  11.056  0.0631 -0.1313 -0.0401
15950W        W32797  17.803  10.502   3.513  0.5707 -0.3935  0.1478
15951W        W32798   2.254  13.149   1.579  0.0295 -0.3971 -0.0049
15952W        W32799   2.777   9.329   1.641  0.0196  0.0509  0.1910
15953W        W32800   2.101  15.040   1.073 -0.0965 -0.2188  0.0399
15954W        W32801   0.607  16.226  12.362 -0.1743 -0.0869 -0.2311
15955W        W32802   2.489   6.585   0.116  0.2190 -0.0593 -0.2666
15956W        W32803   0.326  12.507  12.156  0.1824  0.0888 -0.0522
15957W        W32804  15.102   5.269   8.816  0.2007 -0.0948 -0.0851
15958W        W32805   3.087  10.757   4.036 -0.1046 -0.2125  0.5899
15959W        W32806   6.478  14.879  12.873  0.0379 -0.0704 -0.1955
15960W        W32807  11.157  12.043   4.092  0.1765  0.3483  0.2955
15961W        W32808  16.789  19.284  10.241 -0.0628 -0.0115  0.1351
15962W        W32809   3.543  15.525   1.951 -0.1064 -0.2551 -0.1624
15963W        W32810  14.996   4.549  11.479  0.0858 -0.2901 -0.0310
15964W        W32811  12.224   6.571   4.082 -0.1472 -0.0893 -0.3890
15965W        W32812  14.541   4.881   4.556 -0.5353  0.1546  0.4448
15966W        W32813   3.135  17.551   2.913 -0.0744 -0.1877  0.3250
15967W        W32814  16.182  14.193   1.178 -0.1988  0.2080 -0.1196
15968W        W32815  19.754   7.751  11.578 -0.6198  0.1741 -0.2258
15969W        W32816  12.812  18.409  12.965 -0.0513 -0.0499 -0.0681
15970W        W32817  19.290  17.555  13.581 -0.2209  0.2997 -0.3798
15971W        W32818   7.475  11.027   1.623 -0.1021  0.1463  0.1048
15972W        W32819  11.761   8.728  10.557  0.0533 -0.2963  0.3088
15973W        W32820   7.635  16.156   3.513 -0.0056 -0.0528  0.0553
15974W        W32821   9.783  18.956   1.059  0.0587 -0.3031 -0.2604
15975W        W32822  14.583   7.522   0.179 -0.1784  0.5878  0.0744
15976W        W32823   3.564   5.382   2.096  0.0190  0.1500  0.0571
15977W        W32824  11.902   7.837   0.729 -0.0335 -0.0991 -0.0072
15978W        W32825   0.819  10.488   0.829  0.0032 -0.1049 -0.1975
15979W        W32826  18.889   1.477   1.633 -0.3382  0.0770 -0.3671
15980W        W32827   7.172  15.225   4.642 -0.3563  0.4000  0.1566
15981W        W32828  11.253   0.542   2.659  0.1587 -0.4075  0.0659
15982W        W32829  10.877   8.412  10.931 -0.1901 -0.2887 -0.2823
15983W        W32830  13.059  11.729   1.945 -0.1030  0.0199  0.1941
15984W        W32831   9.719  14.700   4.324 -0.0357 -0.0337 -0.0821
15985W        W32832   3.336  11.706   1.334 -0.0096 -0.1556 -0.2072
15986W        W32833   0.275   9.880  10.512  0.0761  0.1476  0.2183
15987W        W32834   3.195  12.606  10.394 -0.1527  0.3066  0.0008
15988W        W32835  11.105   7.842   8.762  0.4167 -0.3670 -0.1586
15989W        W32836   5.600  15.884   3.127  0.1582  0.2689  0.1910
15990W        W32837   9.011   1.461  13.284  0.1184  0.0449  0.0134
15991W        W32838  19.622   1.177  11.335 -0.1354  0.2539  0.1391
15992W        W32839  16.222  14.680  12.236  0.4648  0.2089  0.0840
15993W        W32840  15.760   3.097   0.912 -0.2493  0.2250  0.1963
15994W        W32841   4.126  17.714   0.627 -0.3127  0.0850 -0.1311
15995W        W32842  15.620   5.149   3.050 -0.0391 -0.3258  0.2662
15996W        W32843   8.222   0.947  10.685  0.1292 -0.0906 -0.0954
15997W        W32844  14.772   0.450  10.217 -0.1284  0.1111 -0.3195
15998W        W32845   9.463  10.610   1.472 -0.4088 -0.0855 -0.1083
15999W        W32846  12.551   4.557   2.814 -0.0887  0.0913 -0.3278
16000W        W32847  16.733  11.482   1.162  0.0578 -0.0884 -0.1358
16001W        W32848   5.716   4.511   5.622  0.2804  0.2727  0.2883
16002W        W32849   9.011   5.954  12.005 -0.0377 -0.5184  0.1288
16003W        W32850  14.615   2.244  13.962  0.1643 -0.2659  0.4115
16004W        W32851  19.181   2.604  13.190  0.0200 -0.0081 -0.1922
16005W        W32852  16.220   4.961   2.828  0.2528 -0.0703  0.1168
16006W        W32853   0.410   5.789  10.305  0.1055  0.0634 -0.2295
16007W        W32854  17.462  16.433  13.957 -0.1005 -0.0343 -0.1824
16008W        W32855  17.366   2.353  13.786 -0.1529  0.0781 -0.1945
16009W        W32856   4.853   1.336   0.697  0.1149 -0.0092  0.3984
16010W        W32857  14.534  15.086   4.726  0.0053  0.1176  0.3370
16011W        W32858  17.056  15.822  12.914 -0.3856 -0.1287  0.2266
16012W        W32859  14.365   4.195   0.833 -0.2263  0.4823  0.0791
16013W        W32860  10.927   7.376   1.550  0.2778 -0.0623 -0.0568
16014W        W32861  13.650  15.597   0.296  0.1439  0.0714  0.6646
16015W        W32862  14.841   0.451   0.247  0.1847  0.0031  0.1108
16016W        W32863  19.666  15.630   2.987  0.2712  0.1864 -0.1890
16017W        W32864   1.525   3.764   2.818  0.1907 -0.0598  0.0477
16018W        W32865  13.894   9.121   1.731 -0.3566 -0.1017  0.0592
16019W        W32866  14.059   1.536  13.384 -0.2327  0.5269  0.3907
16020W        W32867   2.264   5.464  12.225 -0.0471 -0.2610  0.0239
16021W        W32868  10.884   2.202  13.994  0.0734 -0.4372 -0.1195
16022W        W32869   0.652  16.570   3.133  0.1424  0.0633 -0.2779
16023W        W32870   0.947  19.461   0.270  0.2151 -0.1585  0.1410
16024W        W32871   1.582  11.535  13.958  0.1918 -0.0603  0.0984
16025W        W32872   8.785   2.941   9.966  0.1378 -0.2637  0.0720
16026W        W32873   7.191  14.615  12.393 -0.0724  0.2780  0.4059
16027W        W32874   4.061   6.268   1.953  0.0692 -0.1793  0.0068
16028W        W32875   6.755   8.789  13.606 -0.1754 -0.4565 -0.1458
16029W        W32876  11.507  10.181  14.175  0.1670  0.3581  0.1153
16030W        W32877  14.837  12.483  11.539  0.1510  0.0521  0.0644
16031W        W32878  18.551   2.291   1.439  0.0649  0.1997 -0.0933
16032W        W32879  15.504   8.218  13.990 -0.3908  0.0204  0.0733
16033W        W32880   4.229  16.963  10.708 -0.0528 -0.2939 -0.0186
16034W        W32881   7.192   6.593   2.135  0.0085 -0.0114  0.0288
16035W        W32882   5.584   6.992   3.729  0.2480  0.0968  0.1810
16036W        W32883   6.571   8.915   0.229 -0.0961 -0.6894  0.0684
16037W        W32884   7.924   6.056   1.436 -0.3259  0.0866  0.0318
16038W        W32885  11.260   4.829  12.315 -0.2964  0.1767 -0.0571
16039W        W32886  18.806   4.070  10.381 -0.1179 -0.2283  0.0890
16040W        W32887  16.959  10.651  14.336 -0.4101  0.1674  0.4126
16041W        W32888   4.299   7.041   0.646 -0.0732  0.1187  0.1842
16042W        W32889   4.283  18.460   4.695  0.0063 -0.1996 -0.0840
16043W        W32890  10.916   6.669   9.057  0.0349  0.0538  0.1444
16044W        W32891  16.092  14.132   3.386  0.0198 -0.0357  0.1098
16045W        W32892  14.772   5.482   2.570  0.0119 -0.2620  0.0175
16046W        W32893  10.899   8.819  11.782 -0.2331  0.0782 -0.1695
16047W        W32894  12.899   5.961   2.173  0.2533  0.3508 -0.0163
16048W        W32895  14.716  10.537  10.532  0.3608 -0.1974 -0.0675
16049W        W32896   8.123   6.799   3.645 -0.0186 -0.2797  0.2485
16050W        W32897   4.772   6.793  12.961  0.1032  0.0870  0.1860
16051W        W32898  10.350   4.720   3.606  0.1231  0.1727  0.2038
16052W        W32899  16.624   4.506  12.770 -0.0135 -0.1723  0.0200
16053W        W32900   0.548   6.298  10.761  0.3840  0.0476  0.2234
16054W        W32901  17.089   4.581   0.670 -0.0246 -0.0200 -0.3395
16055W        W32902  15.308   6.677  10.194  0.0957  0.0954 -0.3319
16056W        W32903  12.397   2.382  12.584  0.1046 -0.0585  0.0420
16057W        W32904  16.997  15.626   0.653 -0.0184 -0.0940 -0.0277
16058W        W32905   0.997  19.857  12.930 -0.1025  0.0416  0.1691
16059W        W32906   1.280   9.707   1.127  0.0728 -0.0811  0.2686
16060W        W32907  11.412  13.664   3.169  0.2989  0.1166 -0.1665
16061W        W32908  18.941  16.686  12.761  0.2771 -0.1549  0.0937
16062W        W32909   9.440   3.177   3.570 -0.1625 -0.1341  0.4623
16063W        W32910  18.589   2.810   3.748 -0.2404  0.2617 -0.3032
16064W        W32911  15.920  19.003   1.102  0.3019 -0.1068 -0.3670
16065W        W32912   4.416   5.280  13.342  0.1879 -0.1154  0.0561
16066W        W32913  10.533  13.585  12.146 -0.0018  0.3394  0.1241
16067W        W32914   3.821   0.395   2.528 -0.1760 -0.1463  0.0370
16068W        W32915   7.941   2.617  11.051  0.0289  0.0493  0.1042
16069W        W32916  13.909   0.527   4.561  0.0734  0.1720  0.3300
16070W        W32917   8.938  11.186   3.168 -0.2221 -0.0699  0.4360
16071W        W32918   6.933  12.907   1.330 -0.2383 -0.3044  0.3053
16072W        W32919  13.930   6.500  12.515 -0.3681  0.0238  0.1366
16073W        W32920  15.999  12.736   1.350  0.2718  0.5849 -0.0298
16074W        W32921   8.266  10.995  13.667  0.1504  0.5212  0.1392
16075W        W32922   7.263   6.471   1.582  0.0942  0.0541  0.0905
16076W        W32923   9.132   4.249  11.580 -0.2284  0.3893 -0.0547
16077W        W32924   6.664  17.087  12.171 -0.1435 -0.5069 -0.2256
16078W        W32925   4.454   9.584  14.138 -0.0696 -0.0257 -0.1169
16079W        W32926   1.704   8.055   0.007 -0.0643  0.0673  0.0356
16080W        W32927   4.665   6.284  12.815 -0.0081  0.1780 -0.0369
16081W        W32928   5.368   0.571   0.847  0.3386  0.1547 -0.0152
16082W        W32929  18.833   2.880   4.195 -0.1734 -0.1611 -0.0383
16083W        W32930  12.048   1.472  14.143  0.1816 -0.3128 -0.0870
16084W        W32931  12.285   0.181  12.228  0.2081 -0.0833  0.2621
16085W        W32932   1.063  11.579   1.554 -0.1214 -0.2336 -0.1032
16086W        W32933  17.567  11.157  13.634  0.3754  0.1240 -0.2200
16087W        W32934   8.667  13.344  13.075  0.1502  0.0058  0.3430
16088W        W32935  18.974   1.656   2.592 -0.0464  0.1032 -0.1982
16089W        W32936   5.049  18.504  13.969  0.0517  0.0721  0.3441
16090W        W32937  16.008  12.316  13.430  0.3077 -0.0983  0.1644
16091W        W32938   9.435  13.624  10.196  0.1119  0.1238  0.0665
16092W        W32939   7.397  13.595  12.772 -0.1545  0.0242  0.1950
16093W        W32940  17.134   9.853   0.545 -0.2244 -0.3512 -0.0155
16094W        W32941  10.396   2.908   0.827  0.1588 -0.2349 -0.1497
16095W        W32942   6.575  12.232   2.504  0.0494  0.2304  0.2390
16096W        W32943  18.948   3.979  13.843  0.1614  0.0464 -0.1319
16097W        W32944  11.441  17.513   2.855  0.0198  0.4704  0.2112
16098W        W32945  12.952   5.441  14.343  0.0090 -0.0178 -0.0965
16099W        W32946   6.465   1.416  13.676  0.1881  0.4197 -0.3453
16100W        W32947  14.021   7.341   0.162 -0.2697 -0.1949 -0.3654
16101W        W32948   7.962   7.380  14.087 -0.2122  0.0585  0.4186
16102W        W32949   2.877  15.788  11.196  0.0718 -0.1925  0.0419
16103W        W32950   2.998   2.196   2.688  0.0824  0.0054 -0.1985
16104W        W32951   1.025   4.638  12.512  0.0387 -0.1628  0.0924
16105W        W32952   8.844  14.919   3.702  0.3544  0.1396  0.2985
16106W        W32953  15.866   0.690   1.739  0.4274 -0.3061 -0.1234
16107W        W32954   2.195   1.883   0.712  0.1650 -0.1303  0.0368
16108W        W32955  19.754  17.466   3.322  0.3606 -0.2024  0.0616
16109W        W32956   2.694   1.343   3.650  0.0879  0.0282  0.2150
16110W        W32957  18.447   5.933  12.573  0.0750  0.1042 -0.1239
16111W        W32958  10.562  15.427   0.684  0.1748  0.0879 -0.2267
16112W        W32959  14.024   3.114   2.487  0.0576  0.0367  0.0585
16113W        W32960   3.763  14.528   2.838 -0.1090  0.4571  0.0232
16114W        W32961  17.323   1.048  13.502 -0.1765  0.1004  0.0093
16115W        W32962   3.179  19.703  13.327  0.0892  0.0679  0.1161
16116W        W32963   9.276   8.840  13.850  0.1940 -0.2825 -0.4187
16117W        W32964  15.390   3.954  10.369 -0.1394  0.1807 -0.0184
16118W        W32965  18.519   8.927  12.821 -0.1233  0.3621  0.3664
16119W        W32966   2.280   4.447   9.667  0.0772  0.0862  0.0821
16120W        W32967  14.635  12.516  12.764 -0.1148  0.0141  0.0322
16121W        W32968   1.849  18.034   1.617 -0.0137  0.0883  0.1230
16122W        W32969  12.888  17.844  13.836  0.1326 -0.3166  0.0551
16123W        W32970   9.910  13.484   0.058 -0.0420  0.1386  0.2416
16124W        W32971  10.582   7.438   4.027 -0.1350 -0.2383 -0.1158
16125W        W32972  19.226  13.271  12.177  0.0294  0.0251  0.0569
16126W        W32973   1.750  14.298  14.199 -0.4092  0.0793 -0.2247
16127W        W32974  19.069   2.892  11.805  0.1964 -0.2952 -0.1663
16128W        W32975   6.999  18.595   3.159 -0.0203  0.0083  0.0091
16129W        W32976  11.884  12.513  14.225  0.3481  0.1289 -0.1794
16130W        W32977   6.002   2.506  13.797 -0.1823 -0.0435 -0.1741
16131W        W32978   4.475   5.611  12.912  0.1052 -0.2460  0.1174
16132W        W32979  11.690  17.757  13.585 -0.1390 -0.3736  0.3201
16133W        W32980   9.145  18.491  10.683 -0.2113  0.0439 -0.0056
16134W        W32981  10.675  19.274  11.925  0.0892 -0.1949 -0.0734
16135W        W32982  17.971  15.865  13.064  0.3752  0.0357  0.0899
16136W        W32983  16.372  13.636   5.154 -0.1504  0.2573 -0.0554
16137W        W32984  18.538  16.242   1.720 -0.1527  0.1538  0.2397
16138W        W32985  16.952  14.080   4.926 -0.0098 -0.0079 -0.3620
16139W        W32986  14.959   2.249   3.226 -0.1245  0.1339 -0.1153
16140W        W32987   4.846   9.650  12.185 -0.0416 -0.3087 -0.1630
16141W        W32988  13.697   3.800  11.765  0.1640  0.0491 -0.0530
16142W        W32989  17.436  18.387  13.089 -0.0521  0.2062  0.1903
16143W        W32990  15.193  12.586   2.502 -0.0200  0.1565 -0.1059
16144W        W32991   1.377  17.242   1.137  0.0737  0.1817 -0.1059
16145W        W32992  19.344  11.380  11.736 -0.1066 -0.0720  0.0347
16146W        W32993  15.895  13.598   4.256 -0.0358 -0.0671 -0.3387
16147W        W32994   2.819  12.555  13.660 -0.3407  0.1202 -0.1215
16148W        W32995   1.083   0.317   4.074  0.1096 -0.0633 -0.1760
16149W        W32996  19.158   6.234  13.622 -0.3268 -0.1363 -0.0650
16150W        W32997  12.375   3.450  13.517  0.0886  0.4950  0.0293
16151W        W32998   5.261   1.075   5.504 -0.1929 -0.1678  0.0618
16152W        W32999   5.906   2.918   3.633 -0.0684 -0.0119 -0.2790
16153W        W33000   0.775   7.752   4.381  0.2025  0.2396  0.0848
16154W        W33001   2.256  13.490   3.215  0.0053 -0.1433  0.2631
16155W        W33002  18.799  15.782   3.302  0.1326 -0.0464  0.0645
16156W        W33003  17.948  17.073  13.140  0.1067  0.0300  0.0250
16157W        W33004   4.242   0.024   1.798  0.1490  0.0795  0.0972
16158W        W33005  14.550  15.890   2.564  0.0367 -0.3148  0.0130
16159W        W33006  17.948  12.614  11.083 -0.1896  0.1099 -0.0336
16160W        W33007  15.660  13.367   1.341 -0.1696 -0.0198 -0.3548
16161W        W33008   2.994   2.625   5.360 -0.1652 -0.1203 -0.2952
16162W        W33009  18.858  11.541   3.967  0.0663  0.3224 -0.0193
16163W        W33010   5.902  16.700   4.283  0.1478 -0.1216  0.3888
16164W        W33011  11.882   7.626   3.742 -0.1416  0.0531 -0.0388
16165W        W33012   0.285  14.505  10.996 -0.0772  0.2282  0.3554
16166W        W33013   2.451   2.143   2.576  0.0455  0.1225 -0.0068
16167W        W33014   4.744   3.319   4.364 -0.0596  0.1601  0.3140
16168W        W33015   3.734   5.480   4.150  0.1098  0.0986  0.1332
16169W        W33016   6.656  13.736   4.023 -0.1122 -0.1223 -0.1211
16170W        W33017  12.469   7.313   9.771  0.1319  0.2468  0.0047
16171W        W33018  10.127   6.848   3.798 -0.2944 -0.2673  0.0739
16172W        W33019  17.933  12.846  13.096  0.1099 -0.0755 -0.2198
16173W        W33020  14.348   2.636  13.727  0.2283 -0.0467  0.2338
16174W        W33021  13.149  19.434  13.450  0.0861  0.4518 -0.1571
16175W        W33022   1.596  19.468   0.990  0.3300 -0.0778  0.3172
16176W        W33023  14.558  19.044   3.795  0.1286 -0.1292 -0.0753
16177W        W33024   4.645   4.838   2.967  0.0234  0.2148 -0.1760
16178W        W33025  15.125   9.340  10.978 -0.2999 -0.0326 -0.0242
16179W        W33026  10.526  17.680   4.691  0.3197 -0.0234  0.3345
16180W        W33027   3.822   1.590   3.387 -0.2794  0.2784 -0.5750
16181W        W33028   8.751   1.888   1.660 -0.1262  0.3693  0.5516
16182W        W33029  18.745  11.150  11.932  0.1096 -0.1260  0.0808
16183W        W33030   2.309  15.442  13.531 -0.1350 -0.0289  0.2847
16184W        W33031  15.432   8.365   9.955  0.0097 -0.0973 -0.4363
16185W        W33032  12.951   0.721   4.547 -0.1244 -0.1448  0.1275
16186W        W33033  18.923   4.741  13.105  0.1133 -0.2564 -0.0402
16187W        W33034  18.672   3.454   9.908  0.0614  0.2411 -0.2056
16188W        W33035  14.789  17.022   0.160 -0.4043  0.1361  0.0097
16189W        W33036  17.340  13.018   8.746  0.0395  0.0805  0.0984
16190W        W33037   7.907  14.820   4.094  0.2955  0.2358 -0.1848
16191W        W33038   4.922  16.680  13.852 -0.1675  0.1132  0.0802
16192W        W33039  11.663   3.213   4.143  0.1064  0.0400  0.1594
16193W        W33040  14.718  13.001   1.984 -0.0392 -0.1292  0.0943
16194W        W33041  19.887   2.153  11.360 -0.1312 -0.0048 -0.0984
16195W        W33042   7.349   5.777   2.409 -0.0929 -0.3607 -0.0878
16196W        W33043   2.086   7.532  11.809  0.2066 -0.1603  0.2781
16197W        W33044   7.368   5.903   4.774 -0.1940 -0.0532  0.2020
16198W        W33045   0.254  14.588   1.198 -0.2105  0.1109  0.1550
16199W        W33046  10.845  17.345   1.319  0.3299  0.0387  0.4691
16200W        W33047  16.839  13.906   3.717 -0.1778 -0.1931  0.0747
16201W        W33048  19.140  17.590  10.743  0.3320 -0.5325 -0.1775
16202W        W33049  13.205  13.465   3.373 -0.0072 -0.0210  0.1795
16203W        W33050  13.207   6.753   3.173 -0.2305 -0.0895 -0.2991
16204W        W33051   0.509  15.792   9.192  0.0087 -0.0921  0.0546
16205W        W33052   8.885  15.254   2.185 -0.0056 -0.1459 -0.0725
16206W        W33053  10.010  10.486   9.461 -0.2346  0.2578  0.0693
16207W        W33054   1.400  19.823   3.218  0.3308 -0.3422  0.0596
16208W        W33055   4.210   3.758   0.592  0.0279  0.1027 -0.2772
16209W        W33056   0.153  15.277   5.314  0.4270 -0.0533  0.1848
16210W        W33057  15.828   8.319  12.358  0.0117  0.1392  0.2278
16211W        W33058  13.422   1.782  10.642 -0.1238 -0.2182  0.1198
16212W        W33059   6.689  16.259   5.039  0.2758  0.1014 -0.1213
16213W        W33060  12.693   8.313  12.519  0.1545 -0.0512  0.0808
16214W        W33061   8.089  19.002  11.713 -0.2047  0.0970  0.2562
16215W        W33062   9.567  11.757   1.315 -0.3569  0.0393 -0.0549
16216W        W33063  10.746   4.464  12.883  0.0888 -0.0678 -0.2846
16217W        W33064  18.608   0.676   9.183  0.2017  0.0678  0.0769
16218W        W33065  17.156   8.225  10.041 -0.2023  0.1496  0.1829
16219W        W33066  12.846   8.378   0.051  0.0345  0.3893 -0.1615
16220W        W33067  15.043   9.086   1.749 -0.1710  0.0301 -0.1913
16221W        W33068  15.699   9.876  12.356 -0.0197  0.0951  0.2073
16222W        W33069  11.039  14.467  14.335  0.1195 -0.1165  0.0528
16223W        W33070   8.961  17.180   1.723 -0.0456 -0.2250  0.0098
16224W        W33071   6.190   4.583   2.497 -0.2080  0.0179 -0.0405
16225W        W33072  18.304   2.219  14.014 -0.0806 -0.0485 -0.0461
16226W        W33073   2.652   3.661   4.078  0.1959 -0.0989 -0.0121
16227W        W33074  19.557  12.510  13.067  0.2925  0.4978  0.0632
16228W        W33075  19.029   5.729  10.564  0.1281  0.0692  0.0292
16229W        W33076   0.003  14.576   1.627  0.2699 -0.0017 -0.0241
16230W        W33077  14.886   7.666  14.173 -0.2026  0.1862  0.2208
16231W        W33078  15.312   7.478  13.451  0.1546  0.0465  0.1435
16232W        W33079  12.476   7.793   9.488  0.1908 -0.0294  0.1868
16233W        W33080   0.127   9.397   2.975 -0.1570  0.2470 -0.0424
16234W        W33081  13.046   4.522  14.043 -0.4111 -0.1104 -0.0834
16235W        W33082  11.972   5.782   0.360  0.0981  0.1423 -0.3249
16236W        W33083  15.168   9.380   4.593 -0.0522 -0.0426  0.2064
16237W        W33084   0.691  19.186  10.714 -0.0501  0.2646 -0.0619
16238W        W33085  10.916   1.297   9.467  0.1063  0.3136  0.0123
16239W        W33086  18.681   8.578  13.316 -0.0653 -0.0015  0.1408
16240W        W33087   2.556  14.587  13.076  0.4927 -0.1465 -0.0298
16241W        W33088   8.612   8.644   2.149 -0.2930 -0.2733  0.2327
16242W        W33089   3.019   5.736  14.000  0.1906  0.1276 -0.1560
16243W        W33090  13.292  14.234   4.501 -0.0267 -0.0014  0.5354
16244W        W33091  16.635  19.315   5.126  0.1660  0.4116 -0.3523
16245W        W33092   3.091   2.846  14.106  0.0910  0.1024 -0.0856
16246W        W33093   9.194  14.249  12.291 -0.2133 -0.1392  0.1558
16247W        W33094  17.222   2.208   9.374 -0.0990 -0.0609  0.1776
16248W        W33095   8.347  19.011  12.732 -0.2801  0.0777 -0.0305
16249W        W33096  11.631  16.697  12.472  0.1099  0.0229 -0.0495
16250W        W33097  17.919  10.522   2.501 -0.2182 -0.4290 -0.0872
16251W        W33098  12.174   5.356   2.499  0.1034 -0.0843  0.3199
16252W        W33099  10.303  11.848   2.877  0.0943 -0.1311  0.1936
16253W        W33100  15.650   0.166  13.450 -0.0839  0.2135  0.0762
16254W        W33101  11.526   4.149   5.491 -0.0127  0.0313  0.0640
16255W        W33102   3.468   3.509   9.850  0.0253  0.1447 -0.1924
16256W        W33103  18.158   5.465  10.928 -0.1709  0.2016 -0.0139
16257W        W33104   4.054  15.270   2.018 -0.1163 -0.2802 -0.2648
16258W        W33105  12.340   9.084   3.043  0.2032  0.1802 -0.0622
16259W        W33106   0.437   3.804   2.059  0.0676 -0.0642 -0.2776
16260W        W33107  11.129  11.224   3.926 -0.2110  0.2060  0.2577
16261W        W33108  12.413  13.070   4.516 -0.2199  0.2855  0.1096
16262W        W33109  19.856   0.224  10.131 -0.0338 -0.2976  0.2555
16263W        W33110   8.022  12.319  11.507  0.0632  0.0501 -0.2185
16264W        W33111   7.071  13.334  13.805 -0.0452 -0.1037  0.1072
16265W        W33112  10.262  18.063   2.957 -0.0989  0.2692 -0.0979
16266W        W33113  13.419  18.927  10.653  0.1590  0.1208 -0.0319
16267W        W33114  11.619   0.427   3.115 -0.0148 -0.1180 -0.0239
16268W        W33115  16.685  14.142  13.965 -0.0488  0.1353 -0.0081
16269W        W33116  11.552  17.025   9.845 -0.4794 -0.1986 -0.1181
16270W        W33117  14.628  15.837   5.428 -0.2942  0.1555  0.0177
16271W        W33118  14.487   5.746  13.857 -0.2307 -0.0202 -0.3987
16272W        W33119  13.753   5.259  14.243 -0.0175  0.0911 -0.5104
16273W        W33120  15.094  13.737  10.866  0.3858  0.0596 -0.0377
16274W        W33121   6.901   1.304   3.486  0.1688  0.0117 -0.1266
16275W        W33122   2.254   2.705  10.184 -0.2049  0.0258  0.2072
16276W        W33123   2.646  13.047  11.794  0.1600  0.0395 -0.0367
16277W        W33124  19.709  18.588   2.923  0.4643 -0.0301  0.1430
16278W        W33125   5.394   6.026  13.172 -0.0609 -0.0577  0.2406
16279W        W33126   9.500   6.079   1.956 -0.0875 -0.0486  0.1586
16280W        W33127   3.680   3.441   3.110 -0.0570 -0.1676 -0.1175
16281W        W33128  17.414   7.771   0.861  0.1612 -0.1804 -0.2910
16282W        W33129   0.789  12.548   2.070 -0.2067  0.2022 -0.0814
16283W        W33130  10.061  19.509  10.059  0.2217 -0.0475  0.0190
16284W        W33131  19.076   3.429   0.858  0.1517 -0.1323  0.3221
16285W        W33132   0.816  12.412   4.001  0.2461  0.0635 -0.3478
16286W        W33133   6.473   2.585   2.969 -0.0708  0.1382  0.0630
16287W        W33134  16.070   5.109  13.218 -0.0049  0.1925 -0.2958
16288W        W33135  10.878   4.785   3.234  0.2723 -0.0326  0.1592
16289W        W33136   2.989   5.711   4.345 -0.0653 -0.0661 -0.1288
16290W        W33137  19.425   7.975   3.170  0.0027 -0.2178  0.0286
16291W        W33138   0.155   9.740   9.992  0.0679 -0.0117  0.0200
16292W        W33139   9.873   3.866   4.904  0.1106 -0.1952  0.1070
16293W        W33140   5.181  10.191  14.113 -0.4076  0.1948 -0.2835
16294W        W33141   0.721   7.204   4.161 -0.2663 -0.0880 -0.4751
16295W        W33142  16.792  11.571  11.046  0.3108  0.4506 -0.1869
16296W        W33143  19.203   8.310  10.501  0.0833  0.1710  0.4356
16297W        W33144   9.950   1.196   3.977  0.3071 -0.0823  0.1478
16298W        W33145  14.199  17.623   0.179 -0.0717  0.2370  0.0351
16299W        W33146   1.029  16.465   3.481 -0.3050 -0.0765 -0.0167
16300W        W33147  16.788   6.542  13.626  0.0353  0.0106  0.0561
16301W        W33148  15.763  14.760   0.172 -0.1920  0.2457  0.0318
16302W        W33149  18.208  18.490   4.714 -0.1582 -0.0555  0.2172
16303W        W33150   0.786   2.055   4.393 -0.3270  0.2430  0.2293
16304W        W33151  15.987  18.178  13.780  0.1690 -0.1391 -0.2305
16305W        W33152  15.944  17.727   3.975  0.0587  0.1634 -0.0810
16306W        W33153   3.234   8.672   4.926 -0.0469  0.0578  0.1868
16307W        W33154   5.870   1.064  12.432  0.0514 -0.0498  0.4469
16308W        W33155  17.592  10.800  12.772  0.2668 -0.0372 -0.0617
16309W        W33156  12.685  19.469  10.380 -0.0961  0.0781 -0.0454
16310W        W33157  15.868  18.975   0.568 -0.0339 -0.2830 -0.1441
16311W        W33158  12.397  17.125   3.088 -0.0090  0.1672  0.1756
16312W        W33159   3.136   1.521  11.352  0.0757 -0.1062 -0.2220
16313W        W33160  12.014  19.373   2.913  0.0658  0.0029 -0.1972
16314W        W33161  10.956  11.440   5.090  0.1451  0.0686 -0.0312
16315W        W33162  16.568   8.539   2.435  0.0398  0.0207  0.2590
16316W        W33163   5.212  18.463  12.129  0.2874  0.3685  0.1428
16317W        W33164   5.551   5.311  11.318  0.2443  0.0357 -0.1540
16318W        W33165  10.001   8.813   4.298  0.2086 -0.0280 -0.1196
16319W        W33166  11.125  12.384   3.120 -0.2201  0.2113 -0.1584
16320W        W33167  12.290   2.654  14.039 -0.1231  0.0927 -0.1737
16321W        W33168  17.807  18.848   1.400 -0.0513 -0.0923 -0.1529
16322W        W33169   8.277  11.191  11.484 -0.2025  0.1778  0.1816
16323W        W33170   4.332   4.505  11.443 -0.0622 -0.0295 -0.1111
16324W        W33171  10.036   5.664  11.822 -0.0962  0.3165  0.2747
16325W        W33172   4.122   9.708  11.665 -0.0883 -0.0576 -0.0088
16326W        W33173   1.235  15.211   2.253 -0.2053  0.1531  0.1446
16327W        W33174   8.899   6.931   2.316  0.0567  0.3053  0.2053
16328W        W33175   7.303   1.201  12.151 -0.1221  0.0705 -0.1289
16329W        W33176  16.753  11.552  12.662  0.1227 -0.1592 -0.2486
16330W        W33177  12.303   6.481  12.768  0.3439  0.2483  0.1072
16331W        W33178  11.043  10.983   2.136  0.0746  0.1508  0.0219
16332W        W33179  15.763   3.386  11.001  0.0094 -0.1002  0.3815
16333W        W33180  19.752  11.052   3.815  0.0478 -0.0027 -0.0949
16334W        W33181   7.747   6.564   3.403  0.1378 -0.0427  0.0463
16335W        W33182   3.137   9.275  11.030  0.1675  0.1076  0.3661
16336W        W33183  16.123  14.359  11.801  0.0453 -0.3204  0.2578
16337W        W33184   7.185   9.503   2.501  0.1050  0.2652 -0.1391
16338W        W33185  16.575  11.033   3.859  0.0888  0.0190  0.2552
16339W        W33186   4.003  18.464   3.109  0.1785  0.0250  0.1042
16340W        W33187   9.122  19.777   2.063 -0.0431  0.1121  0.0025
16341W        W33188  14.910  11.116  14.246  0.1693  0.0669 -0.1469
16342W        W33189   3.608   3.383  11.381 -0.1321  0.1355  0.0580
16343W        W33190  14.212   5.663   9.481 -0.0268  0.0514  0.0113
16344W        W33191   4.093   9.681   1.078 -0.1190 -0.2075 -0.1562
16345W        W33192  15.935  15.232   0.411  0.2586  0.0007  0.1317
16346W        W33193   5.783   7.338  12.981  0.2944 -0.2213  0.0065
16347W        W33194  18.761   2.718  11.439  0.1737  0.0910 -0.3529
16348W        W33195   2.480   6.963  13.071  0.0166  0.1756 -0.2589
16349W        W33196   5.701  15.321   9.004 -0.0586 -0.3044  0.0054
16350W        W33197  17.434  13.616  10.231 -0.0699 -0.1018  0.1845
16351W        W33198   4.747  10.255  12.135  0.0912  0.0245 -0.0552
16352W        W33199  17.625   0.835  14.258 -0.0932  0.0423 -0.3042
16353W        W33200   0.199  17.307  13.082  0.0176 -0.2098  0.0612
16354W        W33201   9.494   4.654  12.502  0.1776  0.0249 -0.2289
16355W        W33202   0.087   0.664   0.936 -0.2685 -0.0810  0.0073
16356W        W33203   6.201  12.165  12.530  0.2164  0.1761  0.3326
16357W        W33204   0.825  17.394  12.265  0.2753  0.2320 -0.0045
16358W        W33205   8.604  11.046  10.747  0.0256  0.1958 -0.0389
16359W        W33206   3.003  11.100   2.491 -0.2899 -0.0124 -0.3975
16360W        W33207   5.646  13.136   1.698 -0.1055  0.1194  0.1614
16361W        W33208  11.969  16.568  10.827  0.3868 -0.1494 -0.1285
16362W        W33209  17.330   7.337   3.128  0.1858  0.2401  0.2951
16363W        W33210  12.247  17.301   5.772 -0.1287  0.1137 -0.2024
16364W        W33211  18.096   2.727  12.308  0.2849 -0.0650 -0.0792
16365W        W33212   7.916  12.699   3.069 -0.2199  0.3002 -0.0451
16366W        W33213   2.997  13.472   1.221  0.2073  0.0104 -0.2791
16367W        W33214   9.576  17.013  12.991 -0.2225  0.0862  0.1877
16368W        W33215   8.304  10.209  11.557 -0.3813 -0.0672  0.1729
16369W        W33216  19.273   7.603   3.973 -0.1835  0.1031 -0.2203
16370W        W33217   4.708  12.091  14.137 -0.0250 -0.0398  0.0359
16371W        W33218  12.789   8.964   3.469 -0.3290 -0.0329 -0.0673
16372W        W33219   2.013   0.628   2.237  0.2095 -0.2754 -0.4148
16373W        W33220  11.513   3.840   3.966  0.1086 -0.1749 -0.1554
16374W        W33221  14.894  10.403   3.287  0.0680  0.0220 -0.0698
16375W        W33222   4.951   7.831  11.908 -0.1062  0.1149 -0.1222
16376W        W33223   2.878  17.966   0.013  0.0030 -0.1060  0.1465
16377W        W33224  16.516   9.564   2.827  0.0586 -0.1682 -0.0123
16378W        W33225  15.109   0.249  10.591  0.0393  0.1910 -0.2258
16379W        W33226  10.726  18.228  11.153  0.1431 -0.0145  0.1934
16380W        W33227  12.720  16.488   0.659 -0.0961 -0.0700  0.0894
16381W        W33228   2.660  14.287   3.666 -0.0122 -0.1750  0.0880
16382W        W33229  12.173  19.684   4.927  0.2847  0.1670  0.2445
16383W        W33230  17.812  13.481   0.343  0.3757  0.0396  0.1343
16384W        W33231  18.913  18.378   0.490  0.0939 -0.1033 -0.0251
16385W        W33232  11.167  10.166  11.719 -0.0665 -0.2357  0.0916
16386W        W33233   6.499   2.292  14.182 -0.0547  0.2617  0.1768
16387W        W33234   9.727   2.200   8.948  0.1018  0.1202 -0.0500
16388W        W33235   7.444  12.571   2.877 -0.3006 -0.0495  0.3239
16389W        W33236   8.450  15.039   4.934  0.2160 -0.0250  0.0466
16390W        W33237   7.756  17.721  11.044 -0.3127  0.0794 -0.0492
16391W        W33238  10.106  11.350  12.452 -0.2253 -0.0507 -0.3332
16392W        W33239  18.748   4.826  11.045  0.1966  0.1985 -0.3022
16393W        W33240   2.895  12.305   1.100 -0.0414  0.0434  0.2587
16394W        W33241   8.168   5.649  10.904  0.1821  0.2120  0.1710
16395W        W33242   6.087   9.194  13.325  0.2480 -0.1058 -0.1687
16396W        W33243  14.612  18.770   4.754 -0.0150 -0.1312  0.1278
16397W        W33244  19.267  12.436  11.688 -0.0546  0.2029 -0.2804
16398W        W33245   4.087   9.381  12.676  0.3747  0.1016 -0.1468
16399W        W33246   4.375  19.412   4.212 -0.0083  0.3381  0.2528
16400W        W33247   8.963  15.305  12.929  0.0845 -0.1246  0.0811
16401W        W33248  10.780  11.315  12.464 -0.2312  0.0789  0.0191
16402W        W33249   9.883   3.234   3.742  0.0976 -0.0855 -0.1664
16403W        W33250   3.207   9.066  11.559  0.2487 -0.1175  0.5583
16404W        W33251   0.913  17.297  11.233 -0.1452  0.0766  0.8483
16405W        W33252   7.829  19.081  10.641  0.1363  0.3674  0.3604
16406W        W33253  11.122   6.286  12.583  0.1495 -0.3156 -0.1555
16407W        W33254   1.412   8.915  10.533 -0.0338  0.0968  0.4447
16408W        W33255  18.860  14.187  12.516  0.0092 -0.0661  0.0382
16409W        W33256  12.503  17.376  13.344 -0.2340  0.0446  0.1503
16410W        W33257   3.459  16.243  13.369  0.1594  0.0271 -0.2609
16411W        W33258  17.398  10.048   3.065 -0.2145  0.2758 -0.1162
16412W        W33259   8.744   0.469   0.321 -0.0797 -0.1172 -0.2030
16413W        W33260   7.371  14.632  12.884 -0.2314  0.3179  0.0274
16414W        W33261   1.481   8.960   4.460  0.1471  0.5816  0.4504
16415W        W33262  16.948   4.096   0.962 -0.2533  0.3182  0.0647
16416W        W33263   5.237  19.688   1.467  0.2126 -0.1549  0.0525
16417W        W33264   6.962  11.313   1.531  0.0300 -0.1666 -0.1638
16418W        W33265   8.948  16.446   2.996 -0.5716  0.2100 -0.0921
16419W        W33266   2.021   9.451  13.870  0.3621 -0.0549  0.1357
16420W        W33267  10.957   0.096   9.873  0.0372 -0.4572  0.0311
16421W        W33268   3.566  16.714  12.574 -0.0059  0.3579 -0.2410
16422W        W33269   6.184  15.995   5.042 -0.0466 -0.0677  0.2179
16423W        W33270  14.582  15.231   2.385  0.0216 -0.0431 -0.2400
16424W        W33271   8.516  15.517   0.608 -0.1331 -0.4778  0.0344
16425W        W33272   3.046   8.548   0.043 -0.1259 -0.0634  0.1936
16426W        W33273  10.053   0.022   2.143  0.0436  0.3568 -0.4498
16427W        W33274  10.593   8.685   1.404 -0.0631  0.0185 -0.1844
16428W        W33275  16.033   1.400  11.612  0.1280 -0.4614  0.0156
16429W        W33276  10.579   3.612  10.031  0.2356  0.0757  0.1073
16430W        W33277   4.081  16.722   4.534 -0.0551  0.0029  0.1491
16431W        W33278  10.619  12.335  12.402  0.0791  0.0496  0.2329
16432W        W33279   4.444  16.829   1.007  0.0946  0.1279 -0.1974
16433W        W33280  19.397  19.463  11.189 -0.1518 -0.0582  0.0322
16434W        W33281  16.535   4.752   9.911  0.0698  0.2214  0.3564
16435W        W33282   8.613  14.499   3.617 -0.0477 -0.1995 -0.2069
16436W        W33283  12.122   9.413   2.719  0.0411 -0.0491  0.0978
16437W        W33284   6.076   4.179   2.224 -0.2057  0.3787  0.0296
16438W        W33285   7.108   3.798   2.295  0.0938 -0.2645 -0.2009
16439W        W33286  17.933  17.169  11.505 -0.1372 -0.1755 -0.2225
16440W        W33287  11.494   6.032  12.850 -0.0976 -0.4233 -0.2396
16441W        W33288   6.096   1.162   2.384 -0.0875 -0.0762 -0.0570
16442W        W33289  16.836  18.150  12.648  0.0429  0.2523  0.2119
16443W        W33290  15.929  17.627  10.936 -0.0199 -0.0336  0.0348
16444W        W33291   3.401   3.727   3.849  0.0744  0.1518 -0.2489
16445W        W33292   1.243  11.455  11.733  0.1056  0.0374  0.2130
16446W        W33293   6.829   6.751   1.791  0.0112  0.0203  0.1058
16447W        W33294  15.289  11.351   9.730  0.0304 -0.1728  0.0613
16448W        W33295  13.926  11.123   2.307 -0.0503 -0.0426  0.2063
16449W        W33296   5.022   0.320   1.121 -0.1901 -0.4018  0.3957
16450W        W33297  11.980   1.094  10.165  0.1436 -0.0310  0.1206
16451W        W33298  19.722  12.044   3.594 -0.2813 -0.2465 -0.0747
16452W        W33299  10.196  10.674   2.751 -0.2248 -0.2017  0.0391
16453W        W33300   7.110  13.118   4.339 -0.0343 -0.2533  0.3918
16454W        W33301   5.526   5.484   3.318 -0.0885 -0.1872 -0.0775
16455W        W33302   2.235  15.136  11.821 -0.3528  0.0253 -0.0419
16456W        W33303  11.505  19.511  11.027  0.0120 -0.3798  0.2468
16457W        W33304  16.001   8.460  13.720  0.1060 -0.1551  0.1042
16458W        W33305  12.573  19.135  11.922 -0.0286 -0.4050 -0.2173
16459W        W33306   3.361  17.871  11.710 -0.0774  0.1610 -0.1526
16460W        W33307   9.707  17.175   2.727  0.0929 -0.0401 -0.1944
16461W        W33308  11.932  11.757  12.392 -0.0541  0.0453  0.1012
16462W        W33309   0.010  13.088  13.410 -0.1442 -0.2566 -0.2511
16463W        W33310   7.404   6.276   2.465 -0.2278 -0.1678 -0.2204
16464W        W33311  13.392   6.783   1.468  0.0907 -0.1236 -0.3326
16465W        W33312  15.377  11.723  13.890  0.0892 -0.0537  0.1115
16466W        W33313   3.371   8.504  11.819 -0.0688  0.1001 -0.1438
16467W        W33314  17.865   9.476   0.957  0.1263  0.3937  0.5963
16468W        W33315  14.046  11.960  11.182  0.2529  0.2945 -0.5330
16469W        W33316  18.480  13.836  11.166  0.2268  0.1835 -0.0642
16470W        W33317   5.592   3.148  11.352 -0.1454  0.0214 -0.1452
16471W        W33318   9.680  12.731   2.096  0.0948 -0.3306  0.0930
16472W        W33319  12.344  19.464  11.615 -0.0536  0.3518  0.0238
16473W        W33320  10.769  10.654  13.957 -0.0125  0.4532 -0.4114
16474W        W33321   6.667  10.946  12.733  0.2607  0.0347  0.0696
16475W        W33322  10.984   0.221   1.974 -0.0516 -0.2464 -0.2024
16476W        W33323  14.427  15.290   2.864 -0.1097  0.0875 -0.0390
16477W        W33324   4.276  12.778  14.265 -0.0909  0.0041  0.2275
16478W        W33325   7.953   6.671   0.891  0.2255 -0.1354  0.1232
16479W        W33326  15.488  18.914   3.697 -0.0670  0.4899 -0.0772
16480W        W33327  16.026  11.097  11.257 -0.0270  0.2228  0.0032
16481W        W33328   1.545  19.795  13.462  0.0898  0.1597 -0.0446
16482W        W33329  17.626  15.126  12.205 -0.0806 -0.3838 -0.0323
16483W        W33330  16.687  16.467  11.075 -0.2909 -0.1406 -0.2340
16484W        W33331   4.612   4.477  12.228  0.2180  0.0799 -0.3519
16485W        W33332  11.714   9.777   4.980 -0.0352 -0.1134  0.2309
16486W        W33333   1.157  18.215  13.970  0.1589  0.4042  0.0063
16487W        W33334  18.815  18.215  10.001  0.0145 -0.3368 -0.2842
16488W        W33335  15.980  15.635  10.445 -0.0515  0.0790  0.2546
16489W        W33336   9.389   7.243  11.977  0.1089  0.0590 -0.0581
16490W        W33337  19.293  19.874   4.272  0.0792  0.0661 -0.0146
16491W        W33338  14.614  15.408  10.149 -0.2649 -0.1394  0.0892
16492W        W33339   0.415  17.122  11.851 -0.0853 -0.1189 -0.3700
16493W        W33340  14.464  19.678  10.935 -0.0240  0.0500 -0.0558
16494W        W33341  13.126   1.293   0.533 -0.1062 -0.2485 -0.3611
16495W        W33342  13.876   6.904  11.171  0.3508 -0.0999 -0.4408
16496W        W33343   4.928   4.944   2.460 -0.1388 -0.0310  0.0828
16497W        W33344   4.371   0.379  13.116  0.0924 -0.2307 -0.2013
16498W        W33345   1.329   5.230  14.023 -0.1738  0.1539 -0.3317
16499W        W33346   7.609   6.617  12.714  0.1414  0.0290 -0.0611
16500W        W33347   0.597   5.029   2.018  0.0005 -0.0637  0.0222
16501W        W33348  15.204   7.856   4.148 -0.0379  0.2548  0.1002
16502W        W33349  19.380  18.137   0.156  0.0692  0.1525 -0.1900
16503W        W33350   1.537   8.069   4.649 -0.1810 -0.1351  0.2086
16504W        W33351   2.772   8.101   0.746  0.3804  0.0988 -0.0702
16505W        W33352   8.917  14.624  13.231 -0.1614 -0.1457 -0.1753
16506W        W33353   4.349   4.718   3.429  0.0015  0.2011 -0.0994
16507W        W33354  10.833  10.243  13.300 -0.2692 -0.1887  0.3907
16508W        W33355  18.637   1.883   9.985 -0.1569  0.1738 -0.1125
16509W        W33356   9.697  10.274   3.752  0.1721 -0.1555 -0.1282
16510W        W33357  15.588   5.943   9.291 -0.0599 -0.0240 -0.1245
16511W        W33358   3.900  13.746  11.029 -0.0354  0.2473 -0.1739
16512W        W33359   8.667   2.432   3.616 -0.0215  0.4157  0.3812
16513W        W33360  12.975  16.890  10.289  0.1693  0.1241  0.1441
16514W        W33361  17.827  11.343  11.254  0.1066 -0.2147  0.1173
16515W        W33362   9.110  18.692   3.125 -0.0814  0.2184 -0.0953
16516W        W33363  13.248   2.845   2.010 -0.1150 -0.2556 -0.2647
16517W        W33364   4.168  13.466   2.201  0.0120  0.1458  0.3250
16518W        W33365   6.375  18.827  12.848 -0.1428  0.0470  0.0509
16519W        W33366   6.850  10.580   4.411  0.1599  0.2267 -0.1566
16520W        W33367  12.859  14.755   1.500  0.1047  0.0647 -0.1837
16521W        W33368  10.836   6.737   4.538 -0.0947  0.0774  0.0948
16522W        W33369   7.064  11.996   4.819 -0.0345  0.0215 -0.0167
16523W        W33370   9.084  19.785   1.352  0.0435  0.0243 -0.2108
16524W        W33371  14.938  17.425   2.554 -0.0594 -0.0068  0.1222
16525W        W33372   0.406  10.518  13.462  0.0342 -0.0923 -0.1646
16526W        W33373  16.439   2.069   0.339  0.0703  0.1823  0.1553
16527W        W33374   8.126   7.266   3.813  0.2691  0.3487 -0.0981
16528W        W33375  15.631   9.716   3.200  0.1035  0.0797 -0.0276
16529W        W33376   6.123  17.292   3.098 -0.2863  0.0820  0.1285
16530W        W33377   3.774  17.567   4.049 -0.3977  0.1300 -0.5369
16531W        W33378  14.156   4.754   3.863 -0.2740 -0.0844  0.2840
16532W        W33379  12.153  17.375   2.721  0.1342 -0.0604  0.0989
16533W        W33380  17.688  13.955  10.668 -0.1571 -0.1585  0.0339
16534W        W33381   4.371   4.935   2.279 -0.0589 -0.0598  0.0539
16535W        W33382  16.119   1.135   1.993  0.2422  0.3090 -0.0391
16536W        W33383   0.820   7.135  12.002 -0.0523  0.0524  0.0341
16537W        W33384  19.049   5.311   5.598 -0.1169  0.1588  0.3772
16538W        W33385   3.551   8.694   2.378 -0.0306 -0.3635 -0.0322
16539W        W33386   3.448  11.405  11.545  0.2478  0.1934 -0.1765
16540W        W33387   3.216   6.568   4.246  0.0328  0.3163 -0.0562
16541W        W33388  10.795   8.200  12.717 -0.2066 -0.0291 -0.2445
16542W        W33389   3.362  10.811   4.826 -0.0441  0.1815  0.0897
16543W        W33390  13.412  19.137   3.611 -0.2092  0.3566 -0.1277
16544W        W33391   6.325   8.269   0.959  0.0426  0.3363 -0.0478
16545W        W33392  19.737   3.063   0.104  0.2714 -0.0955  0.0706
16546W        W33393   2.496   4.957   3.970  0.0762 -0.3098 -0.0416
16547W        W33394  15.026  17.263  12.232 -0.3364  0.1749  0.1218
16548W        W33395  11.764   4.018   9.677  0.0510  0.1998  0.2619
16549W        W33396  10.893  18.271  14.164 -0.3725  0.2116  0.2171
16550W        W33397   9.023  14.460   4.852  0.2501 -0.1005 -0.1140
16551W        W33398   2.854   7.328  12.376  0.1200 -0.2435 -0.2260
16552W        W33399  19.344  10.005   2.498  0.0142 -0.1204  0.0821
16553W        W33400   9.627   9.399   0.986 -0.0978 -0.0910 -0.1275
16554W        W33401   3.539   6.707  13.942 -0.0544 -0.1819 -0.1605
16555W        W33402   0.386  18.174  13.411 -0.1765 -0.2091  0.0748
16556W        W33403   6.448   9.585   0.926 -0.0534 -0.0457 -0.0356
16557W        W33404  18.708   4.612  12.151 -0.1785 -0.3495 -0.1811
16558W        W33405  14.460  10.843   0.005  0.2151 -0.0520 -0.3891
16559W        W33406  13.332   8.837   2.143  0.0523 -0.1099 -0.1392
16560W        W33407   0.663   9.650   1.268  0.1436  0.4839 -0.1913
16561W        W33408  15.053   7.279   4.205  0.1144 -0.0259 -0.0300
16562W        W33409  16.812  18.920  14.218  0.0057  0.0613 -0.1614
16563W        W33410  10.612   8.725   3.709  0.4278 -0.0463  0.1859
16564W        W33411   9.830   5.725  10.383  0.0058 -0.1177 -0.2101
16565W        W33412   2.676   3.224   9.837  0.0534 -0.0484 -0.2905
16566W        W33413   1.449  16.554  10.621  0.1293  0.0615  0.4275
16567W        W33414  14.639  14.618   4.421 -0.4321 -0.0124 -0.0129
16568W        W33415  15.283  13.496   2.386 -0.0349  0.2753 -0.0673
16569W        W33416  12.568   7.600  10.632  0.0502  0.2249  0.3606
16570W        W33417   5.789   5.039   3.528  0.0571  0.0907 -0.0628
16571W        W33418  11.356   0.540  13.999  0.0990 -0.1090  0.0301
16572W        W33419   0.706  19.428  12.901 -0.1872  0.1501 -0.1382
16573W        W33420   8.550  11.750  10.163  0.3330  0.0888 -0.2001
16574W        W33421  13.674  19.317  10.404  0.2298  0.3777 -0.1510
16575W        W33422  16.700  15.037  10.780  0.0512 -0.3437  0.2929
16576W        W33423   3.626   8.513  13.545  0.1860  0.1216  0.1194
16577W        W33424   7.642   7.030   3.595  0.0632 -0.4894 -0.2058
16578W        W33425   5.376  13.671  13.109  0.0495 -0.2545 -0.1050
16579W        W33426   8.991  18.162   3.014  0.1116  0.0632  0.2637
16580W        W33427   6.098   8.743   1.024  0.3633  0.0628  0.2031
16581W        W33428   6.389   7.876  11.616 -0.0715 -0.1692 -0.1655
16582W        W33429  18.856   6.643  13.367  0.1160  0.0001 -0.3060
16583W        W33430  15.471   6.260  13.072 -0.1332 -0.0907  0.0352
16584W        W33431  14.255  11.059  11.571 -0.0735  0.0407  0.2300
16585W        W33432  10.401  11.784  10.971 -0.1038  0.1810  0.2757
16586W        W33433   2.407   8.804  12.964 -0.1489 -0.2695 -0.3331
16587W        W33434  16.520  11.120  10.917  0.1914 -0.2545  0.0213
16588W        W33435   3.257  17.636   0.410 -0.0125  0.0812  0.3470
16589W        W33436  10.199  10.739  13.883 -0.0421  0.1356  0.0903
16590W        W33437   1.007  14.029  13.902  0.6255  0.2488 -0.0456
16591W        W33438  12.289  18.166  11.750  0.1534  0.0718 -0.0420
16592W        W33439  11.711  16.575  13.104  0.3198 -0.2652 -0.2749
16593W        W33440   0.011   2.328   3.401 -0.2490  0.1961  0.0928
16594W        W33441  17.540  12.425   4.392  0.1928  0.1519  0.0073
16595W        W33442  11.053   5.459   1.855 -0.1224  0.5635 -0.1058
16596W        W33443   6.520  10.180   4.463 -0.0671 -0.0602 -0.0234
16597W        W33444   2.070  14.551   2.345  0.1690  0.0158 -0.2288
16598W        W33445  12.502  14.155   0.779 -0.1115 -0.3231  0.1066
16599W        W33446   3.137  12.362  12.467  0.0509  0.0354  0.1331
16600W        W33447  15.242  11.604   2.927 -0.0009  0.0479  0.0669
16601W        W33448   4.255   2.776   9.718  0.0889  0.0525 -0.0796
16602W        W33449  18.452   4.459   3.478 -0.1842 -0.1200  0.1018
16603W        W33450   6.550  18.444   4.782  0.1781 -0.2617 -0.1523
16604W        W33451   5.305  12.776   0.832  0.2260 -0.1285  0.0569
16605W        W33452   7.322   3.104   4.047  0.0629  0.3481 -0.1039
16606W        W33453   8.208  14.621   4.880  0.3128  0.0786 -0.1078
16607W        W33454  12.048  10.109  10.837  0.2031  0.0391  0.0010
16608W        W33455   4.346  15.732   0.257 -0.0793  0.0268 -0.1334
16609W        W33456   8.807   0.260  12.070  0.0979  0.0761 -0.0619
16610W        W33457  14.822   6.760  10.927  0.0381 -0.2974  0.1311
16611W        W33458   5.326  18.981  10.549  0.0524 -0.0498  0.2326
16612W        W33459  19.037   5.144   3.608 -0.1371 -0.4888  0.0044
16613W        W33460  13.264  10.455   3.454  0.0930  0.0613 -0.0119
16614W        W33461  12.124  11.341   1.414 -0.1458 -0.3072 -0.3048
16615W        W33462   1.512   7.452   4.184  0.1097  0.0252 -0.0197
16616W        W33463   1.694  11.367   1.409 -0.1367 -0.3595  0.4689
16617W        W33464   4.661  18.629   3.867 -0.1069 -0.1604 -0.2406
16618W        W33465   4.788  16.512   3.883 -0.0147  0.2065 -0.3446
16619W        W33466   9.982   0.019  12.809 -0.1284 -0.3168  0.2195
16620W        W33467  19.090  16.966   1.553  0.0188 -0.1236 -0.1016
16621W        W33468  12.714  15.498  14.300 -0.1722 -0.2107 -0.3837
16622W        W33469   1.657  12.183   5.030 -0.1435 -0.1047 -0.2113
16623W        W33470   2.304   5.061   3.060  0.3547  0.3466 -0.0230
16624W        W33471   1.050   3.153   0.461  0.2177  0.2092  0.1596
16625W        W33472   4.621  11.739  11.013  0.0435  0.1070  0.2087
16626W        W33473   3.560  19.843   1.199 -0.1110 -0.2609 -0.1607
16627W        W33474   7.073   9.712   1.432  0.2884  0.2350 -0.1510
16628W        W33475  15.891   6.507   0.967  0.3753 -0.2979 -0.0399
16629W        W33476  16.731  16.610  12.503  0.1042 -0.0086  0.0112
16630W        W33477   2.318  19.721   5.251  0.4187  0.1206  0.2086
16631W        W33478   4.940  10.605   4.226 -0.2037  0.3117 -0.3245
16632W        W33479  11.314   8.829  10.864  0.0980  0.3544 -0.0534
16633W        W33480  15.977  14.173   4.067  0.1484  0.0304 -0.1012
16634W        W33481  18.571  14.266   3.338 -0.1800  0.0677 -0.0664
16635W        W33482  14.802   7.579   1.261  0.0540 -0.0566 -0.0551
16636W        W33483  10.027  16.466  10.343 -0.0572  0.2048  0.1784
16637W        W33484   4.220   0.397  11.582  0.3661 -0.0065  0.2627
16638W        W33485   7.225  17.977  12.337  0.3790  0.4816  0.0266
16639W        W33486  15.872  13.157  12.236 -0.1052 -0.1698 -0.2743
16640W        W33487   2.696   2.620   3.431 -0.2067  0.0467 -0.1466
16641W        W33488   6.142  12.111   3.471  0.2404  0.0463  0.1859
16642W        W33489   0.760   1.327   2.399 -0.0220  0.2587  0.1572
16643W        W33490  11.291   0.786  10.773  0.1464 -0.1764 -0.3704
16644W        W33491   2.048   8.627  11.187  0.1589  0.1693 -0.0811
16645W        W33492   6.200  16.038   3.167 -0.0994  0.0303  0.0045
16646W        W33493  10.742   8.634   0.629  0.2202  0.1449 -0.1226
16647W        W33494   2.209  19.689   1.711 -0.1779  0.0993 -0.0811
16648W        W33495  11.475   8.074   9.184 -0.1235  0.1856  0.1191
16649W        W33496   0.196   7.023  12.267 -0.2197 -0.0490 -0.0376
16650W        W33497  19.059   0.737  11.241 -0.0287  0.2097  0.0590
16651W        W33498  16.283   2.590  14.292 -0.0190 -0.2026  0.0960
16652W        W33499   9.638  12.626  12.095 -0.0692  0.1382  0.0161
16653W        W33500   2.681   9.599   0.157 -0.0354  0.0776 -0.0345
16654W        W33501  13.004   2.183  10.784  0.2413  0.1487 -0.1690
16655W        W33502   7.577  19.185   1.128 -0.2738  0.1734 -0.3274
16656W        W33503  12.480  17.598  11.905 -0.0387 -0.1711  0.1627
16657W        W33504   5.136   5.654  11.266 -0.0217 -0.0758 -0.1707
16658W        W33505  14.395   5.465   1.809  0.0650 -0.0354  0.1239
16659W        W33506   8.783  13.233   3.118 -0.1151 -0.1177 -0.1281
16660W        W33507  15.326  10.028  13.151  0.1880 -0.3247 -0.0757
16661W        W33508   8.725  12.805  12.828  0.0956 -0.3939  0.1396
16662W        W33509   6.094  10.270   2.681 -0.1316  0.0846  0.0487
16663W        W33510  11.500   0.928   2.827 -0.4110  0.1291  0.0181
16664W        W33511  11.782  12.647   1.372  0.2880  0.2459  0.4569
16665W        W33512   6.941   1.288   2.891 -0.2096  0.1441 -0.0648
16666W        W33513  16.497  14.467   1.475  0.0168  0.1217 -0.2084
16667W        W33514  11.339  14.888   3.807  0.2772  0.0338 -0.1484
16668W        W33515   2.594   9.245  11.626 -0.2114  0.0968 -0.0516
16669W        W33516   7.550  19.684   4.397 -0.0780 -0.0890  0.1426
16670W        W33517  14.982   0.944   4.439  0.0486  0.2097 -0.2821
16671W        W33518  16.869   3.219  12.536  0.1146  0.0505  0.1584
16672W        W33519  18.915   5.694   1.537  0.2268  0.0080 -0.2406
16673W        W33520  10.187   5.257  12.592  0.1192  0.0833  0.1520
16674W        W33521   3.014  10.160  11.610 -0.1931 -0.0521  0.0942
16675W        W33522   7.836  19.470   4.756 -0.2649 -0.2347  0.3379
16676W        W33523   0.413   3.088   0.037  0.2940 -0.1812  0.2537
16677W        W33524   2.662  15.554  12.604 -0.0700 -0.0195  0.0777
16678W        W33525  12.917  14.818  13.827  0.0034 -0.1315  0.0040
16679W        W33526   2.848  14.364   2.952 -0.2251  0.1139  0.1941
16680W        W33527  11.078  10.012   3.322 -0.0589 -0.0303 -0.1437
16681W        W33528   9.245   3.403   2.343 -0.2007 -0.2537 -0.0606
16682W        W33529   8.156   3.353   2.964 -0.0932 -0.0047 -0.3981
16683W        W33530  19.288  11.745   3.852 -0.6199  0.3035 -0.0577
16684W        W33531   5.838   4.010  13.053 -0.1515 -0.2916  0.0602
16685W        W33532   6.157  15.456   2.153  0.1156  0.3201  0.1798
16686W        W33533  11.019  14.962  12.412 -0.1318 -0.1794  0.0270
16687W        W33534   0.064   1.764  11.986 -0.6120 -0.1409  0.0110
16688W        W33535   8.926  13.833  14.324  0.0439 -0.2184  0.0735
16689W        W33536  15.940  17.484   1.590 -0.1178  0.3389  0.0127
16690W        W33537  13.993  17.498  12.012 -0.1866  0.0041 -0.1799
16691W        W33538  17.804   7.508  13.676 -0.1289 -0.0253 -0.1514
16692W        W33539  12.662  17.755   9.877  0.3798 -0.0110  0.2543
16693W        W33540  12.831   4.456  11.462 -0.4121  0.4249  0.0130
16694W        W33541  11.866   2.585   5.216  0.2048  0.1054  0.2614
16695W        W33542  12.234  15.415   3.659 -0.2506 -0.1474 -0.1739
16696W        W33543  17.405   7.155   9.940 -0.2711 -0.0226 -0.0580
16697W        W33544  12.238   6.457   9.692 -0.2389 -0.3236  0.2053
16698W        W33545   8.083  12.734   5.587  0.1025 -0.0090 -0.2592
16699W        W33546   2.625   9.691   0.765  0.0538  0.1903  0.1247
16700W        W33547   0.583   0.958   2.991  0.2549 -0.1158  0.1316
16701W        W33548  16.431   0.637  13.623  0.0497  0.3581  0.0087
16702W        W33549   0.400  14.694  10.340  0.0650  0.1092 -0.2088
16703W        W33550  15.678  12.978   9.360 -0.1524 -0.1359 -0.2403
16704W        W33551   1.266   2.573  14.240 -0.4650 -0.0053  0.0986
16705W        W33552  19.585  19.591  10.103  0.2923 -0.0442 -0.0911
16706W        W33553   0.153  13.907   4.924 -0.1170 -0.2996  0.2794
16707W        W33554  10.478  17.647   4.168 -0.0727  0.0543  0.0864
16708W        W33555  14.365   1.491   1.387 -0.0779 -0.0258 -0.0948
16709W        W33556  16.126   6.193  11.854 -0.0897 -0.3770  0.1904
16710W        W33557   7.698  19.175   0.447 -0.1115 -0.0999 -0.2578
16711W        W33558   6.942   8.259   2.648  0.0562  0.1767  0.0477
16712W        W33559  11.861   3.763  10.135  0.2247 -0.2625 -0.0247
16713W        W33560  19.370  10.022   4.618  0.3790 -0.0564  0.0471
16714W        W33561  18.469  13.223  13.953  0.3346  0.3903 -0.1866
16715W        W33562   8.597  12.092   0.499 -0.3321 -0.2294  0.0378
16716W        W33563  13.719   9.553   1.888 -0.0474 -0.0478 -0.1250
16717W        W33564   9.787   5.593  10.898  0.1674 -0.2794  0.0024
16718W        W33565   5.168  18.965   1.879  0.2306  0.3194  0.0627
16719W        W33566  16.278   9.331   2.108  0.2438  0.0043 -0.0567
16720W        W33567  13.330  10.440  11.463 -0.2196 -0.1098  0.1989
16721W        W33568  19.620   1.389  10.885 -0.2321  0.1578  0.0221
16722W        W33569   4.318  18.913  12.084 -0.4077 -0.0563  0.3006
16723W        W33570  10.738  15.776  14.212  0.2822  0.1154  0.1825
16724W        W33571   2.099   0.121  11.747 -0.2922 -0.0509  0.0867
16725W        W33572  12.929   8.709   0.988  0.0497  0.1584  0.0809
16726W        W33573   5.927  16.489  13.465  0.1303 -0.2210  0.1489
16727W        W33574   0.986  12.175   1.438 -0.1356  0.0265  0.2912
16728W        W33575   3.150  15.076   2.730  0.1271  0.0710  0.0461
16729W        W33576   8.397   0.630  12.200 -0.1963 -0.1586 -0.1117
16730W        W33577   9.880   9.852  14.226  0.0566 -0.0661 -0.2095
16731W        W33578  11.512   3.381   3.705 -0.0075 -0.5049 -0.2722
16732W        W33579   7.184   1.123   9.186 -0.0319 -0.2963 -0.1102
16733W        W33580  17.941   7.742   3.888  0.0207 -0.2213  0.1809
16734W        W33581   7.496   6.308  13.995 -0.1169  0.1388  0.0608
16735W        W33582  14.005  13.946  12.459 -0.0717 -0.4066 -0.2509
16736W        W33583   1.406   7.456  11.975  0.1497  0.1290  0.2863
16737W        W33584  16.332   8.414   0.327 -0.3698 -0.2539  0.0038
16738W        W33585   3.144  12.058  13.465 -0.3540  0.0862 -0.0412
16739W        W33586   5.054  13.645   3.794  0.3068  0.2656  0.2599
16740W        W33587   8.929   8.366   1.635 -0.1379  0.0285 -0.0092
16741W        W33588  18.217  14.708  13.404 -0.0075 -0.0095  0.2055
16742W        W33589   6.848  19.501   0.363  0.2724 -0.1015  0.1227
16743W        W33590   3.304  10.756   1.249  0.3339 -0.0981  0.0587
16744W        W33591   4.091   4.243  11.119 -0.0606  0.1677  0.2324
16745W        W33592  18.173  18.355  13.043  0.0718 -0.3902  0.3838
16746W        W33593  12.488  14.925  13.589  0.0338 -0.2813  0.0304
16747W        W33594   8.062   2.954   3.396  0.0050  0.1399 -0.2551
16748W        W33595   1.475  10.932   3.811 -0.4473  0.0757  0.0865
16749W        W33596  11.605   7.148   2.157  0.3571  0.2562  0.1820
16750W        W33597   9.911  17.732  13.315 -0.1318 -0.1283 -0.0797
16751W        W33598   0.816  18.699   0.801 -0.1375 -0.1649 -0.1030
16752W        W33599  15.809  15.195  11.343  0.1577  0.0136 -0.1200
16753W        W33600  15.051  16.260   2.390  0.1266  0.1821 -0.0884
16754W        W33601  11.049   1.937   3.816 -0.1904 -0.1257 -0.2646
16755W        W33602   2.458  18.082   9.815  0.2598  0.2367 -0.1592
16756W        W33603   1.803   6.103  11.734 -0.1078 -0.0035 -0.1957
16757W        W33604   3.839  18.200  11.656 -0.4086 -0.2610 -0.3807
16758W        W33605   5.222   1.753  11.958  0.1202 -0.3117 -0.0837
16759W        W33606  12.067   2.076  14.151  0.0133 -0.0817  0.0347
16760W        W33607   0.917  18.805  10.432  0.0450 -0.0482  0.2492
16761W        W33608  17.946  16.812  10.181 -0.0440 -0.3658  0.2594
16762W        W33609  19.302   9.662  11.560  0.3899 -0.1462  0.1562
16763W        W33610  11.014  10.231  12.270 -0.0210 -0.2500 -0.1989
16764W        W33611   8.953  17.390  10.557  0.1839 -0.3563  0.0341
16765W        W33612   2.248  12.011  13.402  0.2364 -0.1877  0.2655
16766W        W33613   1.376   4.530   4.106  0.0080  0.1363  0.0524
16767W        W33614   1.414   0.272  11.797  0.2837  0.2204  0.0165
16768W        W33615  18.985   7.577   0.410 -0.0954 -0.2684 -0.1263
16769W        W33616  12.432  10.674  14.094  0.2076 -0.1249 -0.0589
16770W        W33617  14.817   8.747   1.514  0.0476  0.1655  0.0047
16771W        W33618   9.748  16.064   2.764  0.1245 -0.1718  0.0383
16772W        W33619   2.322  19.109   3.969 -0.1628  0.1454 -0.0920
16773W        W33620  16.132   5.305   1.875  0.0663  0.1226 -0.2963
16774W        W33621  14.234   0.147  13.416  0.0506 -0.0165 -0.4394
16775W        W33622  11.886   7.541  13.246 -0.1471  0.3809  0.5612
16776W        W33623  15.378   1.358  12.241  0.0945  0.0529 -0.0314
16777W        W33624  18.949  17.527   4.189  0.0932  0.0604  0.2255
16778W        W33625   3.503  15.409   3.203  0.0172 -0.3557  0.0650
16779W        W33626  14.105   7.616   1.905  0.0488  0.0575 -0.1988
16780W        W33627  12.952  17.949   3.079 -0.2766  0.0240 -0.2061
16781W        W33628   3.989   9.415  12.082  0.2481 -0.1635  0.2333
16782W        W33629   8.286   2.973  11.279  0.1883  0.2039 -0.0799
16783W        W33630  13.682  12.896  11.910  0.2408 -0.1702 -0.0742
16784W        W33631   9.639   3.889   1.181  0.1945  0.2080 -0.0428
16785W        W33632  14.524   6.135   2.428 -0.1770  0.2547  0.3048
16786W        W33633  10.944   0.204  13.780  0.3334  0.0683 -0.2206
16787W        W33634  14.195  16.070   0.864 -0.0727 -0.0647 -0.1716
16788W        W33635  10.925   7.878   3.745 -0.3128 -0.0441 -0.0424
16789W        W33636  11.444   9.062  10.289 -0.0127 -0.2746  0.2115
16790W        W33637   7.711   0.824   3.315 -0.2380  0.2463 -0.1438
16791W        W33638   3.877   3.127  10.774  0.0550 -0.2076  0.1854
16792W        W33639  15.999  18.828  11.458 -0.2045  0.2934  0.0340
16793W        W33640  12.515   0.142  14.324  0.3009 -0.0248  0.0133
16794W        W33641  18.561  13.780   1.024  0.1063 -0.1395 -0.0991
16795W        W33642  19.295   8.856   4.287 -0.1207 -0.1192 -0.0866
16796W        W33643  13.839  15.207   3.290  0.0379 -0.2200  0.4382
16797W        W33644  16.021  12.746   3.309  0.0160  0.0328 -0.1508
16798W        W33645  19.744   7.024   0.442 -0.2169  0.1278 -0.2988
16799W        W33646   9.008   3.621   1.367  0.0988  0.0907 -0.1303
16800W        W33647   9.398   1.455  13.992 -0.0832  0.0494 -0.2697
16801W        W33648   4.838  18.966  12.689  0.0325 -0.1145 -0.3230
16802W        W33649  12.950   0.848  11.871 -0.0632 -0.1590 -0.0171
16803W        W33650   1.739  11.626  12.150 -0.0452  0.2588  0.0340
16804W        W33651   5.233  11.515   1.562 -0.0329  0.6009  0.0237
16805W        W33652  12.445   4.382   0.794 -0.3476 -0.2537 -0.5985
16806W        W33653  18.491  11.311  13.274 -0.1837 -0.0347 -0.1568
16807W        W33654   0.906  17.744   3.738 -0.1467  0.0019 -0.2410
16808W        W33655  11.569  13.408   2.458 -0.1363  0.2153 -0.1582
16809W        W33656   0.471  19.015  12.928 -0.2737  0.1028  0.1833
16810W        W33657   7.601   5.241  11.507 -0.0210 -0.2076  0.1321
16811W        W33658  18.603   9.484  10.130 -0.0135  0.1353 -0.1268
16812W        W33659  10.684   3.704  12.033  0.1123  0.2305  0.5399
16813W        W33660  15.375  17.511  13.180 -0.0824 -0.4346 -0.2021
16814W        W33661  11.936  15.508  11.930  0.3287  0.3321 -0.2702
16815W        W33662   8.377  14.687   4.068 -0.0032 -0.3041 -0.2412
16816W        W33663   3.326  14.931  12.334 -0.2823  0.1576 -0.1124
16817W        W33664  17.799  19.210   0.201  0.0694 -0.2822  0.2361
16818W        W33665  19.840  16.552   1.116 -0.0606 -0.0899 -0.1142
16819W        W33666   0.135  10.431   0.457 -0.0685 -0.1608 -0.3956
16820W        W33667   2.939  11.113  13.314 -0.0599 -0.0685  0.2458
16821W        W33668  14.724  17.832  10.903 -0.0329 -0.2596 -0.1015
16822W        W33669   1.805  15.347   9.382 -0.3208  0.2044  0.0655
16823W        W33670  10.280   4.193   2.872 -0.0003  0.3322 -0.2390
16824W        W33671   3.410  18.164   0.156 -0.2293  0.2772  0.0812
16825W        W33672  13.661   8.507   2.314 -0.1143  0.4177 -0.1194
16826W        W33673   6.443  11.124  11.731 -0.0455  0.0234 -0.1467
16827W        W33674  13.133  17.381   1.353 -0.2666 -0.3623 -0.3222
16828W        W33675   2.898  15.658   2.665  0.1526 -0.0871  0.5106
16829W        W33676   9.185   9.937  14.193 -0.3462 -0.3762  0.0099
16830W        W33677   4.523  13.364   1.907 -0.0168  0.1825 -0.0994
16831W        W33678   3.053   4.556   9.194 -0.0424  0.1004  0.3222
16832W        W33679   0.385  13.011  10.244  0.2116 -0.0389  0.2346
16833W        W33680  17.803  11.064  10.879  0.1265  0.1593 -0.1917
16834W        W33681  11.926  11.333  11.193 -0.1793  0.2914 -0.0336
16835W        W33682   4.308   0.784   9.394  0.1390  0.0335 -0.2219
16836W        W33683   8.433   7.239   4.438 -0.3769  0.0360 -0.0750
16837W        W33684  16.206  18.818  13.051 -0.2842 -0.4337 -0.0230
16838W        W33685  19.565  10.666  10.883  0.5600 -0.1666 -0.0272
16839W        W33686   7.855   7.930   1.588  0.5649  0.0678  0.0826
16840W        W33687  18.674   9.607   1.969  0.1159  0.1872  0.2337
16841W        W33688   6.329   3.217  14.242 -0.0565 -0.1305  0.2945
16842W        W33689  12.280  17.936   3.100  0.0409  0.4322 -0.1660
16843W        W33690  17.463   7.202  10.537 -0.0931  0.1993 -0.1008
16844W        W33691  14.152  12.090   2.597  0.2911 -0.0134 -0.2011
16845W        W33692   6.119  10.218  14.199 -0.2081  0.2322 -0.1101
16846W        W33693  13.258  19.382   3.230 -0.2143  0.3611 -0.1408
16847W        W33694   5.390  11.727   9.876 -0.0169 -0.1531  0.0042
16848W        W33695   9.401   7.845   0.924  0.2748 -0.1729 -0.3776
16849W        W33696  18.065   6.015   0.035  0.1805  0.2633  0.0706
16850W        W33697   8.954   5.969  10.614 -0.0114 -0.0700  0.2562
16851W        W33698   6.341  18.657   0.046 -0.7531  0.0431  0.3037
16852W        W33699   9.780   9.018   1.482 -0.1302 -0.1767 -0.0278
16853W        W33700   6.500  10.213  11.378  0.0214 -0.0196 -0.3501
16854W        W33701   8.061   9.438  12.758 -0.0658  0.0592 -0.0083
16855W        W33702   8.818   4.942   0.134 -0.1444 -0.1060 -0.1081
16856W        W33703  13.219  17.999   3.537 -0.0285 -0.0791 -0.0105
16857W        W33704  15.974   2.226   0.449  0.0249 -0.0242  0.0768
16858W        W33705   5.711  18.851   1.841  0.3263  0.0200 -0.1974
16859W        W33706  19.535   3.611   3.261  0.0438 -0.1164  0.1149
16860W        W33707  13.724  16.802  10.162 -0.0509  0.1909  0.0796
16861W        W33708  13.300   6.059  12.538  0.0893 -0.2875 -0.2156
16862W        W33709   1.418  11.591   1.040 -0.0936 -0.0427  0.0143
16863W        W33710  16.506   9.478  10.190 -0.0241 -0.1342 -0.0839
16864W        W33711  18.323   2.552   3.367  0.1424 -0.0700  0.1544
16865W        W33712  18.748   1.960   2.882  0.1006 -0.6848  0.1242
16866W        W33713   7.878   5.106  12.715 -0.0978 -0.4511  0.1666
16867W        W33714   7.455   4.867  14.343 -0.0720  0.1648 -0.2084
16868W        W33715  17.904   4.288  10.328 -0.0373  0.3232  0.1046
16869W        W33716   7.556   3.988   0.078 -0.2320  0.4443  0.5006
16870W        W33717  15.757  11.825   2.176  0.0412  0.1729 -0.0325
16871W        W33718  15.242  18.866   1.852 -0.2010 -0.0476 -0.1279
16872W        W33719  11.334   2.736   2.958 -0.1301  0.1756 -0.2215
16873W        W33720  13.568   5.945   1.756 -0.2696  0.0972  0.1115
16874W        W33721  14.742   8.715  10.862  0.0794 -0.2857  0.1028
16875W        W33722   3.118  19.596   2.000 -0.2058  0.2691  0.1861
16876W        W33723  12.955  14.550   4.808 -0.1852  0.1416  0.3977
16877W        W33724  14.080   2.088   3.507 -0.2174 -0.3940  0.2169
16878W        W33725   6.062  14.905   2.819 -0.0388 -0.4413 -0.4027
16879W        W33726  16.951  14.290   2.831 -0.0449  0.0762 -0.0262
16880W        W33727   7.424  19.690  11.843  0.1624 -0.0880 -0.2555
16881W        W33728  13.276   4.621   4.992 -0.1300  0.0900  0.3627
16882W        W33729   3.089  19.215  13.228  0.3098  0.2248  0.1061
16883W        W33730   0.607   6.996   1.004  0.1660 -0.3564  0.0398
16884W        W33731  10.812   0.949  13.236 -0.0054  0.0531 -0.2578
16885W        W33732   0.398   3.850  12.897  0.1505  0.2367 -0.0771
16886W        W33733  17.303  16.477  12.307 -0.3679 -0.1357  0.1214
16887W        W33734   6.992   6.764  10.453 -0.1165 -0.0442  0.0479
16888W        W33735   3.387  14.688   2.356 -0.2976 -0.1682  0.0258
16889W        W33736   1.217  12.248  11.779 -0.0653  0.0230  0.3778
16890W        W33737  19.510  16.970  11.018 -0.0510 -0.2810 -0.1326
16891W        W33738  14.256   1.795   4.930 -0.1371 -0.0085  0.0006
16892W        W33739  12.102  13.252   2.230 -0.0795 -0.1707  0.1909
16893W        W33740  10.896  12.836   3.496 -0.0533 -0.1467  0.3056
16894W        W33741   3.691  17.983   0.615 -0.1393  0.0450 -0.0520
16895W        W33742   6.125  11.640  14.259 -0.1154  0.0048 -0.0700
16896W        W33743  16.588  13.364   3.069 -0.0215  0.1634  0.0040
16897W        W33744   0.237   7.635   2.219 -0.1572  0.2991  0.0578
16898W        W33745  14.054  19.246   4.039 -0.3010 -0.0307  0.0022
16899W        W33746  17.532   8.725   2.402 -0.0147  0.1163  0.2185
16900W        W33747  12.316  19.216   3.827 -0.0766 -0.1002  0.2576
16901W        W33748  16.318  12.544   0.820  0.3213  0.0843  0.1554
16902W        W33749  10.668  15.550   2.528  0.2437 -0.0427 -0.1110
16903W        W33750   0.336   9.712   4.077  0.2368  0.2948  0.3253
16904W        W33751   1.582   4.863  10.574  0.0716  0.0678 -0.1298
16905W        W33752   8.902  19.157  11.448 -0.1677 -0.1702 -0.0143
16906W        W33753   5.517   0.158  11.272  0.0891  0.1038  0.2267
16907W        W33754   8.190   8.677  13.738 -0.2054 -0.1699  0.1384
16908W        W33755  17.855   9.896  12.197 -0.1456 -0.0306 -0.0609
16909W        W33756   1.689   4.354   0.977  0.2369  0.1485 -0.1969
16910W        W33757  10.060  14.265  10.291  0.0896  0.0362  0.0467
16911W        W33758  12.508   1.949  10.705  0.4881  0.0378  0.0524
16912W        W33759   6.144  17.446  13.521  0.2905 -0.0966 -0.0880
16913W        W33760  12.373  10.393  12.187  0.0991  0.0739  0.1420
16914W        W33761  17.540   9.516   1.283  0.0841 -0.4025 -0.1357
16915W        W33762  17.934   5.079   4.835 -0.0846  0.0988  0.3733
16916W        W33763   5.614   2.600  14.188 -0.0662  0.3575  0.0083
16917W        W33764   1.536  16.810   3.535 -0.4364  0.1564  0.0735
16918W        W33765  10.137   3.868   0.946 -0.1573 -0.0816 -0.1869
16919W        W33766   6.876  17.272   0.008 -0.2002  0.3567 -0.1526
16920W        W33767  18.241  19.837   4.119  0.0935  0.3058 -0.0681
16921W        W33768  15.594  17.320   4.286  0.0270  0.1251 -0.0141
16922W        W33769   6.624  14.152  11.157  0.1100 -0.1294  0.0481
16923W        W33770  11.911  11.992   3.623 -0.1825  0.1313 -0.1053
16924W        W33771   5.582  14.779  10.596  0.2133 -0.1757  0.0889
16925W        W33772   3.858   8.270   5.422 -0.2709 -0.3104  0.2837
16926W        W33773  16.728  17.388  14.295 -0.1672 -0.0705  0.1348
16927W        W33774   6.732   3.532   4.527  0.1594 -0.2245 -0.0104
16928W        W33775   0.526  11.970   2.803  0.0196  0.4437  0.1220
16929W        W33776  13.597   7.546   9.647  0.4187 -0.0728  0.2414
16930W        W33777   5.212   8.476  10.882 -0.3627  0.0347 -0.0797
16931W        W33778   3.581  12.415  12.150  0.1383 -0.0357  0.3638
16932W        W33779   5.825   3.660   4.072  0.1911  0.1661 -0.1014
16933W        W33780  15.796  11.535  12.997 -0.0858  0.1854 -0.1798
16934W        W33781   1.668   8.545  10.879 -0.0408  0.3791  0.0896
16935W        W33782  16.504   3.992  11.434  0.0039  0.1182 -0.0556
16936W        W33783   6.148   7.547   0.272 -0.0566  0.0132  0.2746
16937W        W33784   8.493  16.824   2.529  0.3452 -0.2076 -0.1332
16938W        W33785  10.948  16.676   2.991  0.1753 -0.0318 -0.3554
16939W        W33786   5.646   0.173   2.477  0.1031 -0.1380 -0.1557
16940W        W33787   8.059   8.024   3.882 -0.2713  0.0410  0.0195
16941W        W33788  17.707  13.116   1.285 -0.0801 -0.0466 -0.0046
16942W        W33789   0.605   7.822   3.787 -0.4192 -0.0487  0.1669
16943W        W33790  14.817   4.992   1.711 -0.3205  0.0596 -0.2385
16944W        W33791  16.824  12.290  11.454 -0.2358  0.1619  0.1195
16945W        W33792  18.144   3.813  13.002 -0.1453 -0.2364 -0.0781
16946W        W33793  13.765  14.839  11.339 -0.2326  0.2407 -0.0555
16947W        W33794  14.383   7.188   0.470 -0.1442 -0.4558 -0.4235
16948W        W33795  16.582  14.924   1.717 -0.1330 -0.1640 -0.0387
16949W        W33796  11.499  13.454  13.352 -0.2090 -0.0992  0.1348
16950W        W33797   6.609  18.478   2.799 -0.1818 -0.2389  0.3819
16951W        W33798   7.974  19.108  14.099 -0.5860 -0.3130  0.0923
16952W        W33799   9.371   6.701   9.857 -0.1679  0.2361  0.0722
16953W        W33800  14.674  13.857   1.828  0.2905 -0.0894  0.5104
16954W        W33801   0.266  14.891   1.998  0.3727  0.1255 -0.0691
16955W        W33802  14.875   8.871   5.338 -0.2884  0.2164 -0.2524
16956W        W33803   8.929   6.204  11.590 -0.1571  0.1653 -0.2490
16957W        W33804   4.232   3.714   4.919  0.4485  0.2950 -0.2222
16958W        W33805   9.056  11.540   3.873 -0.1508  0.0252 -0.1786
16959W        W33806   3.139  14.061  12.725  0.1739  0.1557 -0.0917
16960W        W33807   4.188   8.526  13.585  0.2355  0.1626  0.0022
16961W        W33808  18.857  11.252   2.707  0.0400 -0.0111 -0.1456
16962W        W33809  19.150  18.557   9.802  0.1324  0.1275  0.2473
16963W        W33810  19.557   4.364  10.751 -0.0404 -0.1815 -0.0213
16964W        W33811   9.024   1.979   1.138 -0.3492  0.0972  0.0939
16965W        W33812  14.064  11.609   3.777 -0.4372  0.4462 -0.2066
16966W        W33813   8.235   7.507  12.282  0.1178  0.0714  0.0887
16967W        W33814  12.796  17.296   3.375 -0.0572  0.1788  0.0634
16968W        W33815  17.987  18.207  10.682 -0.1970 -0.2608  0.1625
16969W        W33816  16.068   3.945   1.596  0.0036  0.0222 -0.0269
16970W        W33817   8.052   1.260  13.886 -0.0219  0.0901 -0.2213
16971W        W33818   1.052   2.419   4.524 -0.2030  0.1952  0.0512
16972W        W33819   3.413  15.842   1.555  0.1106  0.2685 -0.0708
16973W        W33820  10.248   6.423   2.531 -0.1680 -0.0484 -0.1366
16974W        W33821   2.753   5.226   4.701 -0.5575 -0.0055  0.0645
16975W        W33822  13.744   8.389   1.237 -0.2559 -0.1807  0.0575
16976W        W33823  13.170   6.237   3.190 -0.1364  0.0605 -0.1605
16977W        W33824   1.521   0.637   2.387  0.2089  0.1397 -0.2594
16978W        W33825  17.787  12.364  12.849 -0.0521  0.1112  0.2010
16979W        W33826  18.933   8.886   4.638  0.0660  0.0322 -0.0319
16980W        W33827  14.446  15.419   3.923 -0.1139  0.2428  0.2102
16981W        W33828  11.163   8.932  12.247 -0.1656 -0.0711  0.1313
16982W        W33829   7.583  18.488  12.377  0.3577  0.0582  0.0947
16983W        W33830  18.222   0.393   4.628  0.0020 -0.0352  0.1078
16984W        W33831  15.171   8.018   3.323 -0.2396  0.2823 -0.0346
16985W        W33832  13.442   3.605   4.254  0.0366 -0.3193  0.1774
16986W        W33833   8.184   5.795  11.487  0.0323 -0.2385  0.1132
16987W        W33834   9.931   2.682   0.396 -0.2742  0.0396 -0.0811
16988W        W33835   1.592   5.329  10.919  0.0839  0.0282  0.2742
16989W        W33836   0.448   2.699  11.946 -0.1073 -0.0388  0.1608
16990W        W33837   0.566  13.498   1.464  0.2693 -0.0289 -0.0246
16991W        W33838   3.792   2.633  12.911 -0.0366 -0.2123  0.3577
16992W        W33839  19.498   2.709   2.931  0.1545  0.0557  0.0802
16993W        W33840   3.010   2.476   1.817 -0.1358 -0.1999 -0.0979
16994W        W33841  17.994   4.801  12.503 -0.0803  0.1667 -0.1791
16995W        W33842   4.704   3.333  12.585  0.2655  0.0128  0.1209
16996W        W33843   8.540   3.450   0.664  0.3621  0.2185 -0.1234
16997W        W33844   8.062   0.708   2.857 -0.1368  0.0304 -0.0853
16998W        W33845   4.467   4.741   4.783 -0.3174  0.0960 -0.1143
16999W        W33846   7.219  14.375  13.316  0.2018 -0.1454 -0.0219
17000W        W33847  11.470  19.167  11.970  0.0449  0.0475 -0.1674
17001W        W33848  16.265  16.114  11.194 -0.0131  0.1695 -0.0368
17002W        W33849   7.552   4.489  13.456  0.0104 -0.0713  0.2089
17003W        W33850  14.807   4.217   1.033  0.2962 -0.1878  0.0560
17004W        W33851   2.100   1.590   1.523  0.1497  0.1678 -0.0987
17005W        W33852  12.110  19.826   1.347 -0.0558 -0.0422  0.1348
17006W        W33853  10.562  17.392  10.726 -0.2551  0.2379  0.1690
17007W        W33854   0.420   6.107   0.875  0.0881 -0.3347 -0.1051
17008W        W33855  18.253  10.769   9.331  0.0536  0.1644 -0.2585
17009W        W33856  17.440   0.164  11.036  0.0319 -0.2152  0.0804
17010W        W33857   8.719   9.989   0.262  0.1030  0.0447  0.1741
17011W        W33858   4.090  13.162  11.861  0.0762  0.1632 -0.0581
17012W        W33859   3.406   7.708   2.055 -0.0058 -0.1166  0.1235
17013W        W33860  14.039  14.089   0.872 -0.1805  0.0016  0.0256
17014W        W33861  18.950  19.173   3.688  0.2705  0.1799 -0.1096
17015W        W33862   3.538  15.776   5.431 -0.1860 -0.0369 -0.0121
17016W        W33863   8.416   9.361  10.394 -0.4880  0.2669 -0.0035
17017W        W33864   4.883   6.564   3.702  0.1604 -0.0998  0.0297
17018W        W33865  13.784   5.649   0.293  0.2439 -0.0897 -0.4925
17019W        W33866  17.336   6.604  13.613 -0.0455 -0.0190 -0.0390
17020W        W33867  19.276  12.793  12.439 -0.2002 -0.0471  0.2350
17021W        W33868  17.687   0.220  12.021  0.0598  0.0931  0.2694
17022W        W33869   5.292  11.101   2.785  0.2216  0.0103  0.1360
17023W        W33870   0.704  18.734  14.103 -0.1184  0.1285 -0.2119
17024W        W33871  16.422  15.148  13.427 -0.0487 -0.0808  0.0835
17025W        W33872   9.401  18.597   0.097 -0.2195 -0.1745  0.3467
17026W        W33873   6.946  10.569  13.107 -0.1619 -0.0753 -0.0325
17027W        W33874  16.645   4.507   5.002  0.2223 -0.1097  0.2548
17028W        W33875  15.120   2.818  13.228 -0.2536 -0.0955  0.0855
17029W        W33876  14.789   5.059  14.224 -0.0080  0.2545  0.1081
17030W        W33877  13.633  15.509  11.972  0.3298 -0.0683 -0.0593
17031W        W33878  15.314  19.732   3.681  0.1407  0.0246  0.0386
17032W        W33879  16.321   5.351   3.172  0.0577  0.4679  0.1557
17033W        W33880   6.927  17.957   3.733  0.1136 -0.1692 -0.2817
17034W        W33881   9.556   8.765  10.386 -0.3310  0.3574 -0.0134
17035W        W33882  15.135   4.311   4.043 -0.0916 -0.0805 -0.2067
17036W        W33883  17.948  10.579  11.626  0.0185 -0.0150  0.0253
17037W        W33884  12.750  16.442   2.552 -0.1455 -0.1389  0.3751
17038W        W33885  15.905   3.618  13.231  0.1024  0.0597 -0.0732
17039W        W33886  18.301  14.681   3.145 -0.1455  0.0758 -0.1303
17040W        W33887   3.994  16.550   2.424 -0.3727  0.0288 -0.2719
17041W        W33888   9.167   2.227  12.307 -0.0583 -0.0224  0.4523
17042W        W33889   4.638  16.592   0.504 -0.1089 -0.4013  0.1550
17043W        W33890  14.373   6.551   0.638  0.0722 -0.0951  0.2893
17044W        W33891  16.394  11.366  12.359  0.0024  0.3249  0.0899
17045W        W33892   0.389   8.219   0.172  0.0335 -0.0509 -0.3336
17046W        W33893  17.770  10.710  13.867 -0.0965  0.0968  0.1047
17047W        W33894   1.479   9.113  10.074 -0.1225  0.1048 -0.0103
17048W        W33895   2.850   7.366  10.236 -0.1573 -0.0151 -0.3868
17049W        W33896   1.738  13.757   5.376 -0.2446  0.0312  0.0636
17050W        W33897   1.174  13.779   0.436  0.0880 -0.0681 -0.6243
17051W        W33898  16.109  13.409   2.816  0.0989 -0.3269  0.0299
17052W        W33899  18.809   9.060  13.471  0.1063  0.0268 -0.0619
17053W        W33900  15.050  16.298  14.264  0.0220 -0.0517 -0.4610
17054W        W33901   6.068   7.683  12.697 -0.0259 -0.2216  0.1535
17055W        W33902  17.005  16.891   0.627 -0.0966 -0.1911  0.5545
17056W        W33903   4.205  18.059  13.598 -0.1314 -0.0120  0.0546
17057W        W33904   2.485   6.232  12.003 -0.1780  0.0228  0.1706
17058W        W33905   1.767   6.955   3.932 -0.1958  0.1101  0.0702
17059W        W33906   9.088   9.263   0.075  0.1150 -0.1602  0.5050
17060W        W33907   9.920   9.514   3.614  0.1336 -0.1480  0.1900
17061W        W33908   6.673  15.942   3.010 -0.1851 -0.4267 -0.1934
17062W        W33909   0.017  14.855   9.243 -0.1385 -0.1640  0.1925
17063W        W33910  12.886  11.024   2.726 -0.0182 -0.1631 -0.0312
17064W        W33911   0.680  10.839   4.118  0.1967  0.0973  0.1013
17065W        W33912   0.840  18.305   0.001 -0.0595 -0.1190 -0.1643
17066W        W33913   0.387  17.343   0.309 -0.1831 -0.2277 -0.1567
17067W        W33914  15.637   3.158   3.518 -0.2461  0.2570  0.0754
17068W        W33915   3.775  19.812  10.498 -0.3028  0.1818 -0.2341
17069W        W33916  17.276   1.524  10.724 -0.3832  0.2116  0.0180
17070W        W33917   2.283  18.953   4.710 -0.0379  0.0608 -0.0838
17071W        W33918   1.214   8.148  10.224  0.0179 -0.1698 -0.2676
17072W        W33919  13.564   0.294   2.147  0.4550  0.1438  0.3279
17073W        W33920  18.788   5.066  13.662 -0.1628 -0.0553 -0.0920
17074W        W33921  16.283  13.627  11.517 -0.2087  0.2739 -0.1780
17075W        W33922  16.078   6.415   4.494 -0.2381 -0.1448  0.2516
17076W        W33923   8.423  13.032  10.911 -0.5467  0.2312 -0.1247
17077W        W33924  13.724  14.255   4.180 -0.3725  0.1971 -0.1473
17078W        W33925   8.978   1.699  14.040  0.0870 -0.1483  0.0101
17079W        W33926   8.652   0.221   3.991 -0.0587  0.2089 -0.2331
17080W        W33927  17.651   5.805  12.171  0.1142  0.0824  0.0575
17081W        W33928   5.656   1.261  10.520 -0.1342  0.1283  0.0543
17082W        W33929   2.878   1.937  11.562 -0.0088 -0.2401 -0.0613
17083W        W33930   9.379  14.064   3.605  0.2255 -0.0339  0.2380
17084W        W33931  13.677   9.367   4.544  0.1782 -0.1066 -0.1547
17085W        W33932   0.480  15.254   3.339  0.0321  0.3082  0.0351
17086W        W33933   7.134   8.611   0.959  0.0032  0.0232  0.1018
17087W        W33934   9.028   8.588   3.000  0.2276 -0.0802 -0.0077
17088W        W33935  14.519   6.726   1.157 -0.3899 -0.1535 -0.0542
17089W        W33936  13.986  13.179   3.826  0.0600  0.0575 -0.1720
17090W        W33937   4.207  11.004  10.911 -0.0774  0.0331  0.4978
17091W        W33938  10.841   1.959  11.315 -0.0439 -0.0868 -0.1781
17092W        W33939   8.907  18.834   1.437 -0.4143 -0.1325 -0.0858
17093W        W33940   7.260  13.111  10.602  0.0658 -0.1796 -0.2998
17094W        W33941  12.224  12.291   2.594 -0.1193 -0.0317  0.0675
17095W        W33942   7.372  18.691  11.870  0.1156 -0.1025  0.0053
17096W        W33943  12.359   7.735  11.616  0.1740 -0.2816 -0.2176
17097W        W33944  10.186   4.380   1.848 -0.0115  0.2166  0.0037
17098W        W33945   0.810  13.853  13.480  0.3767  0.0541 -0.0991
17099W        W33946  14.215  12.965  11.831  0.1456  0.0560 -0.1466
17100W        W33947   8.507  17.203  13.950  0.0292 -0.1576 -0.0617
17101W        W33948   9.309   4.785  11.662 -0.1401  0.0170  0.2526
17102W        W33949   9.745  19.486   0.171  0.0138  0.0794  0.1643
17103W        W33950  15.632  17.270  10.601 -0.1697  0.2477 -0.3899
17104W        W33951  16.702  15.257  11.636 -0.0752 -0.2804 -0.0643
17105W        W33952  10.528  11.808   3.907  0.0347 -0.0828 -0.1409
17106W        W33953  14.181  10.330   5.136  0.2546 -0.2283 -0.1105
17107W        W33954  10.227  17.304   2.031  0.1693 -0.2439  0.1122
17108W        W33955   6.422  15.902  10.389  0.2383 -0.2629  0.1585
17109W        W33956   2.353  16.725  14.285 -0.1776 -0.0364  0.1235
17110W        W33957  14.862  14.076   3.029 -0.1966  0.0976 -0.0338
17111W        W33958  16.185  17.125   2.284 -0.3099 -0.3396  0.1303
17112W        W33959   9.796  19.842  13.843  0.1029 -0.3138  0.3745
17113W        W33960   8.846   9.427   0.476  0.2487 -0.1201  0.0719
17114W        W33961  14.867  12.274   3.547 -0.4530 -0.2575  0.0605
17115W        W33962  16.992  10.727   1.595 -0.6191  0.0683 -0.2397
17116W        W33963   8.746  13.432   5.493  0.0716  0.2468 -0.0081
17117W        W33964  12.386   2.862   0.553  0.1775  0.1175 -0.0410
17118W        W33965  14.787  19.261   3.002 -0.1315 -0.2061 -0.1477
17119W        W33966   0.913  15.887   2.547  0.1411 -0.1169  0.0501
17120W        W33967  12.786   3.545   2.884 -0.1975 -0.1159  0.0862
17121W        W33968   5.398  12.484   4.710  0.0610 -0.0906  0.1176
17122W        W33969   7.774   2.647   4.209  0.1055  0.4915 -0.1369
17123W        W33970   7.493   3.332   1.484 -0.0028  0.2691  0.2418
17124W        W33971  16.978   3.021  13.681  0.3390 -0.0047  0.3044
17125W        W33972  18.772  12.967  12.417  0.0384 -0.3639  0.1955
17126W        W33973  14.271  12.189  10.379  0.0972 -0.0477  0.1231
17127W        W33974  10.460  18.167   0.504 -0.0250  0.1622  0.2615
17128W        W33975   3.509   4.333  11.231 -0.2845  0.1531 -0.0151
17129W        W33976  19.478  14.743   1.363 -0.0272 -0.1765 -0.0016
17130W        W33977  18.404   2.847   2.812  0.0694 -0.0188 -0.0945
17131W        W33978   8.787   1.059   2.915 -0.1551  0.1323  0.2305
17132W        W33979  12.949  11.528   0.914  0.1457  0.0071  0.1032
17133W        W33980  12.981   7.661  11.405  0.0636  0.0083  0.3001
17134W        W33981   0.345  18.483   3.820 -0.0415 -0.0224  0.2364
17135W        W33982   7.983   2.894   2.097 -0.0742  0.1912 -0.0871
17136W        W33983  19.318  15.576   4.242 -0.0373  0.1607  0.1047
17137W        W33984   0.599   7.163  12.466  0.0024 -0.1757 -0.2542
17138W        W33985  15.318   8.469   3.720 -0.2745  0.2252  0.0349
17139W        W33986   2.358   4.849   1.017  0.3016  0.1452  0.0803
17140W        W33987  10.245  18.261  10.283 -0.2502 -0.1119 -0.2330
17141W        W33988   2.731   6.621  11.311 -0.0337  0.2080  0.3590
17142W        W33989  19.536   5.570   4.763  0.1798 -0.0182 -0.2407
17143W        W33990   8.141   2.911  10.753 -0.0701  0.4718 -0.0711
17144W        W33991  16.286   7.436  12.784 -0.1138  0.2817  0.0690
17145W        W33992  14.721   3.238   4.106  0.1236  0.1342  0.1259
17146W        W33993   2.770  17.625  13.290 -0.2586 -0.1339 -0.2755
17147W        W33994   5.505   7.640   4.454  0.1065  0.2959 -0.0459
17148W        W33995   5.118   5.825  12.082  0.2434 -0.2398 -0.1348
17149W        W33996   3.738  14.873   5.170 -0.1055 -0.0716  0.0961
17150W        W33997   6.458   0.151   1.351 -0.3717  0.1497  0.0724
17151W        W33998   0.917  13.393   3.593  0.0580 -0.1754  0.1087
17152W        W33999  18.184   5.735  12.161  0.0138  0.2523  0.0605
17153W        W34000  16.594  14.556  10.607  0.1255 -0.2287  0.1589
17154W        W34001   2.043   9.854   1.765  0.2871  0.0649  0.1259
17155W        W34002   4.259  13.275   3.854  0.1167  0.1246  0.0610
17156W        W34003   7.671   3.388   3.100 -0.0861 -0.2059 -0.0322
17157W        W34004  17.502   6.081  10.074 -0.3578  0.5284 -0.1541
17158W        W34005   4.487  18.547  11.583 -0.3295 -0.4367 -0.2392
17159W        W34006  10.093   3.217   2.788  0.0444  0.5104 -0.3855
17160W        W34007   1.687   2.335   2.038 -0.1431  0.0042  0.0623
17161W        W34008   7.138  16.663   4.424  0.1596  0.0904  0.0549
17162W        W34009  11.397   6.892   0.453 -0.1774 -0.0625  0.0645
17163W        W34010   1.674   5.814  10.848  0.3417 -0.1748  0.3290
17164W        W34011   3.226  14.313   2.619 -0.0611  0.0940 -0.3335
17165W        W34012   4.850   8.078   4.262 -0.3241  0.0418  0.1045
17166W        W34013  16.907  10.448   2.590  0.0489  0.0219  0.1047
17167W        W34014   1.777   6.284   0.527  0.2243  0.0286  0.0685
17168W        W34015   9.869   5.873  14.085 -0.0005  0.4921  0.0909
17169W        W34016  18.815   6.636  14.280 -0.2076 -0.0379 -0.0909
17170W        W34017  12.793  15.460   1.814  0.0937 -0.1014  0.0988
17171W        W34018  12.135   0.939  10.647 -0.0488  0.0572  0.1617
17172W        W34019   7.579  13.573   1.860 -0.1655  0.2307  0.2791
17173W        W34020   1.410  11.661   4.344  0.0331  0.1394  0.2261
17174W        W34021   1.794   7.697   3.344  0.1509 -0.1112  0.0830
17175W        W34022  16.068   6.708   3.595 -0.0325 -0.3446  0.0889
17176W        W34023   2.639   6.515   2.144 -0.0676  0.1837  0.0950
17177W        W34024   0.364  15.982  13.669 -0.0674 -0.2690 -0.1705
17178W        W34025  16.796  13.601   4.103 -0.3036 -0.1120 -0.1067
17179W        W34026  10.868   9.840  11.956 -0.1468  0.0641  0.0994
17180W        W34027   2.652  14.348  11.245 -0.0404  0.0116 -0.0452
17181W        W34028   4.690   9.985   5.554 -0.1227 -0.1632  0.1253
17182W        W34029   5.346   1.901   1.903  0.1090 -0.0438 -0.4691
17183W        W34030  15.307   3.735  10.904  0.2301  0.2808 -0.2211
17184W        W34031  15.059  12.405   1.614 -0.2293 -0.0304  0.1549
17185W        W34032  15.835   3.537  10.497 -0.0686 -0.1424  0.1694
17186W        W34033   0.615  10.177   0.360 -0.0277 -0.1063  0.1140
17187W        W34034   1.447  12.291   0.169 -0.2099 -0.0035 -0.2604
17188W        W34035   9.813  14.956   3.860  0.0218  0.3078 -0.1038
17189W        W34036  16.510   7.687   1.578  0.3612  0.2019  0.1877
17190W        W34037   3.399   4.416   1.924 -0.3826 -0.1989 -0.0589
17191W        W34038  12.752  10.585  10.552 -0.2237 -0.0480 -0.1939
17192W        W34039   1.616  19.282  11.859 -0.1101 -0.0090  0.0559
17193W        W34040  12.511   5.217   3.549 -0.1462 -0.4022 -0.0528
17194W        W34041  14.244   2.498   3.800 -0.0929  0.2046  0.0787
17195W        W34042  11.977   5.543  13.273 -0.2820  0.1534  0.1198
17196W        W34043   9.444  16.972   3.290  0.0422 -0.1258  0.5076
17197W        W34044  19.576   9.914  13.749 -0.0028  0.0320  0.0395
17198W        W34045  15.406  14.905  13.673 -0.0603  0.0780 -0.3902
17199W        W34046   0.919  12.993   3.254  0.1005  0.0910 -0.3011
17200W        W34047  10.852   5.094   2.672  0.0970 -0.1961 -0.0140
17201W        W34048  18.933  19.785   1.105  0.0085 -0.3171 -0.0738
17202W        W34049  15.907   1.258   4.333  0.1874 -0.1171 -0.2169
17203W        W34050  17.200  19.180   5.091  0.1177  0.3989 -0.0753
17204W        W34051  16.325   5.746   3.581  0.1581 -0.0300 -0.4182
17205W        W34052  19.805   3.483   9.649  0.2379  0.2575 -0.1069
17206W        W34053   5.193  18.464   4.886  0.1739  0.1872 -0.0712
17207W        W34054   9.207   9.431  12.521 -0.0270  0.2709 -0.0405
17208W        W34055   4.547   0.478   9.776  0.1552 -0.2004  0.1784
17209W        W34056   9.465   1.266   3.968 -0.1653 -0.0481 -0.5458
17210W        W34057  14.089  16.264   3.677  0.4060 -0.1619 -0.3719
17211W        W34058  18.868  10.993  13.566  0.0464 -0.2286  0.1810
17212W        W34059   7.828   2.623  11.659  0.3169 -0.1000 -0.1535
17213W        W34060  14.348  11.395   4.132 -0.0174 -0.2580 -0.3416
17214W        W34061   8.722  11.701  11.538 -0.2150 -0.1733 -0.2948
17215W        W34062  18.598   7.978  10.756 -0.0597  0.4608  0.0231
17216W        W34063   3.724  11.522   2.563  0.3031  0.1221  0.1282
17217W        W34064  10.532   2.562   2.227 -0.1266  0.2796 -0.1554
17218W        W34065   0.674   9.270   4.151 -0.0126 -0.2661 -0.4616
17219W        W34066   1.686  16.928  10.243 -0.1788 -0.0239  0.2565
17220W        W34067   1.742   0.672   4.889 -0.2977 -0.3124 -0.0312
17221W        W34068  13.963  12.815  12.847  0.1347  0.0336  0.1626
17222W        W34069   9.243  12.107  11.920  0.0918 -0.3400  0.2253
17223W        W34070   8.935  19.696   4.049 -0.1254  0.0778  0.4954
17224W        W34071   5.870   3.783  13.517  0.1093  0.3017 -0.0338
17225W        W34072  13.913  16.637  13.842 -0.1181 -0.4025 -0.3149
17226W        W34073  16.701  12.936  13.840  0.1990 -0.1772 -0.0615
17227W        W34074   2.824   5.644   2.549 -0.2923  0.0627 -0.1802
17228W        W34075  18.188  13.225   0.626 -0.3127  0.0156 -0.1961
17229W        W34076   8.094   0.992   4.683 -0.0018  0.2565 -0.0646
17230W        W34077  14.956  15.239   3.217 -0.2243  0.2147  0.3950
17231W        W34078  16.758   0.556   0.201  0.0484 -0.0793 -0.0402
17232W        W34079  16.924   6.264   3.869  0.3875 -0.1617 -0.0786
17233W        W34080   2.313   0.636   3.466  0.1852  0.0140  0.1012
17234W        W34081   1.555   9.036   1.237  0.3164 -0.1061 -0.0298
17235W        W34082   5.061  18.962  13.102  0.0152  0.0841  0.0928
17236W        W34083   1.212   5.856  11.076  0.2980 -0.2862 -0.0882
17237W        W34084   8.941  11.404  12.383  0.2400  0.4576 -0.1566
17238W        W34085   0.282   8.319  10.982  0.2010  0.0865  0.4444
17239W        W34086   8.280  11.552  11.863 -0.0953  0.1076 -0.2076
17240W        W34087  19.177  10.250   9.864  0.1486  0.0700 -0.0812
17241W        W34088  19.191   5.404  11.004 -0.0019 -0.2724 -0.0411
17242W        W34089  12.772   2.357   3.397  0.1788  0.4011 -0.0357
17243W        W34090  18.471   2.496   2.104 -0.0100 -0.0454 -0.1544
17244W        W34091   9.424   4.098   3.196  0.2994 -0.2202 -0.1661
17245W        W34092  18.966  18.718   5.141 -0.2911  0.0283  0.0071
17246W        W34093   7.176   8.939   2.803 -0.1001  0.1683 -0.0579
17247W        W34094  12.845   8.297   0.598 -0.1125  0.1706  0.3064
17248W        W34095  14.262   5.636   2.295  0.0025 -0.0775 -0.0115
17249W        W34096  10.975  17.215  14.128 -0.1761 -0.0425 -0.2463
17250W        W34097  14.916  18.697  12.312 -0.0484  0.1589 -0.1042
17251W        W34098  19.786   5.156  12.898  0.1266  0.1004 -0.0347
17252W        W34099  12.815   2.110   3.840 -0.2766 -0.2742 -0.2169
17253W        W34100  15.811  14.558   2.039 -0.2682  0.0029 -0.0507
17254W        W34101   5.918  18.113   3.522 -0.1064  0.0770 -0.0776
17255W        W34102  11.334   6.695   4.356 -0.0846 -0.0574 -0.0779
17256W        W34103  16.812  17.879  11.849 -0.2287 -0.1825 -0.1356
17257W        W34104   4.182  15.901  11.060 -0.2881 -0.1469  0.0175
17258W        W34105   2.636  14.541  12.465  0.0055  0.0090 -0.2286
17259W        W34106  12.196  14.895   4.255  0.1721 -0.1152 -0.2914
17260W        W34107   8.255  17.544  12.316 -0.2244 -0.1104 -0.1486
17261W        W34108  15.677  16.894   4.085 -0.0018 -0.0007 -0.1413
17262W        W34109  12.574   3.719   3.303 -0.0331  0.1934  0.3186
17263W        W34110  19.245  17.663  14.108 -0.2185 -0.0522 -0.3824
17264W        W34111   0.543  18.238  12.221 -0.0125 -0.4701  0.1117
17265W        W34112   6.820  14.625  13.149  0.1036  0.0144  0.2677
17266W        W34113  17.322  13.433   0.585  0.0055  0.1443 -0.1381
17267W        W34114   0.485   1.979  11.388  0.0819 -0.1468  0.2277
17268W        W34115   3.976   6.783  14.219 -0.2788 -0.1812  0.1514
17269W        W34116   4.943  16.366   4.703 -0.0303  0.1223  0.0627
17270W        W34117   8.818   3.558   0.118  0.0928 -0.3185  0.6302
17271W        W34118   2.850   7.971   4.989  0.1422 -0.1839 -0.1161
17272W        W34119  14.984   9.765   2.046 -0.0431  0.1512  0.2107
17273W        W34120   6.920   1.840   3.474  0.4538 -0.1946  0.1459
17274W        W34121  15.342   9.156   1.236  0.1381 -0.2637 -0.3253
17275W        W34122   2.071  18.303   1.263 -0.0071 -0.0656  0.0402
17276W        W34123   5.303  10.616   5.264  0.1766 -0.1030 -0.0842
17277W        W34124   9.366   3.372  12.768  0.3077 -0.0260 -0.4460
17278W        W34125  17.376   2.647   0.205  0.0070  0.1781  0.0308
17279W        W34126   3.208  11.251   0.198 -0.0875  0.2023  0.2568
17280W        W34127   4.703  17.759   1.966 -0.0043  0.2569  0.0468
17281W        W34128  13.869  17.875  14.282  0.1745 -0.0580  0.2839
17282W        W34129  14.824  19.172  12.103 -0.2186  0.3299 -0.1118
17283W        W34130   7.527  16.177  11.969  0.3738  0.3014  0.1199
17284W        W34131   2.005   7.430   4.166 -0.1527 -0.2506 -0.0353
17285W        W34132   4.740  17.433  11.772  0.0082 -0.1702  0.1279
17286W        W34133   0.330  10.506  14.332 -0.1806 -0.1460  0.1674
17287W        W34134   3.833   7.921   2.220 -0.1349 -0.1082 -0.0803
17288W        W34135  12.846  10.192  12.262  0.3597 -0.0074  0.5502
17289W        W34136   1.806   2.678   9.948  0.1936 -0.1934  0.2674
17290W        W34137   8.330   0.771   0.805 -0.3923  0.2437  0.2685
17291W        W34138  16.518  12.627   4.440 -0.1345  0.0595 -0.1749
17292W        W34139   2.846  10.347  13.728  0.0839 -0.0676 -0.0982
17293W        W34140   8.181   6.208  13.379  0.0079 -0.0859  0.2791
17294W        W34141  10.069  17.988  12.429  0.0526 -0.0224 -0.1565
17295W        W34142   6.264  11.546  11.532  0.0796 -0.1311  0.1135
17296W        W34143  10.841  18.915  13.213 -0.1156 -0.0218 -0.1853
17297W        W34144  17.113   0.516   4.924 -0.1742  0.0576 -0.0049
17298W        W34145   3.773   1.569   0.046  0.1468 -0.2241 -0.0056
17299W        W34146   1.383  12.004  10.896 -0.0397  0.1793 -0.0426
17300W        W34147   0.561   3.189  12.064 -0.1062 -0.0071 -0.0232
17301W        W34148  13.392   5.298   3.756  0.2832  0.1694 -0.4437
17302W        W34149  17.982  16.207   3.789  0.2161  0.5889  0.1190
17303W        W34150   3.530   6.250  12.139 -0.1684  0.1883 -0.0600
17304W        W34151   3.578  17.408   3.538 -0.3310 -0.1352  0.1134
17305W        W34152   8.915   3.113  13.630 -0.3642 -0.3652  0.1346
17306W        W34153   3.079  11.281   3.964 -0.1332  0.2303 -0.2252
17307W        W34154   7.418  11.699   3.338 -0.1758  0.0653  0.2106
17308W        W34155  12.434   2.964  12.458 -0.3570 -0.0981 -0.1508
17309W        W34156   0.112  14.408  11.875  0.1709  0.0652 -0.2727
17310W        W34157  16.641   6.009   1.428 -0.2058  0.1600 -0.1493
17311W        W34158   8.970  19.339  10.474  0.0594  0.2525 -0.1343
17312W        W34159   1.512   2.966  10.328  0.2018 -0.1801 -0.2912
17313W        W34160  17.989   9.764   0.500 -0.1929 -0.2456  0.1357
17314W        W34161   9.404  19.603  11.288  0.0026 -0.2457 -0.0365
17315W        W34162   2.311   9.350   3.355 -0.0519 -0.1928  0.1041
17316W        W34163  10.119   8.639   1.435 -0.0774  0.0269  0.0531
17317W        W34164   5.602   8.550  13.747  0.0884  0.1030  0.1808
17318W        W34165   6.725   8.580   5.239 -0.2975 -0.2207  0.1747
17319W        W34166   9.070   5.305   1.064 -0.1140  0.2016 -0.3701
17320W        W34167  12.277   3.020  10.362  0.1019 -0.0397  0.2743
17321W        W34168   5.374   7.097   4.177  0.0414 -0.0418  0.1457
17322W        W34169  16.934  13.874   9.319  0.0404  0.1697  0.1505
17323W        W34170   7.231  19.418   1.403 -0.2271  0.1079  0.2905
17324W        W34171  11.364  14.524   2.644  0.0143 -0.0379  0.1636
17325W        W34172  11.832  16.578   4.773  0.1355  0.2371  0.1916
17326W        W34173  14.879   8.266   1.920 -0.2189  0.0513 -0.1320
17327W        W34174   8.515   1.989   0.743  0.2186  0.0520 -0.2257
17328W        W34175   3.917  14.350  13.659  0.0870  0.0128 -0.0464
17329W        W34176   7.540  18.228  11.925 -0.0181  0.2228 -0.0361
17330W        W34177  13.093   8.938   0.516  0.1958 -0.2882  0.2454
17331W        W34178   8.021   9.940  12.467 -0.3607 -0.0264 -0.1116
17332W        W34179  19.245   0.181   1.734 -0.0472  0.4794  0.1660
17333W        W34180   0.457   3.072   3.041  0.4774 -0.0282 -0.0045
17334W        W34181  12.472  12.037  12.679  0.1297  0.2961  0.2248
17335W        W34182  14.690   2.273   1.942  0.1807  0.0548 -0.1887
17336W        W34183  15.582   3.476  12.000  0.1011 -0.0891 -0.1263
17337W        W34184  14.910  13.513  13.461 -0.0186 -0.3817 -0.0922
17338W        W34185   7.800  14.783  13.166 -0.0003 -0.1296 -0.0816
17339W        W34186  19.324   5.148  13.486  0.1349  0.3270 -0.0583
17340W        W34187  10.095   2.306   1.927  0.1723 -0.1774 -0.0897
17341W        W34188   5.035   0.253   2.355 -0.2713 -0.0634 -0.2220
17342W        W34189   9.205   3.549  13.810 -0.0746  0.1977  0.2505
17343W        W34190  11.615   0.872   2.297 -0.1861 -0.0868  0.2817
17344W        W34191  18.439   4.391   4.667 -0.4822 -0.2984  0.2061
17345W        W34192   6.314   4.348   1.058 -0.2487 -0.2652  0.0095
17346W        W34193  16.567  19.406  13.907 -0.0589  0.2159  0.0438
17347W        W34194   8.882  16.887  10.515  0.0162  0.1566 -0.0831
17348W        W34195   8.102   3.382   2.124 -0.1895  0.2187 -0.0451
17349W        W34196  18.946   1.762  13.391 -0.0323  0.1546 -0.2947
17350W        W34197   7.954   1.593   3.729 -0.0972 -0.1318 -0.1024
17351W        W34198   1.957  12.002   2.686  0.1164 -0.0274 -0.0175
17352W        W34199  13.562  17.206   2.741  0.1942  0.4162  0.1211
17353W        W34200   9.286   8.848  11.422  0.0698  0.2714 -0.0018
17354W        W34201   7.515   8.338  10.348 -0.1416  0.2195  0.0966
17355W        W34202   1.891  15.207   3.551 -0.4592  0.2228 -0.2301
17356W        W34203  10.058  10.857  12.818 -0.0625  0.2131 -0.0757
17357W        W34204  17.170  13.754   0.984 -0.1242  0.1196  0.0119
17358W        W34205  17.371  18.738  11.894 -0.0605  0.1950  0.1305
17359W        W34206   2.323  12.415   9.873  0.0844 -0.3567 -0.1428
17360W        W34207  19.676   8.742  11.476 -0.0806 -0.0307  0.0017
17361W        W34208   6.291  10.457   3.108  0.1334 -0.0321 -0.3098
17362W        W34209  16.310   7.627   8.763 -0.2489  0.1955  0.2025
17363W        W34210   3.352  12.232   3.981  0.4383  0.2616  0.0902
17364W        W34211  19.115   9.342   3.304  0.0986 -0.1988  0.3144
17365W        W34212  15.854  18.480   2.906  0.4165 -0.0123 -0.0376
17366W        W34213   7.436  17.142   1.993 -0.0457 -0.1728 -0.1923
17367W        W34214  19.810   9.845   1.083  0.0232 -0.2731  0.0819
17368W        W34215   4.534   8.704   0.872  0.0070  0.0403 -0.2400
17369W        W34216   0.184   9.161  13.454  0.1413 -0.3257  0.0851
17370W        W34217   2.493   9.656  12.502 -0.3445  0.2130  0.2359
17371W        W34218  19.081  15.149   2.811 -0.1430  0.0239 -0.0492
17372W        W34219   4.378  17.311  12.338  0.1704  0.1540  0.3466
17373W        W34220   7.084   4.935   8.738 -0.1298  0.0979  0.1012
17374W        W34221   0.790  17.155  14.039  0.1950  0.2115 -0.0396
17375W        W34222   2.894  10.427   0.040  0.2294  0.0918  0.0194
17376W        W34223   8.513   2.187  10.533 -0.1163 -0.2818 -0.1095
17377W        W34224   1.822  18.786  12.085 -0.2656  0.1842 -0.2044
17378W        W34225   3.061   8.126  11.765 -0.0489  0.2797  0.1478
17379W        W34226  16.676  17.467   2.398 -0.0664 -0.1822  0.0298
17380W        W34227  10.486   6.148  11.004 -0.2716  0.0495 -0.0471
17381W        W34228  19.420  10.589  12.396  0.3589  0.2714 -0.3212
17382W        W34229   4.228  19.223   5.385  0.2485 -0.1185 -0.2959
17383W        W34230  17.127  16.389   9.908  0.2223  0.3025  0.0901
17384W        W34231   6.468   5.681   1.669  0.0062  0.1380  0.2283
17385W        W34232   6.623   6.800  13.082 -0.2415 -0.0384  0.2210
17386W        W34233  19.659   0.299  11.147  0.1994 -0.0714  0.0470
17387W        W34234  12.393   9.810   2.825 -0.1483 -0.3396  0.2644
17388W        W34235   8.394   0.106  12.970  0.0744 -0.0281  0.0055
17389W        W34236   5.144   3.670  13.412 -0.0059  0.1609  0.1806
17390W        W34237   7.148   7.734   2.601  0.0940 -0.2568  0.1871
17391W        W34238   3.058   0.515   0.041 -0.0470  0.1340  0.0173
17392W        W34239   3.760   7.404   0.421  0.1790  0.0066  0.1907
17393W        W34240  17.520   1.436   0.898  0.1760  0.1678 -0.5400
17394W        W34241  18.886   5.394  10.166 -0.2084 -0.0702 -0.2014
17395W        W34242  17.021  16.132  12.497 -0.1242 -0.0578 -0.0165
17396W        W34243   7.121   3.772  13.278  0.0992  0.2962  0.2265
17397W        W34244   9.012  16.899  12.450 -0.1161 -0.0815  0.1720
17398W        W34245   4.331   2.714   3.030 -0.1177  0.4568 -0.0415
17399W        W34246  15.961   6.691   5.416 -0.2159  0.1546  0.1993
17400W        W34247   2.414  10.277   3.384 -0.4286  0.0375 -0.0434
17401W        W34248   0.347  12.652   2.335  0.0373  0.1967 -0.0126
17402W        W34249   9.234  19.316   3.876  0.3074 -0.0797  0.4199
17403W        W34250   2.870   2.385  12.093 -0.3762  0.0983  0.2404
17404W        W34251   6.085   2.899  12.202  0.0596 -0.1505  0.0521
17405W        W34252   3.988  11.016   5.348  0.0436  0.1680 -0.0809
17406W        W34253   8.847   2.634  11.823  0.0355 -0.0647  0.0641
17407W        W34254   3.530  14.561   3.664 -0.1776  0.2909  0.1595
17408W        W34255  13.569  15.897  12.813  0.1634  0.1008 -0.1512
17409W        W34256   3.678   0.256  11.641 -0.0304 -0.0689 -0.0098
17410W        W34257  17.824   8.397   3.975  0.2384 -0.0180 -0.1496
17411W        W34258  12.396   7.585  12.874  0.0499  0.1359  0.1427
17412W        W34259  13.867  11.717   3.212  0.0194 -0.3129 -0.2961
17413W        W34260   3.223   0.382   3.960 -0.1641 -0.1296  0.3203
17414W        W34261  12.650  16.929  14.100  0.4051 -0.1033  0.0165
17415W        W34262   1.176  15.017  13.015  0.0941  0.1532 -0.1185
17416W        W34263  14.622   2.121   3.560 -0.4082 -0.0729  0.0253
17417W        W34264   8.604  11.501   0.023 -0.2180  0.0385  0.1527
17418W        W34265   1.624   1.202   2.197 -0.0397  0.0756 -0.3005
17419W        W34266   6.016  17.266   1.941 -0.2300 -0.2101  0.1669
17420W        W34267  16.050   2.948   3.682 -0.2571  0.1420 -0.3384
17421W        W34268   4.704  10.977   2.602 -0.0196  0.3409  0.0229
17422W        W34269   6.858   1.960  14.287  0.4520 -0.0257 -0.2304
17423W        W34270  14.023  17.923   4.749 -0.1796 -0.1677 -0.0713
17424W        W34271  10.707  13.462  13.975  0.2847  0.0467  0.2641
17425W        W34272   6.558  11.650   1.703  0.2751  0.2505  0.0274
17426W        W34273  10.945  16.641   9.346 -0.3481  0.1142  0.3818
17427W        W34274   7.423  17.397   0.220  0.1068  0.0886 -0.2012
17428W        W34275   0.240  12.897   1.196  0.0002 -0.4429 -0.3171
17429W        W34276   7.435   5.241  14.020 -0.2138  0.0086 -0.0474
17430W        W34277  15.908  18.459   1.592 -0.0664 -0.1682  0.0846
17431W        W34278  11.719  13.516   1.956 -0.0024  0.0227 -0.1615
17432W        W34279   0.754  18.289   2.847 -0.0662 -0.1188 -0.4297
17433W        W34280   4.807  12.365  11.840 -0.0363  0.0731  0.0312
17434W        W34281   8.016  15.987   0.149 -0.1036  0.2254 -0.3148
17435W        W34282   2.270   9.680  14.266  0.1504 -0.1613 -0.0230
17436W        W34283  16.779   6.928   2.421  0.1079  0.1619 -0.1690
17437W        W34284   4.163  12.187   2.490 -0.1689  0.3401 -0.0460
17438W        W34285   9.430  12.266   2.201  0.0311 -0.2490  0.2046
17439W        W34286   0.995   1.977  13.452 -0.2791 -0.2038 -0.2475
17440W        W34287   5.591  18.716   2.816  0.1142  0.1411  0.0158
17441W        W34288   5.089   2.246   0.519 -0.1273  0.3064 -0.3677
17442W        W34289   6.857  17.177   2.570 -0.2188  0.1900 -0.1598
17443W        W34290   7.053  14.117   4.893  0.1299 -0.2210  0.2705
17444W        W34291  11.820  13.381   2.938  0.0668 -0.1906 -0.0361
17445W        W34292  10.953  17.406  10.441 -0.0658 -0.1493 -0.0993
17446W        W34293   2.348   5.060  11.291 -0.2365 -0.1625 -0.1422
17447W        W34294  10.728   1.331  10.314  0.1035 -0.3145  0.0029
17448W        W34295  12.667   2.596   3.848  0.2262  0.2822 -0.4420
17449W        W34296  18.397  17.185   3.539 -0.3019 -0.2160 -0.1825
17450W        W34297  19.139   4.025   1.457  0.0367 -0.2618  0.0828
17451W        W34298  16.361  19.006   4.152  0.0848  0.1435  0.0730
17452W        W34299  16.321  14.541   1.948  0.2201  0.0657  0.2028
17453W        W34300   1.549   6.246   8.706 -0.1633  0.1416  0.0216
17454W        W34301  19.740   7.575  10.261 -0.1931 -0.0765 -0.0993
17455W        W34302  16.294  11.115   1.042 -0.0237  0.1827  0.4698
17456W        W34303  12.655   5.575   3.049 -0.0572  0.2461  0.0260
17457W        W34304  19.838  17.682   4.237 -0.2910 -0.1868 -0.0200
17458W        W34305   3.513  10.258   5.634 -0.0486 -0.0133  0.1513
17459W        W34306   6.415   8.478   1.391  0.3144  0.0547  0.1962
17460W        W34307   9.222  14.882  10.705 -0.0089  0.0896 -0.0429
17461W        W34308   5.956   2.316   2.387 -0.0040  0.3145  0.4992
17462W        W34309  13.772  15.033   1.268 -0.5890  0.2289  0.2052
17463W        W34310  14.433  14.109  11.705  0.1738 -0.1852 -0.4676
17464W        W34311   7.959  13.169   1.925 -0.0953  0.3376  0.2711
17465W        W34312   7.690  19.122  11.268 -0.1206 -0.1163  0.1508
17466W        W34313   0.966  11.028  13.725  0.0350 -0.0489  0.2486
17467W        W34314   0.783   5.449  13.393 -0.1883  0.0884 -0.2059
17468W        W34315  14.605   4.698   3.506 -0.3129 -0.1867 -0.1790
17469W        W34316   8.876  15.904   0.320  0.0156  0.3536  0.1558
17470W        W34317  13.383   9.694   3.099  0.3427  0.1768  0.0394
17471W        W34318   8.630   9.137  12.972  0.1132 -0.1994  0.1167
17472W        W34319   7.733  15.568   1.624 -0.0462  0.0353  0.2889
17473W        W34320   6.831   0.707   3.779 -0.0454  0.0698  0.0378
17474W        W34321   1.856   1.604   0.816 -0.0992  0.0201  0.2802
17475W        W34322  16.006  13.468   9.497  0.4292 -0.2511 -0.2056
17476W        W34323  19.827   2.114  12.379  0.0095  0.1889 -0.1482
17477W        W34324  14.151   2.566  14.199 -0.0972  0.0260  0.0593
17478W        W34325  19.774   2.692  11.913  0.0127 -0.0781 -0.0860
17479W        W34326   9.765   9.677   1.624 -0.0202  0.0911 -0.0250
17480W        W34327  15.690   9.891   3.759 -0.2128  0.0847  0.0139
17481W        W34328  19.604   1.867  12.814  0.1398  0.1090  0.2448
17482W        W34329  18.583  17.616   1.716  0.1139 -0.2986  0.0448
17483W        W34330   3.398  19.391   2.828  0.4366 -0.4000 -0.1777
17484W        W34331   9.922  10.484  13.402  0.0268 -0.1236 -0.2781
17485W        W34332  18.529  11.803  13.504  0.0190 -0.3664 -0.0234
17486W        W34333   9.238  17.770   0.367  0.0934 -0.3017 -0.0165
17487W        W34334  19.360  13.314   1.236  0.0803 -0.0622 -0.1257
17488W        W34335   8.963  13.369   0.189  0.1973 -0.2042  0.3508
17489W        W34336  10.736  16.556  12.026 -0.0421 -0.1361 -0.0575
17490W        W34337   4.842   4.194   1.921  0.1630  0.2224 -0.1258
17491W        W34338   8.367   4.920   2.078  0.0004  0.2400  0.1052
17492W        W34339  16.503  18.036   1.329  0.1173 -0.1488 -0.0824
17493W        W34340   6.296  10.575   4.060  0.0277 -0.1298 -0.2808
17494W        W34341  16.232   3.140   2.304  0.2567 -0.0474  0.0563
17495W        W34342   0.446  19.263   1.519 -0.0410 -0.1943 -0.1668
17496W        W34343  14.014   5.973   2.677  0.0035 -0.1055  0.1979
17497W        W34344   4.060  13.771   2.551  0.1320  0.0810 -0.0122
17498W        W34345   0.346   5.353  13.641 -0.1717 -0.1989  0.3035
17499W        W34346   8.177   7.683   3.562  0.1455 -0.0564  0.4035
17500W        W34347   2.950   4.809   3.744 -0.1558 -0.0397 -0.3135
17501W        W34348  19.079  18.415  12.644  0.1005 -0.1976  0.0833
17502W        W34349   9.608   6.828  10.988  0.3372 -0.0100 -0.1314
17503W        W34350  11.104  12.907   0.694  0.1310 -0.1301 -0.1460
17504W        W34351   0.328   1.511  13.665 -0.1202  0.0575  0.1565
17505W        W34352  19.112   1.489   4.876 -0.1440 -0.1163 -0.4449
17506W        W34353  14.056   7.997  11.293  0.2480  0.0101 -0.1396
17507W        W34354  11.824   5.249  11.966 -0.0894 -0.2977 -0.2364
17508W        W34355   4.399   4.393   3.064  0.1659 -0.1475  0.0224
17509W        W34356   3.602  18.542   5.286 -0.0763  0.5274 -0.0164
17510W        W34357  18.138  10.683   3.859 -0.0820 -0.0462 -0.0292
17511W        W34358  15.733  15.242   3.915  0.1564  0.0078 -0.1195
17512W        W34359  15.202   8.844  13.154  0.1375 -0.1999 -0.0099
17513W        W34360  14.769   1.920   1.146  0.4198  0.2792  0.0317
17514W        W34361   1.026  18.307  12.605  0.1215  0.0977  0.1428
17515W        W34362   7.210   8.892  12.622  0.1530  0.0324  0.4796
17516W        W34363   5.420  18.928   0.871  0.1610 -0.3988  0.3355
17517W        W34364   2.254   4.050   0.497 -0.1788  0.3626 -0.1330
17518W        W34365  13.147   0.411  11.863  0.2886 -0.0126  0.1583
17519W        W34366  14.721   6.167  13.593  0.1540  0.4117  0.2861
17520W        W34367   0.368   8.280   9.370 -0.0638 -0.0102  0.2050
17521W        W34368  11.681  13.576   3.944  0.0167  0.0635  0.2357
17522W        W34369   0.258   2.990   8.821  0.4991  0.0771  0.0815
17523W        W34370  15.644   0.935  12.549  0.0884 -0.3661 -0.0202
17524W        W34371  13.394  15.396  13.747 -0.0236 -0.2025  0.6000
17525W        W34372  12.266  16.413   0.548 -0.2911 -0.2951  0.0228
17526W        W34373   4.647  11.955  13.654 -0.1746 -0.1368  0.3603
17527W        W34374   8.312  14.781   0.139 -0.4977  0.1159 -0.0886
17528W        W34375  18.049  14.705   3.990 -0.2525  0.0247 -0.1178
17529W        W34376  15.473  11.535  12.066  0.0522 -0.0498  0.2309
17530W        W34377   8.433   6.826  10.662 -0.0044  0.2908  0.2175
17531W        W34378   0.712   1.602  13.420 -0.1228  0.4216  0.0816
17532W        W34379  19.828  18.438   2.401  0.1301  0.1425 -0.1688
17533W        W34380  15.509   0.516   4.019  0.1693 -0.2132  0.0178
17534W        W34381  11.420  12.154  11.691  0.5242 -0.0628 -0.1804
17535W        W34382   3.958  14.621   0.957  0.1144  0.1160 -0.0719
17536W        W34383  16.701  11.636  10.473 -0.0780  0.0456  0.0397
17537W        W34384   9.363  12.901   2.431  0.2964 -0.0362 -0.3259
17538W        W34385   0.132  14.675   5.332  0.0266 -0.0185  0.0888
17539W        W34386   2.695  13.568  11.710 -0.1989  0.1581  0.1177
17540W        W34387  13.901  17.030  14.216  0.1726 -0.0379 -0.0571
17541W        W34388  12.467   1.394  11.400 -0.0525  0.2580 -0.4839
17542W        W34389   7.122  19.145  13.364  0.1099 -0.4688 -0.0691
17543W        W34390  17.962   8.595   2.222  0.2033  0.0711  0.0027
17544W        W34391   6.349   3.531   0.265  0.0117 -0.0990 -0.0916
17545W        W34392  15.276  15.551   3.942 -0.3344  0.1886 -0.0244
17546W        W34393  10.776  14.412   9.714  0.0323 -0.0512 -0.0577
17547W        W34394  17.778   0.920  10.164 -0.0531  0.2015 -0.1557
17548W        W34395   2.184  19.421  10.507 -0.0057  0.0995 -0.2315
17549W        W34396   9.805   3.820   3.058  0.0901  0.1128  0.0278
17550W        W34397   4.958  15.739  14.074  0.1771  0.0841 -0.0739
17551W        W34398  13.768   2.832  10.144  0.1968  0.1214 -0.1065
17552W        W34399  17.044  17.896   2.298  0.0725 -0.0743 -0.1006
17553W        W34400   6.695   9.088  12.444  0.1952  0.0226 -0.1039
17554W        W34401   3.858  12.725  11.790  0.0525 -0.0895 -0.1001
17555W        W34402   1.766   5.736   1.913  0.1936 -0.1224 -0.0724
17556W        W34403  16.727   4.382  11.143 -0.2054 -0.1985 -0.0525
17557W        W34404  18.885  10.681  13.083  0.2348 -0.3386  0.0358
17558W        W34405  13.331  19.633  11.993 -0.1446 -0.2686 -0.0614
17559W        W34406  14.442  12.251   3.991 -0.1127 -0.2059  0.0801
17560W        W34407  12.208  17.386  12.848  0.2436  0.0476 -0.0838
17561W        W34408   3.870   4.945   1.215 -0.3582 -0.1283 -0.1917
17562W        W34409   6.517  17.075   9.252  0.0499  0.1834  0.0704
17563W        W34410  19.360   7.569  10.715 -0.0004 -0.3279 -0.3668
17564W        W34411   2.851   6.309   9.868  0.3476  0.0103  0.1869
17565W        W34412  18.358  17.700   2.344 -0.3290 -0.1417  0.0934
17566W        W34413   7.365   4.221   4.830 -0.3134  0.2058 -0.2260
17567W        W34414   1.950   8.169  11.629 -0.0266  0.1442  0.1228
17568W        W34415   7.366   8.695   3.179  0.0454  0.0222 -0.1382
17569W        W34416  10.024   2.776   3.934 -0.0624 -0.1452  0.0873
17570W        W34417   0.405  10.492   5.320  0.3818 -0.1238  0.2050
17571W        W34418   5.889  19.607   2.326  0.3507 -0.0592 -0.0930
17572W        W34419   3.127   2.904   3.493 -0.2041  0.0749  0.0485
17573W        W34420   8.359   2.595   2.158  0.1549  0.2787  0.0850
17574W        W34421  18.879   6.968   2.154 -0.0705  0.2172 -0.0112
17575W        W34422  17.510   0.159   1.238 -0.0936  0.1086  0.0654
17576W        W34423   5.010  14.728  12.303 -0.2194 -0.2849  0.0590
17577W        W34424   0.475  16.141   2.858  0.0534  0.1680  0.1637
17578W        W34425  12.652   1.583   5.054  0.0939  0.1456  0.0351
17579W        W34426   5.088  18.083  11.171 -0.0896 -0.2870  0.3145
17580W        W34427  14.334  16.880   5.493  0.0969  0.2965  0.1458
17581W        W34428  19.405  11.450  13.556 -0.2460  0.0852  0.0364
17582W        W34429   5.185  17.038  12.989 -0.0828  0.1233 -0.0091
17583W        W34430  15.768   4.661   2.825  0.0815  0.3720  0.1274
17584W        W34431  11.487  13.093   5.229  0.0087 -0.2331 -0.0388
17585W        W34432   5.845  12.422   3.625 -0.0304 -0.3532  0.0080
17586W        W34433   3.555  17.931  12.675  0.2686  0.0667 -0.0531
17587W        W34434  16.184  12.009   2.054 -0.2175 -0.2253 -0.2916
17588W        W34435   3.542   6.185  13.210  0.3149 -0.0063 -0.1550
17589W        W34436   3.133  10.740  13.628  0.0902 -0.2040  0.0590
17590W        W34437  16.683  12.442  13.881  0.0479  0.0164  0.0464
17591W        W34438   9.221   9.830   1.667 -0.1658  0.0173 -0.5442
17592W        W34439   3.961  11.399  14.033 -0.2483  0.1969 -0.1048
17593W        W34440  10.087   6.336   4.947 -0.1414  0.1355  0.0666
17594W        W34441  18.952  16.293  13.051  0.1813  0.1467  0.2498
17595W        W34442  18.773   9.424  11.432 -0.0594  0.1057  0.1132
17596W        W34443   4.158   3.174   0.672 -0.2512 -0.1170  0.2843
17597W        W34444  19.302  18.119  12.936  0.0074  0.0251 -0.0885
17598W        W34445   5.866   6.549   1.522  0.0185 -0.1943 -0.2953
17599W        W34446  13.410   2.579   9.958 -0.4104 -0.2108  0.1705
17600W        W34447  12.262   3.032  11.218  0.0442 -0.1162 -0.2406
17601W        W34448   1.934   3.526   2.992 -0.0475  0.3702 -0.0337
17602W        W34449  12.694  10.221  14.031  0.1167  0.2616 -0.1881
17603W        W34450   0.211   4.808   2.221  0.0663  0.0806 -0.0129
17604W        W34451  18.815  14.429   0.455  0.2961  0.0055 -0.1154
17605W        W34452  14.384   0.034  12.813  0.2423 -0.1026 -0.0144
17606W        W34453   4.963  11.099   4.023  0.0662  0.1360 -0.0344
17607W        W34454   3.138  18.209  14.031 -0.0022 -0.0112 -0.3435
17608W        W34455   0.479  15.292  12.406  0.0351  0.1911  0.0318
17609W        W34456   1.795   7.779  13.882  0.0975  0.1280  0.1939
17610W        W34457  11.670  13.925  10.498 -0.1469  0.1196  0.0829
17611W        W34458   2.788  16.027  14.110 -0.3286  0.5666  0.1457
17612W        W34459  12.150  11.727  13.406 -0.2278 -0.0869 -0.1917
17613W        W34460   6.144  15.784   4.425  0.1993  0.1518 -0.4497
17614W        W34461   2.113  11.658  11.052  0.0236  0.3361 -0.0649
17615W        W34462   7.573  11.712   5.500 -0.0694 -0.1918 -0.0850
17616W        W34463   9.279  13.788   2.036  0.0422  0.0360  0.1799
17617W        W34464   3.992  15.828   4.541 -0.1356 -0.2130 -0.4428
17618W        W34465   7.403  19.256   5.347 -0.3309 -0.1102 -0.2436
17619W        W34466   9.867   7.957  11.511 -0.3356  0.1109 -0.1438
17620W        W34467   4.324   1.412  13.108  0.0360 -0.2896 -0.0624
17621W        W34468   9.759  13.678   2.758  0.2374  0.2942  0.2352
17622W        W34469   6.426  15.897  13.673 -0.2622  0.1003  0.5328
17623W        W34470   1.963  10.487  14.259  0.0954 -0.1629 -0.1119
17624W        W34471   8.271  11.743   0.347 -0.1716 -0.2224 -0.0224
17625W        W34472   3.281  14.370   1.218 -0.0249  0.0482  0.0864
17626W        W34473   2.594   3.405   4.512  0.4335  0.0532 -0.1324
17627W        W34474  16.023  16.639  13.943  0.0035 -0.1031 -0.4027
17628W        W34475   9.543  16.335  13.813 -0.2010  0.0884 -0.0453
17629W        W34476   7.306  11.851   3.866  0.3159 -0.2805 -0.3240
17630W        W34477   4.308  10.474   2.009  0.1903 -0.2082 -0.0429
17631W        W34478   0.243  12.157   4.393  0.1385  0.0072  0.0166
17632W        W34479   7.426  16.598   3.843 -0.1757  0.2223 -0.3510
17633W        W34480  10.815  17.385   9.929  0.2296 -0.3522 -0.1783
17634W        W34481   0.275   5.778   3.869 -0.1616 -0.0284  0.0485
17635W        W34482  10.252  16.035  13.466  0.1049 -0.3325 -0.0190
17636W        W34483   8.200  18.500  14.040 -0.1409 -0.1197 -0.2226
17637W        W34484   6.850   5.828  14.163 -0.1406  0.2154 -0.2037
17638W        W34485  13.142  15.487  10.056  0.1399 -0.4012 -0.2777
17639W        W34486  12.930  13.198  12.082  0.1605  0.0763  0.1850
17640W        W34487  12.738  10.755  12.251  0.4680  0.1278  0.1615
17641W        W34488   5.444   4.748  11.151  0.2193 -0.2356 -0.1005
17642W        W34489   6.313  13.473  11.863  0.0824  0.3079 -0.1785
17643W        W34490  18.632   9.273   4.493 -0.0146  0.3128 -0.1193
17644W        W34491  18.697   7.997   0.413  0.1725 -0.2786 -0.3429
17645W        W34492   2.299   1.481   0.466  0.0893  0.0722  0.2526
17646W        W34493  14.604   0.099  10.589 -0.2202  0.1162  0.1554
17647W        W34494   2.167   5.666  13.645 -0.1859 -0.0277 -0.0228
17648W        W34495  17.472  11.718   0.709  0.3592  0.1060 -0.2369
17649W        W34496   4.597   2.740   4.424  0.2220 -0.1542  0.4701
17650W        W34497  10.003  18.796  12.870  0.1153  0.2418 -0.2850
17651W        W34498   9.120  12.497   4.107  0.0123  0.1242  0.3036
17652W        W34499  17.536   4.382   0.990 -0.1792 -0.2267 -0.0550
17653W        W34500   6.651   4.369   9.360  0.0858 -0.5016  0.1669
17654W        W34501   2.457  17.674  14.232 -0.0030  0.5159 -0.2087
17655W        W34502   1.760   2.143   0.716  0.1065  0.0646  0.3357
17656W        W34503  11.642  10.889  13.343  0.3337  0.2877 -0.0462
17657W        W34504  10.768   6.583  11.317 -0.1005  0.0038 -0.0153
17658W        W34505   8.669   5.295  10.037 -0.3482  0.1481  0.1173
17659W        W34506   7.536   8.219   4.517 -0.0574  0.2339  0.1811
17660W        W34507  12.845   1.888   2.025  0.2651  0.1547  0.2614
17661W        W34508   1.258  11.068  14.103 -0.2216 -0.0780  0.2563
17662W        W34509  17.079  18.070  10.276  0.4504 -0.2880 -0.4253
17663W        W34510  15.300   2.540   1.530  0.0031  0.1861 -0.0417
17664W        W34511   3.915   4.725   3.066 -0.0029 -0.2372  0.1537
17665W        W34512  19.814  11.181  13.701  0.3829 -0.1249  0.4729
17666W        W34513   0.233  14.377   4.523  0.0923 -0.1592  0.2317
17667W        W34514  16.507  19.496   1.886 -0.1723 -0.3189  0.0242
17668W        W34515  19.310   7.985  12.267  0.2006 -0.2273  0.4509
17669W        W34516  13.506  16.996   1.360  0.2375 -0.1820  0.0386
17670W        W34517   0.947   7.144   3.741 -0.4380 -0.0130  0.0838
17671W        W34518  10.318   6.041  11.727  0.1634  0.0968  0.0260
17672W        W34519  15.850  17.652  13.150 -0.0327 -0.1749 -0.2835
17673W        W34520  17.870   0.233  12.488 -0.2210  0.0684 -0.0392
17674W        W34521   7.576  15.976  12.453  0.0186 -0.1871 -0.0609
17675W        W34522  14.032  12.064   9.865  0.2069 -0.1791 -0.2849
17676W        W34523  12.634   2.909   2.037 -0.3079 -0.1636  0.2719
17677W        W34524  12.696  16.253  12.680  0.1703  0.0022 -0.0971
17678W        W34525   3.325  13.831   1.157  0.0046  0.0262  0.0121
17679W        W34526   1.787  14.639   1.267  0.1653  0.0823 -0.0090
17680W        W34527   3.361  15.139  13.135  0.2686  0.1854  0.4423
17681W        W34528   4.993   7.602   4.251 -0.3778 -0.0913  0.0092
17682W        W34529  12.267   6.053  13.210 -0.0103 -0.0893  0.1274
17683W        W34530  14.645  15.986   1.145  0.1566 -0.0191  0.1738
17684W        W34531  16.310   5.395   0.479 -0.2272 -0.1192  0.1370
17685W        W34532  18.181  12.063   2.090  0.2262  0.0278 -0.0456
17686W        W34533  15.295   0.816  12.223  0.0993 -0.0770 -0.0913
17687W        W34534  18.818   3.476   3.223 -0.1524 -0.2650  0.0424
17688W        W34535   4.779   7.802  11.070 -0.3968 -0.2762 -0.1567
17689W        W34536  13.794   5.014   1.779  0.3519  0.2196  0.2069
17690W        W34537  18.515  18.019   3.191  0.1175  0.2608 -0.1289
17691W        W34538   0.415  15.227   0.963 -0.0641  0.3520  0.1685
17692W        W34539   1.777   1.872  14.071 -0.0859 -0.2533  0.0984
17693W        W34540  14.975  11.612   1.169 -0.0416 -0.1142  0.0800
17694W        W34541   9.481  14.929  10.251 -0.0116 -0.0005 -0.2527
17695W        W34542   7.815  15.515  12.141 -0.0482 -0.3137  0.2435
17696W        W34543  10.537   6.959  10.629  0.2615  0.0758 -0.1122
17697W        W34544   1.787   9.594   3.482 -0.2675 -0.1330  0.2242
17698W        W34545   7.631  15.871  13.068  0.0654 -0.2539 -0.3956
17699W        W34546  18.685   6.151   5.381 -0.2579 -0.3956  0.0069
17700W        W34547  17.422  18.580   1.083 -0.1429 -0.3877 -0.2418
17701W        W34548  19.029   4.518  10.217 -0.2597 -0.2059  0.0879
17702W        W34549   2.854   0.260  12.018 -0.1727 -0.2144 -0.0181
17703W        W34550   0.865  19.056   2.110 -0.0877 -0.0995  0.0354
17704W        W34551  12.196   0.503   3.770  0.0119 -0.0082  0.5177
17705W        W34552   6.390  12.806  12.716  0.0411  0.0028  0.1319
17706W        W34553  19.660   2.880   0.877 -0.2098 -0.2710 -0.4705
17707W        W34554  12.682  17.337   3.872 -0.3983  0.0375  0.0567
17708W        W34555   3.250   9.923   2.994 -0.3466  0.0548 -0.0130
17709W        W34556  13.614  13.044  12.648  0.0466  0.1208 -0.0223
17710W        W34557  16.533  19.743   4.224 -0.1522 -0.1058 -0.2562
17711W        W34558   3.951  14.797  11.058  0.3339 -0.1057  0.0407
17712W        W34559   9.179  12.960   0.732  0.1538  0.1298  0.0396
17713W        W34560   0.815  17.893  10.521 -0.4038  0.1428  0.1351
17714W        W34561   5.396   8.036  13.711  0.0923  0.1626  0.5609
17715W        W34562  10.382   3.855  10.841  0.4666 -0.0974 -0.0666
17716W        W34563   9.669   5.638   2.138 -0.2125 -0.0305 -0.2818
17717W        W34564  15.167  19.488  11.837 -0.0115 -0.0405 -0.0224
17718W        W34565   6.782   7.742   4.087  0.1514  0.1926 -0.2147
17719W        W34566   3.566   4.377   3.132 -0.0613  0.1837 -0.1517
17720W        W34567  11.961  18.273  12.772 -0.0780  0.0443  0.1055
17721W        W34568   8.009  13.820   1.989  0.1583  0.2252  0.1853
17722W        W34569  13.388   7.944   4.684 -0.2731 -0.1522 -0.0751
17723W        W34570  11.435  11.246  11.594 -0.3320  0.1639 -0.0317
17724W        W34571  18.429   8.635   3.178 -0.0292  0.2682 -0.0135
17725W        W34572   9.915  10.416   0.513 -0.1240 -0.0155  0.0391
17726W        W34573  14.908   3.628  13.051  0.4031 -0.1550 -0.1598
17727W        W34574  11.798  15.813  10.297  0.1370 -0.3429  0.3084
17728W        W34575   6.394   8.937   0.680  0.2001 -0.3645 -0.0724
17729W        W34576   2.061   7.194  10.316  0.2519  0.1170 -0.0750
17730W        W34577   0.324   4.803   1.657 -0.2178  0.1340 -0.0357
17731W        W34578   0.858   0.212   2.137  0.0135  0.1768  0.2895
17732W        W34579   4.789  16.039  12.699 -0.1952  0.0072 -0.0800
17733W        W34580   0.964  13.990  12.933 -0.1167  0.2239 -0.3016
17734W        W34581  13.802  15.933  10.290  0.1902  0.0655 -0.0543
17735W        W34582  11.038  17.585   2.554 -0.1442  0.2532 -0.1405
17736W        W34583   8.465   1.026  13.982  0.1233  0.3315  0.0773
17737W        W34584   5.465   5.680   1.466 -0.0145 -0.0914  0.0635
17738W        W34585   0.128   8.369   4.735  0.3585  0.0904  0.2264
17739W        W34586  13.386   8.230  13.575 -0.0068 -0.0577 -0.0009
17740W        W34587  14.915   1.067  13.253 -0.0320  0.0025  0.1962
17741W        W34588  14.621   8.893   2.702 -0.0389 -0.0823 -0.1424
17742W        W34589  19.459  13.822   2.220 -0.3248 -0.1977  0.0571
17743W        W34590   8.017  10.479  11.207 -0.3133  0.2739 -0.3125
17744W        W34591   9.149  17.878  12.981 -0.0731  0.0001  0.0022
17745W        W34592  18.810   3.601  14.339 -0.1490  0.1370 -0.1330
17746W        W34593   5.288  12.229   3.714  0.2304  0.5264  0.0594
17747W        W34594   7.581   0.557   1.241  0.1337  0.6127  0.1181
17748W        W34595  18.957   0.180   0.306  0.3449 -0.0954 -0.0717
17749W        W34596  15.158   5.418   0.951 -0.1259 -0.1623 -0.4375
17750W        W34597  17.487   0.357   1.731  0.4166 -0.1139  0.0687
17751W        W34598   8.458   1.635  12.685 -0.1716  0.0700  0.1690
17752W        W34599   5.844  12.827  11.391  0.0886 -0.0431  0.1778
17753W        W34600   7.623   4.498   1.364  0.2350 -0.0310  0.0792
17754W        W34601   3.605   9.091  11.147 -0.3747  0.0684  0.0404
17755W        W34602  11.351  17.653  10.433 -0.2741 -0.0558 -0.0604
17756W        W34603  10.799   6.500  10.665  0.3563 -0.0664 -0.0610
17757W        W34604  18.237   4.423   2.126  0.2928  0.2283  0.2765
17758W        W34605  16.542  14.942   1.257  0.1392  0.2809  0.2050
17759W        W34606  17.176  16.338  11.764  0.2176  0.3755  0.0397
17760W        W34607  12.311  18.718  10.919 -0.0186  0.2876  0.1059
17761W        W34608  16.105   4.568  14.095  0.0134  0.0713  0.1550
17762W        W34609  12.106   4.845   2.678  0.4221 -0.1565 -0.2358
17763W        W34610  14.852   4.346  12.408  0.1197  0.0375 -0.2380
17764W        W34611   6.375   0.287   0.004 -0.0870 -0.1097  0.0243
17765W        W34612   7.169   1.018   0.485  0.1057 -0.1867  0.1572
17766W        W34613   8.393   0.721   8.882  0.1943  0.3023 -0.0908
17767W        W34614   4.715  15.222   0.988  0.1088 -0.0681 -0.1789
17768W        W34615   8.330  15.286   9.797 -0.2989 -0.2269  0.0363
17769W        W34616  13.957  17.254   0.935  0.2274 -0.1350  0.0893
17770W        W34617   7.468   2.830  11.178 -0.2396 -0.2047  0.2778
17771W        W34618   8.949   7.563  12.892  0.2215 -0.1278  0.0119
17772W        W34619   3.926   0.863  11.724 -0.1120  0.2384  0.2314
17773W        W34620  16.529  12.508  10.298  0.0740 -0.1467 -0.2815
17774W        W34621  18.778   2.941   4.809  0.1746  0.1596 -0.1270
17775W        W34622  15.591   4.221   3.001 -0.0186 -0.1787  0.0701
17776W        W34623   1.266   7.830   2.037 -0.1512  0.1755  0.1071
17777W        W34624   9.324   1.534   3.302  0.0447  0.1294  0.2416
17778W        W34625  15.255   5.960   1.898  0.2059  0.2991  0.0334
17779W        W34626   4.944   3.019   0.218  0.0613  0.0688  0.0981
17780W        W34627   4.677   5.419   0.854 -0.0503 -0.0227 -0.0563
17781W        W34628  12.625  13.262   2.056  0.0033  0.1950  0.2625
17782W        W34629  13.734   8.248   0.747  0.2474  0.2406 -0.0172
17783W        W34630   9.505   9.292   2.552 -0.1619  0.1187 -0.4863
17784W        W34631   4.648  12.578   4.330 -0.1402  0.0573  0.1130
17785W        W34632   3.601   5.261   8.607  0.1613 -0.3953  0.1654
17786W        W34633  17.593   7.897   4.218  0.2371  0.2814 -0.0994
17787W        W34634  18.364  14.474   4.316  0.0491 -0.0673 -0.4884
17788W        W34635   0.732  16.570   1.817  0.0828 -0.2641 -0.0095
17789W        W34636  18.810   1.249  13.139 -0.1539  0.1096 -0.2399
17790W        W34637   3.659   4.473   9.804  0.4179  0.1277  0.1267
17791W        W34638   5.418  13.185  12.788 -0.1648  0.1613 -0.1058
17792W        W34639   1.361   2.586   2.216  0.3392 -0.0158  0.0389
17793W        W34640   1.838   6.597  11.451  0.1901 -0.0690 -0.1098
17794W        W34641  15.424   3.852   0.469  0.0742  0.2015  0.4016
17795W        W34642   7.863  15.206   1.958 -0.4017  0.2155 -0.0191
17796W        W34643  13.991  17.678  10.428 -0.1081  0.1321 -0.1454
17797W        W34644   5.428  14.984   3.450  0.0453  0.1206  0.2594
17798W        W34645  15.077   2.535   0.288  0.1363 -0.1567  0.1002
17799W        W34646  12.983   6.002   2.760  0.0125 -0.0102 -0.0419
17800W        W34647   0.615  18.396  10.838 -0.0750 -0.0785 -0.1284
17801W        W34648  15.411  12.849   0.820  0.0650 -0.0996  0.0840
17802W        W34649   6.918   7.124  13.908 -0.2436 -0.3815 -0.0418
17803W        W34650  10.292   1.010   1.281 -0.0649 -0.1014  0.2974
17804W        W34651   1.268  10.288   4.186  0.1001 -0.0230 -0.1379
17805W        W34652   6.824   5.052  13.279  0.1992  0.0210  0.3012
17806W        W34653  11.405   5.487   9.268  0.0083 -0.0374  0.0988
17807W        W34654  14.714   6.863   0.470 -0.0398  0.1372 -0.1160
17808W        W34655  14.872   1.949  11.057 -0.0142  0.0519  0.0087
17809W        W34656   4.351  15.252  13.678  0.0016  0.2250 -0.2412
17810W        W34657   2.136  14.221   3.613 -0.0122  0.1175 -0.0628
17811W        W34658   5.349   0.487   5.039 -0.2078 -0.0338 -0.0568
17812W        W34659   5.475  19.129  11.448 -0.3828  0.1575 -0.1583
17813W        W34660  19.227  17.122   4.058 -0.2389  0.0187  0.0334
17814W        W34661  16.670   3.064  10.105 -0.1946 -0.1001 -0.2757
17815W        W34662   4.035   8.419  11.228  0.0078 -0.1624 -0.0453
17816W        W34663   2.822  16.400   3.882  0.1501  0.1528 -0.1231
17817W        W34664  16.309   9.026   0.263  0.1384  0.0726  0.0194
17818W        W34665   4.868  11.641   3.342  0.0779  0.1070 -0.0492
17819W        W34666   5.997   2.394  11.046  0.0762 -0.2976 -0.1052
17820W        W34667  12.352   3.572   1.952 -0.3189  0.0627  0.0347
17821W        W34668   8.101   7.110  13.142  0.3377 -0.1830 -0.1613
17822W        W34669  12.249  19.503   4.224 -0.3347  0.0318 -0.2161
17823W        W34670   3.314  13.607  12.798  0.1902  0.1834 -0.0233
17824W        W34671   1.554   7.934  11.375  0.1127 -0.3824 -0.0153
17825W        W34672   8.774  19.653  12.608  0.1821 -0.0408 -0.0125
17826W        W34673  16.100  14.594  12.728  0.0710  0.0513 -0.3916
17827W        W34674  15.287   8.877  11.124 -0.3787  0.1891  0.1665
17828W        W34675  16.056  17.090  12.214 -0.0105 -0.0495 -0.1182
17829W        W34676  14.431  12.063  10.836 -0.1378  0.0565  0.1109
17830W        W34677   6.788  14.852   1.036  0.1122  0.1210  0.2231
17831W        W34678  14.345  11.819  13.601 -0.1442  0.0024 -0.2316
17832W        W34679  15.763   7.538  13.542 -0.3511 -0.2804  0.0950
17833W        W34680  15.158  12.219   0.808 -0.1794 -0.0062 -0.1518
17834W        W34681   9.605   1.469  12.264  0.1656 -0.0206 -0.1084
17835W        W34682  19.444   3.898   0.419  0.1457 -0.2640 -0.1306
17836W        W34683   0.356  10.829  13.082 -0.4239  0.0097 -0.1761
17837W        W34684  14.071  10.494   4.134 -0.0632 -0.3456  0.1332
17838W        W34685   4.830   9.674   4.574  0.1164  0.0328  0.0905
17839W        W34686  17.101   2.917  11.865  0.1345  0.0118  0.0087
17840W        W34687   5.034   1.822   4.104 -0.2001 -0.1923  0.3535
17841W        W34688  19.311   4.430   1.671  0.1030 -0.0324 -0.1006
17842W        W34689  10.834  11.944   3.535 -0.0747 -0.0007  0.2383
17843W        W34690  11.947   7.449  10.315  0.1545 -0.3981  0.0147
17844W        W34691  18.351  16.595  10.566 -0.0390 -0.3387 -0.2330
17845W        W34692  15.575   9.357  13.886  0.1922  0.1345  0.2058
17846W        W34693   5.019   0.340   0.599 -0.0015 -0.1880 -0.1732
17847W        W34694  16.520   8.336   3.461 -0.0058 -0.2147  0.5740
17848W        W34695  17.949  11.507   2.904 -0.0290  0.0025 -0.0527
17849W        W34696  16.979  10.790   4.023  0.1884 -0.0580 -0.2992
17850W        W34697  17.393  18.841  12.815  0.2234  0.0397 -0.0651
17851W        W34698  13.241   3.064  13.513 -0.1303  0.0576  0.0403
17852W        W34699  18.026   6.317  12.104  0.1674  0.0890  0.2219
17853W        W34700   0.090  11.154   2.857 -0.3953  0.2567  0.1801
17854W        W34701  13.057  12.582  13.167 -0.2167 -0.0748 -0.1568
17855W        W34702   5.117   2.248  14.060  0.2277  0.1188  0.2226
17856W        W34703   2.647   6.104  14.093  0.0750  0.2129 -0.1180
17857W        W34704   2.347   9.618  11.526  0.1650  0.0306  0.1733
17858W        W34705  17.043  15.773  13.426  0.3006  0.2453  0.3659
17859W        W34706   7.906   1.132   2.455 -0.4192  0.4262 -0.0945
17860W        W34707   8.123   0.846  13.607  0.1411 -0.0303  0.0981
17861W        W34708  13.431   7.189  10.962 -0.0988 -0.1271 -0.0146
17862W        W34709  16.978  17.334  10.937 -0.0143  0.0646  0.0828
17863W        W34710   2.791  10.179   3.033  0.3190 -0.2016 -0.0282
17864W        W34711  14.776   5.095  10.648  0.0166  0.1501 -0.2547
17865W        W34712  12.112  11.865   1.174 -0.3002  0.2270 -0.2236
17866W        W34713  19.588  12.543   1.409 -0.2697  0.4931 -0.1918
17867W        W34714  19.859  16.802  13.566 -0.0655 -0.0111  0.1178
17868W        W34715   4.783   8.167  13.035  0.3215 -0.0655 -0.3990
17869W        W34716  18.759   7.420   3.742  0.5037  0.2819  0.2874
17870W        W34717  19.355   4.260   2.827  0.0137  0.3773 -0.1734
17871W        W34718  10.122   9.390   1.969  0.3298  0.2078 -0.1354
17872W        W34719   1.332   4.025   0.849  0.0233 -0.1077  0.0262
17873W        W34720  12.143  18.887   1.582 -0.2520  0.3267 -0.1508
17874W        W34721  11.727  10.221   4.050 -0.0194  0.0581 -0.3279
17875W        W34722   0.566   3.799   2.533  0.3740 -0.1121 -0.3695
17876W        W34723   2.704   3.026   1.024  0.0830  0.3028  0.0163
17877W        W34724   3.934   3.871   0.015 -0.1077 -0.0510  0.2083
17878W        W34725   4.474  17.214   3.332  0.0070  0.0776  0.2468
17879W        W34726   6.420  11.172   2.598 -0.3889  0.1989  0.1387
17880W        W34727   9.251  10.977  13.982 -0.3906  0.0912  0.1798
17881W        W34728   4.465  13.332   0.903 -0.1581  0.1339 -0.2591
17882W        W34729   0.862   8.622  13.365 -0.0668  0.1288  0.1725
17883W        W34730   0.744  13.738   5.030  0.1154 -0.2766 -0.0288
17884W        W34731  15.672   8.063   3.288 -0.1329  0.0341 -0.3096
17885W        W34732   7.402   8.153   2.389 -0.1269 -0.0248 -0.3295
17886W        W34733   4.441   9.578   1.430 -0.2001 -0.0431 -0.4812
17887W        W34734  14.914  19.554  10.885  0.3256 -0.5039  0.2673
17888W        W34735   6.300  16.442  10.924 -0.0365 -0.0882 -0.2043
17889W        W34736   3.361  19.103  10.400  0.0355 -0.2470 -0.1694
17890W        W34737   5.322   8.976  13.853 -0.1616 -0.0415  0.0680
17891W        W34738  12.515   7.661   2.776  0.0563  0.0674 -0.0133
17892W        W34739  11.045  12.006  14.182  0.2285  0.0016 -0.0624
17893W        W34740  17.424   6.439   0.615  0.0051 -0.1300 -0.0887
17894W        W34741   7.614  12.395   0.052 -0.1889  0.0492 -0.1216
17895W        W34742  16.249  10.632   1.144  0.1014 -0.1791  0.3674
17896W        W34743   8.196   3.992  10.622  0.1033  0.4072  0.3254
17897W        W34744  15.238  17.051   0.711  0.3030  0.3287  0.2321
17898W        W34745  14.265   1.935  10.259 -0.0833  0.0782 -0.2505
17899W        W34746   3.520   0.939   2.462 -0.2609 -0.1537  0.1986
17900W        W34747   7.280   5.603   0.044  0.0062 -0.2146 -0.0755
17901W        W34748  15.013  10.274  11.816 -0.1280 -0.1938  0.0112
17902W        W34749  13.851  13.089   2.708  0.1421 -0.1898  0.0741
17903W        W34750   2.584  12.955  13.695  0.6207  0.1865  0.0069
17904W        W34751  19.321   7.424  13.836 -0.1041 -0.0628  0.3249
17905W        W34752   6.917  16.840  13.443  0.0086  0.0321  0.2332
17906W        W34753  19.068  18.787  11.309  0.1607  0.1024 -0.0920
17907W        W34754  17.040   9.959  11.910 -0.0323  0.1303  0.0028
17908W        W34755   5.940  14.779  12.082 -0.0369 -0.1497 -0.0250
17909W        W34756   3.102  18.762  11.700  0.2019  0.0535  0.0045
17910W        W34757  15.309   5.596   4.307  0.2053  0.0247  0.1232
17911W        W34758  11.453  13.937   2.146  0.2428  0.1686 -0.1425
17912W        W34759  11.727   5.065   3.906  0.3448  0.0544 -0.0438
17913W        W34760   9.229   2.099   3.792 -0.1617  0.0933 -0.3432
17914W        W34761   9.221  15.700   4.336 -0.2067  0.3515  0.2770
17915W        W34762   9.236   7.340   3.560 -0.0004  0.1986  0.2694
17916W        W34763   7.870   8.978  13.468  0.2030 -0.0254 -0.4115
17917W        W34764  17.913   1.787   0.171 -0.3852 -0.1604 -0.0343
17918W        W34765   4.044  11.697   0.718  0.3053  0.2542 -0.1348
17919W        W34766  12.962   5.898   9.787 -0.1245  0.1942  0.2599
17920W        W34767   3.375  18.970   5.045 -0.0146 -0.1235 -0.2803
17921W        W34768  11.089  14.847   0.489  0.0905 -0.2274 -0.1224
17922W        W34769   1.007   0.576   3.202  0.0553 -0.0817 -0.1448
17923W        W34770   4.906   3.757   0.016 -0.2186  0.2750  0.1281
17924W        W34771   8.652   1.180  10.506  0.1610  0.3243  0.4179
17925W        W34772  10.177   9.024   3.819 -0.1537  0.1964  0.2752
17926W        W34773  15.607  15.725   4.272 -0.1170  0.1240  0.0863
17927W        W34774   8.357  15.821  11.635 -0.1899 -0.0673 -0.3028
17928W        W34775   6.585  15.848  10.934  0.2332  0.0639  0.1914
17929W        W34776   9.027   9.278   0.965 -0.2488  0.1356 -0.0885
17930W        W34777   2.523  13.633   2.253 -0.0784 -0.1434 -0.0223
17931W        W34778  19.190   9.625   2.882 -0.1358 -0.0253  0.0877
17932W        W34779  15.016   2.393   3.736 -0.3969  0.3738 -0.1663
17933W        W34780  18.925  16.621   0.727  0.0660  0.1159  0.4241
17934W        W34781   7.243  12.760   2.141 -0.0779  0.1653 -0.0443
17935W        W34782  14.202  17.880  13.794  0.0659 -0.1135  0.1346
17936W        W34783   2.941   3.486   0.882  0.2300  0.1292  0.0669
17937W        W34784   5.176   1.098  13.677 -0.4119 -0.1688  0.2389
17938W        W34785  18.338  18.937   4.595 -0.1725 -0.1462 -0.0513
17939W        W34786   8.897   4.166  13.242  0.1321  0.1508 -0.3973
17940W        W34787   3.745   2.756   9.078  0.0926 -0.1084 -0.4345
17941W        W34788  12.173   9.685  10.067  0.0261  0.2479  0.1070
17942W        W34789  19.024   8.482  11.602 -0.0060 -0.0136 -0.0013
17943W        W34790   4.272   4.266   9.822  0.0701 -0.2396 -0.1981
17944W        W34791  11.838  15.310   3.898  0.0029  0.1637 -0.2456
17945W        W34792  16.631   6.501   9.281  0.0862 -0.3742  0.0557
17946W        W34793   8.910  13.540  10.269  0.1164 -0.1892 -0.3885
17947W        W34794   6.287   2.597   1.980  0.2389 -0.0914 -0.1370
17948W        W34795  14.144  18.988   4.547 -0.0403 -0.3738 -0.2649
17949W        W34796  13.070  15.442   3.745  0.1337 -0.0785  0.2080
17950W        W34797   1.091  16.162   3.868 -0.0412 -0.2588  0.1369
17951W        W34798  18.230   5.456  11.425  0.3568 -0.0079  0.2226
17952W        W34799  19.682   6.071  12.251 -0.0017  0.0435  0.0039
17953W        W34800  11.311  18.996  10.898 -0.1905 -0.3390 -0.0924
17954W        W34801   6.250  13.063   4.322 -0.1003  0.0299 -0.0216
17955W        W34802  12.938   7.693  11.943 -0.0202  0.2463 -0.2883
17956W        W34803  18.961   4.995   5.215 -0.0049  0.3028  0.0584
17957W        W34804  18.454   1.941  13.255  0.0293 -0.5772  0.0543
17958W        W34805   0.958   6.734  10.971  0.4103  0.1832 -0.0329
17959W        W34806   9.435   2.415  12.698  0.1436  0.0670  0.0838
17960W        W34807   7.786   5.999   2.296 -0.0462  0.2627 -0.3749
17961W        W34808   7.248  13.590  10.685 -0.0149  0.1037  0.0925
17962W        W34809  14.098   5.153   3.182 -0.1759 -0.0307  0.2113
17963W        W34810   6.714   6.361   0.452  0.1510 -0.2469  0.1383
17964W        W34811   4.863  12.251  13.354 -0.0258 -0.0853 -0.1158
17965W        W34812  13.539  17.163   4.502 -0.2443 -0.1975  0.1894
17966W        W34813  18.457  10.307   2.518 -0.1997 -0.2660 -0.1386
17967W        W34814   4.386  14.134   3.802  0.1102  0.3125 -0.0039
17968W        W34815   6.054   9.863  12.694  0.0221  0.1753 -0.0518
17969W        W34816   5.659   7.475   0.492 -0.2286  0.1222  0.1563
17970W        W34817   3.498  11.715   0.770  0.1880  0.0551 -0.0256
17971W        W34818  13.435   3.715   2.946 -0.1086  0.2885  0.0295
17972W        W34819  15.449  15.837  11.296 -0.0906  0.1305  0.0387
17973W        W34820   7.317   0.599   1.730 -0.0898 -0.0687  0.0195
17974W        W34821   9.671  10.121  12.089  0.0732 -0.1382 -0.1123
17975W        W34822   1.865  17.833  10.442  0.0554  0.0473  0.3435
17976W        W34823   7.640   6.722   4.438 -0.0570 -0.0003  0.3047
17977W        W34824  15.870  15.630   3.148  0.1486  0.0946  0.0381
17978W        W34825   4.344  18.383   2.512 -0.1911 -0.1425  0.0381
17979W        W34826   0.905   2.408   9.610  0.4031  0.3120 -0.1260
17980W        W34827  13.739  10.273  10.500 -0.0567 -0.0517  0.1481
17981W        W34828  16.888  10.257  12.995 -0.0862 -0.1039 -0.1998
17982W        W34829  12.373  17.765   2.500  0.2509 -0.0816  0.0854
17983W        W34830   1.085  13.808   2.236  0.0753 -0.0529  0.0488
17984W        W34831   0.180  18.645  13.147 -0.2634  0.1525 -0.3102
17985W        W34832  12.171  13.494  14.062 -0.0134  0.0566  0.0980
17986W        W34833  14.334  11.204   1.057 -0.1019 -0.2746 -0.2762
17987W        W34834  16.593  13.783   9.912 -0.0057 -0.0884 -0.1213
17988W        W34835   9.471  19.574   5.169  0.2376  0.1476  0.1812
17989W        W34836  18.511   4.006  12.737 -0.2205 -0.0802 -0.2031
17990W        W34837   5.002   0.759  12.124 -0.3077 -0.0611  0.1303
17991W        W34838   3.979   9.701  14.018 -0.3918  0.0141  0.0133
17992W        W34839  11.185  17.426   9.132  0.2092 -0.1590  0.2154
17993W        W34840  19.157   2.438   5.411  0.1082  0.2442  0.4332
17994W        W34841  16.888  18.063   0.447 -0.3574  0.2063 -0.4669
17995W        W34842  11.347   1.230   3.354  0.0981 -0.1186  0.2815
17996W        W34843   5.847   1.814   1.981  0.3576  0.4035 -0.0920
17997W        W34844  19.849   8.930   2.918 -0.0708 -0.3233 -0.2305
17998W        W34845  13.388   9.437   3.578  0.0498  0.1810 -0.2121
17999W        W34846   4.346   9.242   0.997  0.2487 -0.2626 -0.1457
18000W        W34847   4.848   1.326   2.031  0.0494 -0.0536  0.0940
18001W        W34848   0.931  13.927  10.981  0.1521 -0.0154  0.1164
18002W        W34849   3.717   9.053  12.750  0.2938  0.1821  0.0440
18003W        W34850  13.917  10.336  13.732  0.0408  0.0288 -0.0042
18004W        W34851  11.954  13.031   4.789 -0.0535  0.0393 -0.1627
18005W        W34852   4.374  18.161   3.335 -0.2489  0.2483 -0.2207
18006W        W34853  19.291  18.045  10.545 -0.3309  0.0731 -0.2116
18007W        W34854   5.585   6.455  12.818 -0.2309  0.0763  0.0940
18008W        W34855  13.219  10.295  14.002 -0.1761  0.0584  0.3311
18009W        W34856  15.283  17.486   2.067 -0.0995 -0.2546  0.0853
18010W        W34857  16.987  14.798  12.826  0.2353 -0.2256  0.1074
18011W        W34858  17.445   9.091   2.826 -0.4228  0.0318 -0.3940
18012W        W34859   3.486  13.428   4.592  0.0874 -0.1437  0.1063
18013W        W34860  19.334  19.789  11.962 -0.3566  0.0320  0.0624
18014W        W34861   0.627  10.340  12.135  0.1226 -0.0301  0.1495
18015W        W34862  16.667   8.896  13.128  0.0472  0.0656  0.1054
18016W        W34863  15.509  12.092   5.185  0.0149  0.3601 -0.0739
18017W        W34864  11.369  18.437   1.769  0.0041 -0.0844  0.0711
18018W        W34865   1.981   9.733   4.245  0.1774  0.1875  0.3887
18019W        W34866  16.856  13.147   2.579  0.3156 -0.2628 -0.2073
18020W        W34867  14.075   1.031  11.662  0.1702  0.1512 -0.1285
18021W        W34868   6.068   5.770  11.809 -0.0598  0.0146 -0.0159
18022W        W34869   6.171  10.016  10.202  0.0300  0.4536  0.0643
18023W        W34870   5.297   1.396  11.464 -0.3491 -0.2292  0.0198
18024W        W34871   4.356   1.979  13.056 -0.5217  0.0162  0.2277
18025W        W34872   9.303   2.885   2.317  0.0259  0.0963  0.3083
18026W        W34873   8.409   0.317   2.006  0.0027 -0.3228  0.1587
18027W        W34874  15.058  19.279   3.590  0.1805 -0.1649 -0.0599
18028W        W34875  19.650   1.383   3.144  0.0669  0.1064  0.0549
18029W        W34876  11.025  11.505  12.042 -0.0183  0.2070 -0.0189
18030W        W34877  10.266   7.670  10.556  0.2048 -0.1240  0.2390
18031W        W34878   5.430   5.367   0.521  0.1826 -0.1095 -0.2705
18032W        W34879   8.471  12.949   4.412 -0.1779  0.0825  0.0891
18033W        W34880   0.727  14.348  14.125  0.2004  0.3593  0.2173
18034W        W34881  10.189  12.970  12.141  0.3405  0.1280 -0.3315
18035W        W34882   1.089   4.926   2.100 -0.1981 -0.1881  0.0911
18036W        W34883   8.817  17.222   2.273 -0.1327  0.2601  0.1233
18037W        W34884  10.107   1.311   2.654  0.1866 -0.0570  0.0897
18038W        W34885   8.468   2.019  11.530 -0.0006 -0.2620  0.4467
18039W        W34886  18.875   6.213  12.615  0.1970 -0.0786 -0.4502
18040W        W34887  16.836   1.094   3.146 -0.0436 -0.0220  0.2532
18041W        W34888  12.957   8.240  13.956 -0.0990  0.0290  0.0090
18042W        W34889   8.330  14.436  13.988 -0.3287 -0.1151  0.0014
18043W        W34890  19.670   7.526   0.248  0.0951 -0.2803  0.0599
18044W        W34891   1.730  18.578   1.769  0.1173 -0.1232 -0.0052
18045W        W34892   5.560  16.243   2.092  0.1536  0.0988 -0.1612
18046W        W34893   0.415   0.934   2.516 -0.0272 -0.2807 -0.0379
18047W        W34894  12.253  12.789   1.200 -0.0883 -0.0591  0.1046
18048W        W34895   0.706   8.199  12.536 -0.3138  0.0579  0.2688
18049W        W34896   7.762  18.617   0.439  0.1137 -0.1200 -0.0187
18050W        W34897  10.069   4.057  12.655 -0.2243  0.2045 -0.1790
18051W        W34898  19.840  14.718   9.991  0.1162 -0.4723 -0.2508
18052W        W34899   6.391   5.579   2.998 -0.1568 -0.1286 -0.1159
18053W        W34900   4.994   0.645  10.936  0.2426 -0.3595  0.3109
18054W        W34901   0.830   9.128  11.839 -0.0646 -0.0489  0.0465
18055W        W34902  18.402  12.185   3.496 -0.2381 -0.2167  0.1524
18056W        W34903  14.067  17.968   2.201 -0.2081 -0.3455  0.1579
18057W        W34904   7.634  17.840   0.240  0.1932  0.1177  0.0473
18058W        W34905  17.248   2.733   4.397  0.2043  0.1159  0.1391
18059W        W34906   3.671   3.601  10.639 -0.0996  0.1922  0.1986
18060W        W34907  13.100  16.908  11.440 -0.2385 -0.1862 -0.0386
18061W        W34908   1.890   7.720  10.507 -0.0271  0.1630 -0.1077
18062W        W34909  13.083  19.227   1.098 -0.2624  0.1756 -0.0524
18063W        W34910   3.455   7.830   2.549 -0.0514 -0.1098 -0.0841
18064W        W34911   0.921  16.238  13.277 -0.1954  0.3586 -0.1320
18065W        W34912  18.872   7.329  13.919  0.0446  0.0359  0.1055
18066W        W34913  18.709   6.925  12.981 -0.0995 -0.0970 -0.2318
18067W        W34914   0.145   2.525  12.869 -0.1875  0.0757 -0.3522
18068W        W34915   8.476   9.355   1.000 -0.2522 -0.0385 -0.0921
18069W        W34916  16.781   8.812   2.847 -0.0963 -0.0827  0.0599
18070W        W34917   2.943   2.347  11.306  0.1719  0.1312  0.1961
18071W        W34918  19.110  10.794   2.487 -0.4944 -0.1398 -0.0050
18072W        W34919  11.898  10.658   9.015 -0.2220  0.2197  0.2234
18073W        W34920   5.830  12.378  11.622 -0.0502 -0.1217  0.1583
18074W        W34921   3.048   8.082   2.768  0.2773  0.0490 -0.0873
18075W        W34922   5.819  12.241  11.042 -0.0588 -0.1342  0.2028
18076W        W34923   5.196   1.715   0.640 -0.1794  0.2464 -0.4465
18077W        W34924   6.365   8.028   3.583 -0.0189 -0.0318  0.2783
18078W        W34925  18.627  11.598   0.885 -0.1760  0.2458 -0.0241
18079W        W34926  15.598   3.205  13.228 -0.0521  0.1665 -0.1451
18080W        W34927   4.117  13.397  12.368 -0.0299 -0.2631 -0.0419
18081W        W34928  19.734  15.208  10.827  0.2022 -0.0935  0.0158
18082W        W34929   5.102   6.889   1.574 -0.2665 -0.1747  0.0062
18083W        W34930  13.470   8.298   5.180  0.1105 -0.1480  0.1672
18084W        W34931  12.347   5.708  11.345 -0.0854  0.0761 -0.1732
18085W        W34932   2.459  13.224  12.254  0.0852  0.1989  0.0298
18086W        W34933   7.862  12.334   5.323  0.0511  0.1341 -0.2459
18087W        W34934  13.687   3.046   4.351  0.0657  0.2289 -0.4186
18088W        W34935   2.626   3.177  12.819  0.0279  0.0158  0.2149
18089W        W34936   7.601  15.981   0.636  0.2090 -0.0613 -0.0082
18090W        W34937   3.624   2.496   4.393  0.2969 -0.2881 -0.1642
18091W        W34938   4.564  16.648   3.426  0.0580 -0.0057 -0.0807
18092W        W34939  18.105  13.810  12.926  0.1695 -0.0397  0.0035
18093W        W34940  13.638   6.861   0.354  0.0653  0.3044  0.0223
18094W        W34941   3.060   2.280   0.431  0.3651  0.2160 -0.2334
18095W        W34942   5.763   5.340   4.837 -0.0856  0.2333 -0.0666
18096W        W34943  12.734   0.961  12.805 -0.2295 -0.3254  0.1630
18097W        W34944   0.127  14.629   0.207 -0.2977  0.0608  0.1480
18098W        W34945   2.595   4.074   2.211 -0.2945 -0.0070  0.1288
18099W        W34946   6.753  12.809  10.666  0.1962 -0.0113  0.1249
18100W        W34947   5.978  10.896  12.070 -0.2134 -0.3636  0.1946
18101W        W34948   6.994   4.798  12.206 -0.3231 -0.0734  0.0801
18102W        W34949   7.947   9.422   3.955  0.1316  0.1113  0.1709
18103W        W34950  12.701   4.139  13.197 -0.4767 -0.0429  0.1980
18104W        W34951  15.579  15.804   2.167 -0.1922  0.3680 -0.0015
18105W        W34952  17.554   5.454   5.121 -0.0882  0.3193  0.0468
18106W        W34953   6.554   4.396   2.235  0.1083  0.3100 -0.1458
18107W        W34954   2.234   6.260   1.475 -0.1782  0.0324  0.0617
18108W        W34955   7.674   0.262  11.887 -0.1886  0.1768  0.0439
18109W        W34956  13.576  13.088  13.664 -0.1545  0.0686  0.3578
18110W        W34957   0.164   8.034   5.610  0.1210  0.2410 -0.0180
18111W        W34958  12.871   4.740   5.324  0.3789 -0.1073 -0.1942
18112W        W34959  16.894   2.958   9.670  0.1100 -0.2057  0.2323
18113W        W34960   3.421   8.547   3.338 -0.1447  0.5388 -0.1642
18114W        W34961   1.504   6.921   0.616  0.2862  0.0838 -0.0531
18115W        W34962  10.282   9.949  13.906  0.1900 -0.2761  0.1192
18116W        W34963  16.918  15.231  13.499 -0.1125  0.0355  0.1141
18117W        W34964   0.984  19.024  12.760 -0.0571  0.0943 -0.0268
18118W        W34965   3.515   3.156  13.644 -0.1306 -0.4968  0.2142
18119W        W34966  18.232  18.943   2.615  0.2509 -0.0267  0.5314
18120W        W34967   2.802   5.173   0.765 -0.3602  0.0957  0.0335
18121W        W34968  17.003  11.165  10.724 -0.0312 -0.1526 -0.2160
18122W        W34969  17.000  18.337   0.840  0.0050 -0.0642 -0.0476
18123W        W34970   6.083  15.337   1.279 -0.2041  0.3420  0.3639
18124W        W34971   1.894   9.865  11.408  0.0045  0.1473  0.2476
18125W        W34972  17.967  15.767  10.462  0.1156 -0.2025  0.1494
18126W        W34973   3.459   5.998   4.253 -0.2200 -0.1718  0.3632
18127W        W34974   1.124   7.287  12.371  0.0726  0.1828  0.2602
18128W        W34975  12.298  17.608  10.234  0.1938 -0.1610 -0.0899
18129W        W34976  15.077  17.016   1.337  0.0951  0.2705 -0.5213
18130W        W34977   4.196   6.677  12.025 -0.0305 -0.1916  0.3222
18131W        W34978  18.937  15.962  10.475  0.0331 -0.0004  0.2608
18132W        W34979  13.232   2.698  13.138 -0.0934  0.0750 -0.0888
18133W        W34980  12.588   0.926  11.309 -0.2427 -0.1555  0.2949
18134W        W34981   0.697   9.207   0.915  0.1763  0.1296 -0.0112
18135W        W34982   9.866   5.512   3.028  0.1701 -0.0843  0.1072
18136W        W34983  14.486   0.298  12.189 -0.0550 -0.3169 -0.2943
18137W        W34984  16.379   5.048  11.725 -0.0532  0.2827 -0.0815
18138W        W34985   6.926  18.947   1.707  0.2540 -0.1174 -0.1875
18139W        W34986  17.703  16.036   3.234  0.2534 -0.1371  0.2238
18140W        W34987  16.228   4.546  13.058  0.1406  0.2366 -0.0096
18141W        W34988   9.670   9.670  10.289 -0.2041  0.0527 -0.1724
18142W        W34989  13.230   2.348   3.669 -0.1469  0.0797  0.1853
18143W        W34990   8.227   1.771   4.181 -0.1287  0.2332  0.1153
18144W        W34991   8.141  11.975   2.892  0.1309  0.0417 -0.0177
18145W        W34992  13.670  13.016   2.203 -0.3711  0.4630  0.1054
18146W        W34993  16.320   7.118   1.621  0.0538 -0.2170 -0.0182
18147W        W34994  18.263   6.967  11.556 -0.0194  0.2400  0.1250
18148W        W34995   2.810  11.470  14.251  0.2173 -0.2031 -0.4911
18149W        W34996  18.266   6.610   4.367  0.2137  0.0466  0.1151
18150W        W34997   2.938  18.277   0.969  0.0610  0.1357  0.0845
18151W        W34998   0.530  10.359  13.030 -0.2373 -0.1315  0.1989
18152W        W34999  13.579  19.797  10.426  0.0892 -0.2080 -0.1052
18153W        W35000   9.480   1.769   4.729 -0.2094 -0.1309  0.0303
18154W        W35001   3.439   0.953  12.892  0.3898 -0.0112 -0.1504
18155W        W35002  11.793   4.428  11.458  0.2385  0.2374 -0.0269
18156W        W35003  18.771   2.094   4.252  0.1748 -0.1227  0.1311
18157W        W35004  11.488  15.050  10.777  0.1132 -0.0201 -0.0674
18158W        W35005  15.390   0.009   3.221 -0.1366 -0.0035  0.0172
18159W        W35006   5.310  11.525   3.101  0.4775 -0.1607  0.1019
18160W        W35007   9.352  18.488  12.602  0.1575  0.1177 -0.0901
18161W        W35008  14.105  17.041   1.373 -0.0982 -0.1295  0.3100
18162W        W35009  19.268   7.034  10.777  0.2535 -0.0357  0.3368
18163W        W35010   6.161   3.722   2.016 -0.3954  0.1092  0.1827
18164W        W35011   5.335  17.255   4.151  0.0219 -0.2054 -0.0813
18165W        W35012   7.012  11.768  12.196 -0.2265  0.2052  0.1676
18166W        W35013   6.539   3.928   2.206 -0.0288 -0.0708  0.2772
18167W        W35014   3.232  19.311   0.281  0.1142 -0.6599 -0.2111
18168W        W35015   6.038  14.525  12.859 -0.0396 -0.2030  0.0510
18169W        W35016   9.701   7.854   1.913 -0.0874 -0.2028  0.2016
18170W        W35017   7.115   6.787  12.045  0.2107 -0.2012 -0.1731
18171W        W35018  19.253  14.002   1.645 -0.0964 -0.2364 -0.0053
18172W        W35019   9.446  11.321  12.550  0.1858 -0.1400  0.1463
18173W        W35020  16.629   8.471   8.590  0.3008  0.0105  0.0019
18174W        W35021   1.739  17.272   0.024  0.0422  0.1839 -0.2500
18175W        W35022   9.732   7.596  11.850 -0.0097  0.1463  0.0069
18176W        W35023  16.395  15.980  10.260 -0.2755 -0.0783 -0.0587
18177W        W35024  13.781  14.494   1.072 -0.1072 -0.1564 -0.0505
18178W        W35025   7.767   6.997   3.120 -0.0075 -0.0921 -0.0633
18179W        W35026   6.611   7.976  13.316  0.0904  0.0147 -0.0730
18180W        W35027  12.389   3.848  10.822 -0.3730  0.1217  0.0014
18181W        W35028   2.752   6.261   1.755  0.3947  0.3238 -0.1851
18182W        W35029   7.540   1.725   2.808  0.2018  0.1678 -0.2303
18183W        W35030   7.969   2.263   9.938 -0.3469  0.0092 -0.2253
18184W        W35031  12.068   3.585   2.456 -0.1157  0.1046 -0.2212
18185W        W35032  16.730   3.570  10.180 -0.0575 -0.3210  0.2091
18186W        W35033   1.788  13.781   4.889  0.0681  0.2366 -0.0267
18187W        W35034   3.713   2.102   3.439 -0.0826  0.0295  0.1611
18188W        W35035  19.865   2.012  13.699 -0.2638  0.0428 -0.0614
18189W        W35036   0.161   8.648   3.477  0.2378  0.2218  0.0646
18190W        W35037  17.885  10.541  12.255  0.0212  0.1693  0.1373
18191W        W35038  16.370  13.671   1.312 -0.0131 -0.0874 -0.0065
18192W        W35039  13.518   5.949   3.028  0.0273  0.4916 -0.0964
18193W        W35040   3.734   8.743  11.528  0.0844  0.1048 -0.1916
18194W        W35041   5.170  14.915   4.689  0.0410  0.1582 -0.0182
18195W        W35042  13.222   1.803   0.406  0.0738  0.4453  0.2795
18196W        W35043  17.673  13.815  11.406 -0.2504 -0.3911  0.0404
18197W        W35044  11.374   6.789  11.630  0.3100 -0.1523 -0.3184
18198W        W35045  18.432  10.353  13.009 -0.1133 -0.0788 -0.2485
18199W        W35046   5.177   3.303  12.446  0.0168 -0.0840 -0.2234
18200W        W35047   6.723   2.270  11.070 -0.0623 -0.2020  0.0010
18201W        W35048   3.260   5.077   0.545  0.0261 -0.1027 -0.0290
18202W        W35049  10.601  11.430  12.925  0.1396  0.1567  0.0080
18203W        W35050   7.809   2.005   2.517 -0.3035  0.1463  0.1887
18204W        W35051  18.101  18.642  12.345  0.0592  0.1290  0.1098
18205W        W35052   2.317   7.187   3.856 -0.1509  0.0178 -0.1541
18206W        W35053   0.664  16.033  11.323 -0.2849 -0.1095  0.1026
18207W        W35054  17.778   8.896  10.118 -0.0581  0.1215 -0.1989
18208W        W35055   4.646   6.292   4.718  0.2630  0.0078  0.1688
18209W        W35056   8.650  12.669   4.796 -0.0969  0.1107  0.1451
18210W        W35057  18.792  18.268   0.998 -0.3457 -0.1347  0.0473
18211W        W35058   9.128  17.659   1.534  0.3634 -0.0062  0.1212
18212W        W35059  17.605  12.230   3.001 -0.0846  0.0502 -0.0188
18213W        W35060  10.555   9.765  14.269  0.1993 -0.4242  0.0289
18214W        W35061  11.942   4.530   1.451 -0.0213  0.2662  0.0140
18215W        W35062  16.522   5.977  11.623  0.1953  0.0042 -0.0648
18216W        W35063  10.618  12.343   3.920  0.3941 -0.0471  0.1023
18217W        W35064   5.334  16.970   1.170 -0.0028 -0.1286  0.1692
18218W        W35065  10.094   8.097   9.790  0.3434  0.1411 -0.1588
18219W        W35066  12.533   5.259  11.167  0.2354  0.1220 -0.1258
18220W        W35067   4.324   6.155  11.121 -0.0915 -0.1715  0.0192
18221W        W35068   9.500  18.998   3.192 -0.0528  0.0409 -0.5135
18222W        W35069  11.911   9.651  10.909  0.2084  0.1332  0.2054
18223W        W35070  11.064   5.394  12.341  0.1144 -0.1205  0.1484
18224W        W35071   1.128   5.365  11.265  0.0489  0.0399 -0.1225
18225W        W35072  16.738   4.637   1.688  0.0159  0.2341 -0.0492
18226W        W35073   0.761   2.846  13.113  0.0835  0.0444  0.1184
18227W        W35074   9.480   2.327  10.465  0.1466  0.1804 -0.0179
18228W        W35075  10.134   1.418  12.347 -0.1115 -0.1029  0.0102
18229W        W35076   3.621   5.942  10.324 -0.2347 -0.0783  0.2037
18230W        W35077  13.966  19.107   3.525  0.1808 -0.1282 -0.3471
18231W        W35078   7.686   7.074  12.893  0.0099 -0.3450  0.2620
18232W        W35079  10.504   8.043   4.788 -0.4551 -0.0883 -0.1780
18233W        W35080  12.801  18.323   1.161 -0.0788 -0.0591  0.2680
18234W        W35081   3.615   8.440   9.676 -0.0395 -0.0510  0.1288
18235W        W35082  17.250   2.513  11.137 -0.0503  0.0009  0.1646
18236W        W35083   8.406  16.447   0.253 -0.1359 -0.3926  0.0471
18237W        W35084   2.665  19.136  10.379  0.0686 -0.1516 -0.1211
18238W        W35085   0.054  19.881   3.115 -0.2072  0.1176 -0.0364
18239W        W35086  11.797  18.995   3.074 -0.0079 -0.2331 -0.0452
18240W        W35087  16.223  11.615  11.383  0.2338  0.1537  0.0192
18241W        W35088  11.231  16.468  12.265  0.0072  0.0092 -0.2949
18242W        W35089   0.426   7.317   3.762 -0.3708 -0.0816  0.1385
18243W        W35090   7.072   3.293  13.408 -0.0546 -0.0876  0.1224
18244W        W35091   0.340  18.102   4.124 -0.3146  0.0050  0.0889
18245W        W35092  10.407   8.653   3.235 -0.0360  0.0973  0.2480
18246W        W35093  16.294  11.704   1.154 -0.0286 -0.1336 -0.1326
18247W        W35094  10.837  13.214   1.047  0.1477 -0.1949  0.1832
18248W        W35095  11.629  12.491   3.031 -0.1902  0.0590  0.5189
18249W        W35096   7.096  16.037   0.488  0.2918  0.0358  0.1547
18250W        W35097  17.180  15.365   5.155 -0.0232 -0.0553  0.0426
18251W        W35098  15.572  19.723   2.012 -0.1448 -0.1205 -0.1599
18252W        W35099  10.852   7.229  12.621  0.0190 -0.1984  0.1703
18253W        W35100   5.031   3.507  10.536 -0.1573 -0.0068  0.4267
18254W        W35101  17.108   9.443   1.643  0.0611  0.3672 -0.2342
18255W        W35102   6.332  19.429   4.562  0.3975  0.0983 -0.1457
18256W        W35103   7.868  10.434  12.601  0.0817  0.1542  0.0072
18257W        W35104  18.856   3.027  12.814  0.0196 -0.0002  0.3608
18258W        W35105   2.756  13.887  13.572 -0.1069  0.1971  0.4347
18259W        W35106   4.992   4.626  14.329  0.1069  0.1103  0.0106
18260W        W35107  14.531  18.819   4.273 -0.2520 -0.0811 -0.1776
18261W        W35108  19.812   4.144  12.796  0.1781 -0.1458  0.1272
18262W        W35109   5.056   3.263  13.692 -0.0392 -0.0022 -0.0179
18263W        W35110   2.549  12.021   3.554 -0.2389 -0.4363  0.2044
18264W        W35111   8.422   5.309  12.872  0.0307  0.1404  0.3257
18265W        W35112  15.813  16.780   5.255  0.1932  0.1134 -0.0247
18266W        W35113   2.474   8.850   0.922 -0.1246 -0.0784  0.0511
18267W        W35114  14.313   5.183  10.535  0.0066 -0.0304  0.4815
18268W        W35115   0.016  19.708  11.326 -0.2776 -0.3573  0.3346
18269W        W35116  14.441  13.104   4.703  0.2446  0.1147  0.0586
18270W        W35117  10.677  10.858   3.714  0.0132  0.2611 -0.1300
18271W        W35118   8.442  12.992  14.342  0.2669  0.5081 -0.0143
18272W        W35119  11.584   6.083  10.154  0.0609  0.0349  0.2794
18273W        W35120   2.222   6.553   3.076  0.0008  0.4144 -0.1048
18274W        W35121  18.938   1.824   0.204  0.0202 -0.1171 -0.1909
18275W        W35122  11.142   0.125  11.072  0.0028  0.1547  0.1652
18276W        W35123   6.520  16.145   1.003 -0.0018  0.3817  0.1907
18277W        W35124  16.855   8.350   3.118 -0.1890 -0.0987 -0.1704
18278W        W35125   2.628  19.347  13.346  0.1339 -0.2743  0.1247
18279W        W35126  12.603   4.989  11.614 -0.3723 -0.0508  0.0968
18280W        W35127   4.818  14.656   2.342  0.1558 -0.0356 -0.0127
18281W        W35128  11.375   0.618   0.228 -0.0201  0.1227 -0.2618
18282W        W35129   1.507   4.711  13.917  0.0900  0.2689  0.0325
18283W        W35130  11.161  12.813   0.086  0.3133  0.0689  0.0192
18284W        W35131   0.752  15.834   3.523  0.0377  0.0648  0.1216
18285W        W35132  10.174  18.527   3.906  0.2919  0.0319  0.0447
18286W        W35133   4.719  16.741   2.970 -0.1876  0.4251 -0.2146
18287W        W35134  11.305  17.413   3.765  0.0762 -0.0341 -0.1619
18288W        W35135  14.874   9.463   0.409 -0.3157  0.0469  0.2229
18289W        W35136  15.408   9.924   2.198 -0.4173  0.0904 -0.4117
18290W        W35137  19.653  15.396   0.615  0.1492 -0.0210  0.1033
18291W        W35138  18.517  14.672   1.523  0.1693 -0.2813 -0.2955
18292W        W35139   7.920  16.959   0.346  0.0567  0.0398 -0.0894
18293W        W35140  12.347   6.672  10.152 -0.2181 -0.1521 -0.0165
18294W        W35141   5.741  10.001   0.966  0.2492  0.2407  0.1377
18295W        W35142   3.525  10.907  13.046  0.2223 -0.5754  0.0739
18296W        W35143  14.747   6.478   1.551  0.3320 -0.0697 -0.1171
18297W        W35144   2.893  17.364  11.642 -0.1436 -0.1345  0.0829
18298W        W35145   8.305  19.554  12.706  0.0526  0.1358  0.3226
18299W        W35146   2.422  18.070   0.963  0.1876  0.0821 -0.2342
18300W        W35147   1.397  13.011   1.248  0.1386 -0.3223 -0.2685
18301W        W35148  14.131  19.425   0.820 -0.0151 -0.1721  0.0692
18302W        W35149  14.941   5.661   9.986 -0.0607 -0.1738 -0.1305
18303W        W35150  19.210  18.839   4.666  0.0492 -0.5446 -0.0173
18304W        W35151   1.428  17.561  14.089 -0.0831 -0.2676 -0.3010
18305W        W35152   8.242  19.245   0.582 -0.0115 -0.1498 -0.0567
18306W        W35153   0.832   9.212   0.440 -0.4180 -0.1141  0.2238
18307W        W35154   0.973  19.350  11.696 -0.0932 -0.2364 -0.1290
18308W        W35155   1.535   7.143  12.669  0.1945 -0.3850 -0.1260
18309W        W35156   1.369   1.587   0.444 -0.1202  0.1024  0.0645
18310W        W35157   6.299   5.340   9.667 -0.1369 -0.0223  0.2351
18311W        W35158   6.504  17.584  12.123 -0.0828 -0.0761  0.0533
18312W        W35159  16.368  10.011  13.870 -0.0867 -0.3469  0.0233
18313W        W35160   4.265   1.607   0.012  0.1462 -0.2683 -0.3121
18314W        W35161  13.520  13.119  11.116 -0.2742  0.1064 -0.2800
18315W        W35162   9.776  10.781   0.960  0.2637 -0.0781  0.2748
18316W        W35163   8.707  19.219  10.950 -0.0064 -0.0495  0.0573
18317W        W35164   0.813  13.973  11.997  0.2375  0.1143 -0.1385
18318W        W35165  18.465   9.743   4.137 -0.1334 -0.1991  0.1667
18319W        W35166  17.600  18.677  13.548 -0.0491  0.0198 -0.0773
18320W        W35167   5.726  17.169   3.734  0.1543 -0.0147 -0.0530
18321W        W35168   7.646  18.415   1.051  0.0214  0.1508 -0.2493
18322W        W35169   4.269  13.878  12.757  0.0938  0.0071 -0.2197
18323W        W35170   4.119   2.785  11.035  0.2020 -0.0817 -0.2345
18324W        W35171   3.315  10.669   2.587 -0.0612  0.1009 -0.0466
18325W        W35172  17.132  13.172   5.363 -0.0339  0.1327 -0.3413
18326W        W35173  13.564  13.480  10.266  0.2229  0.2325 -0.3169
18327W        W35174   2.531   6.082  13.452  0.0592 -0.2617  0.2216
18328W        W35175  12.521   6.380   1.495  0.0574 -0.2678 -0.1419
18329W        W35176  18.391   5.711   0.283 -0.1444 -0.1546 -0.1807
18330W        W35177  12.874  13.768   0.273 -0.0237 -0.1965  0.0726
18331W        W35178  19.063   2.462  12.711  0.1176  0.0887  0.0728
18332W        W35179   1.224  18.190   2.759  0.2983 -0.3547  0.0189
18333W        W35180  12.484  10.151  11.765  0.0929 -0.0242 -0.0732
18334W        W35181  12.339  12.501  13.932 -0.2090  0.0240 -0.0598
18335W        W35182  17.586   2.136  11.264 -0.0289 -0.0182  0.2268
18336W        W35183  14.459   2.602   1.569  0.1374  0.2359 -0.0449
18337W        W35184  15.471   9.150  10.459  0.2781 -0.0074  0.1887
18338W        W35185  17.237  14.943  12.410  0.1002 -0.2186  0.3975
18339W        W35186  13.049  15.952   3.677 -0.1031  0.0893  0.1129
18340W        W35187   4.115   6.151  14.349 -0.2116 -0.0355 -0.1506
18341W        W35188  11.704  11.657  10.889  0.0415 -0.0057  0.3044
18342W        W35189   3.225  12.361  10.938 -0.2748  0.0323 -0.1222
18343W        W35190   3.767  19.125   1.419 -0.3622 -0.0101 -0.0421
18344W        W35191   6.863  17.966   4.230 -0.0785  0.0552  0.1714
18345W        W35192  14.633  16.952   1.033 -0.0867  0.1148 -0.1013
18346W        W35193  11.111   1.876  12.684 -0.0989  0.0503  0.2092
18347W        W35194   4.780  14.249   5.062  0.2816 -0.0678 -0.1273
18348W        W35195   2.190  16.311   2.776 -0.1182  0.1097 -0.0940
18349W        W35196  17.615  15.477   0.744 -0.0446 -0.1417 -0.1870
18350W        W35197  19.264   2.808   4.481 -0.2014 -0.2295 -0.0446
18351W        W35198  12.233   2.951   4.082  0.0158 -0.1769 -0.2280
18352W        W35199   5.613  13.543  12.000 -0.0294  0.0054 -0.1459
18353W        W35200  17.288   4.938   3.433 -0.0955 -0.2223  0.3046
18354W        W35201   8.590   6.053   3.349  0.0410  0.3159  0.0241
18355W        W35202  15.677   0.275  11.412 -0.0860 -0.1775  0.0217
18356W        W35203  15.039   9.557   4.133  0.1139 -0.1409 -0.0149
18357W        W35204   6.416   2.822   4.812  0.2933 -0.0819 -0.1754
18358W        W35205   8.487  12.719  10.528 -0.0701  0.2032  0.3189
18359W        W35206   1.499   2.619  10.989  0.3927  0.2938 -0.0004
18360W        W35207  11.490   4.768   0.203 -0.1800  0.0273 -0.1106
18361W        W35208  16.317   3.428  10.389  0.1474  0.3357 -0.1421
18362W        W35209   1.163   9.233   0.838  0.2245 -0.3474  0.1785
18363W        W35210  17.065  16.567  10.376  0.1272  0.0323 -0.2285
18364W        W35211   1.726  13.249   1.051 -0.0148  0.1377  0.1473
18365W        W35212  13.770   7.235   2.598 -0.1181 -0.0760  0.3408
18366W        W35213   8.854   0.239  11.045 -0.4215 -0.2891  0.0057
18367W        W35214  15.114  18.200  13.746  0.0186 -0.0162  0.1142
18368W        W35215  18.947   4.620   1.387 -0.2486 -0.2591 -0.0559
18369W        W35216   6.881   3.310   3.580 -0.0777 -0.0712 -0.1104
18370W        W35217  18.677  11.642  11.028 -0.0507  0.2210  0.2593
18371W        W35218  17.285  10.164   2.531 -0.2321  0.1157  0.0896
18372W        W35219  15.281   6.354  10.730  0.2151  0.0909  0.0671
18373W        W35220   8.499   5.999   0.450  0.1784  0.0105  0.0518
18374W        W35221  11.362   4.703   3.624  0.0042 -0.0722 -0.3618
18375W        W35222  12.691  13.440   2.985  0.0968  0.0778  0.0949
18376W        W35223  11.140  19.682  14.159  0.0531  0.3174 -0.3886
18377W        W35224  12.541  16.089   0.308 -0.2432  0.0629  0.3130
18378W        W35225  13.905   0.083  12.549  0.1866 -0.0394  0.0174
18379W        W35226   0.468   3.739  12.012 -0.0599  0.1830 -0.1390
18380W        W35227   4.436   9.694  12.726 -0.2804  0.0398  0.2096
18381W        W35228  17.009   1.818   4.412  0.1657  0.1292  0.1534
18382W        W35229   2.519  12.509   3.030 -0.0093 -0.0639  0.0255
18383W        W35230  11.255   8.522   2.417  0.1219  0.3113 -0.1038
18384W        W35231   2.062  17.333  14.008 -0.1139 -0.0395 -0.2307
18385W        W35232   1.228  12.450   4.343 -0.0652  0.0053  0.2762
18386W        W35233   8.994   2.074  13.678  0.3842 -0.1964  0.1021
18387W        W35234  19.351  17.103  12.899  0.3304 -0.0453 -0.2840
18388W        W35235   3.924  14.235  11.882 -0.4039 -0.4084  0.2567
18389W        W35236   3.614   0.152   3.640 -0.3876 -0.2474  0.6495
18390W        W35237   8.027  12.728   4.102  0.0617 -0.3900 -0.1367
18391W        W35238  16.508  17.306  13.234  0.1154 -0.1984 -0.3430
18392W        W35239   6.604  14.491   4.812 -0.3716 -0.1656  0.2785
18393W        W35240  17.110   2.811  12.333 -0.2633 -0.1467  0.0286
18394W        W35241   5.145   3.243   3.068 -0.1910  0.3860  0.0220
18395W        W35242  11.907   7.463   5.334  0.1706  0.2177  0.0802
18396W        W35243   6.550  16.661  11.843 -0.2123  0.4485 -0.3200
18397W        W35244   3.882   8.488   0.486  0.1811 -0.0057  0.1982
18398W        W35245   1.591  10.429   1.247 -0.2911 -0.0709 -0.1435
18399W        W35246   6.947  15.007  10.811 -0.1722 -0.2069  0.1219
18400W        W35247   0.431  19.143  13.399 -0.0891  0.2431 -0.3602
18401W        W35248   1.765  15.405   4.385  0.2320 -0.3268  0.2164
18402W        W35249  15.906  17.338   0.914 -0.1748 -0.2475  0.2202
18403W        W35250  14.158   3.811  12.038 -0.1637  0.3238 -0.1079
18404W        W35251  13.497  12.759   4.001 -0.2849 -0.2804 -0.3590
18405W        W35252  16.447   4.532  10.368  0.1816 -0.2366 -0.1818
18406W        W35253  16.908  11.535  14.125 -0.0259 -0.1153  0.0288
18407W        W35254   0.845   1.773  13.948 -0.0223  0.5367  0.0708
18408W        W35255   8.360   1.126  11.998  0.1645  0.1903 -0.3892
18409W        W35256   4.190  17.234   1.826  0.2774  0.0095  0.2037
18410W        W35257  17.331   2.922   3.865 -0.1958 -0.2279 -0.0859
18411W        W35258   3.873   9.584   2.755  0.1013 -0.1217  0.0008
18412W        W35259  11.482  19.562   3.799  0.0230 -0.1199  0.1808
18413W        W35260  18.987  11.886  11.387  0.2965  0.3802  0.1252
18414W        W35261   3.635   7.893   3.898 -0.1943 -0.1122  0.1870
18415W        W35262  16.377   5.728   1.826  0.0665  0.0656 -0.1641
18416W        W35263   9.282  10.077   3.933 -0.2186  0.0682 -0.0523
18417W        W35264  16.242   6.181  12.387  0.0237 -0.0861 -0.0586
18418W        W35265   4.932   2.103  12.191 -0.1619 -0.0683  0.2104
18419W        W35266  17.350   9.887  12.275  0.0074  0.3780  0.2022
18420W        W35267   4.187  11.671  13.390  0.2107 -0.1915 -0.0727
18421W        W35268  18.192  12.472   2.516  0.1584 -0.2044  0.4459
18422W        W35269   1.092  17.885  11.043 -0.1226  0.1652 -0.0623
18423W        W35270   3.196   3.184   1.662  0.0875  0.2459  0.0689
18424W        W35271   4.192  11.845   4.472  0.0181  0.2448 -0.2068
18425W        W35272  10.652  14.252   4.297  0.2194  0.1597  0.1018
18426W        W35273  14.681  14.448  11.332  0.1133  0.3093  0.1223
18427W        W35274   8.775   7.127  12.704 -0.2958  0.0716  0.1500
18428W        W35275  12.703   7.302  11.774  0.2032  0.1495  0.1181
18429W        W35276   6.611  12.349  12.733 -0.0491 -0.1047 -0.0624
18430W        W35277  14.759  11.542   3.079 -0.0271 -0.0484  0.0652
18431W        W35278   3.044  18.230  12.631  0.0341  0.1593 -0.0416
18432W        W35279   9.674  17.444  12.104 -0.2624 -0.0467  0.0471
18433W        W35280   5.170   7.333  13.151 -0.0666  0.0469 -0.1832
18434W        W35281   2.238  11.775  12.169 -0.3644 -0.0409  0.3758
18435W        W35282   6.703   0.026   2.031  0.1451  0.1538  0.0990
18436W        W35283   5.162  13.661  13.628  0.5863  0.0081  0.0353
18437W        W35284   5.531  15.737   2.251  0.1200  0.0784 -0.0563
18438W        W35285   7.341   7.812  10.422  0.2161  0.1260 -0.3023
18439W        W35286  18.884  15.443  13.564  0.1080  0.0758  0.1877
18440W        W35287  16.866   0.624   2.376 -0.2249  0.1125  0.4298
18441W        W35288   5.295  19.332   0.577  0.0114  0.2836 -0.2100
18442W        W35289   1.250  12.385   1.865  0.0119 -0.0256 -0.1254
18443W        W35290   2.984   6.192  11.996  0.0624 -0.0893  0.2965
18444W        W35291  19.209   5.774  13.370  0.1749  0.3081 -0.2195
18445W        W35292   5.537  13.185   2.592  0.0834  0.1085  0.0074
18446W        W35293  18.160   1.795   4.132  0.1486 -0.0368 -0.2011
18447W        W35294  14.915  17.390  14.204 -0.1175 -0.1832 -0.1888
18448W        W35295  14.093   7.050   3.522  0.0724 -0.0549  0.0710
18449W        W35296  15.334  18.548  10.919  0.0926  0.0286 -0.0647
18450W        W35297  18.503  10.604   1.629 -0.2285  0.0055 -0.0441
18451W        W35298  12.403  14.783   4.848  0.0646 -0.3949  0.3633
18452W        W35299   8.353   9.379   3.340 -0.1577 -0.0228  0.0118
18453W        W35300   1.588   8.176   2.210 -0.0648  0.0614 -0.1834
18454W        W35301  16.473  11.487   1.570 -0.0092  0.1664  0.2846
18455W        W35302  19.723   2.617  11.025  0.1705  0.2414 -0.0962
18456W        W35303   7.277  17.298  10.302 -0.0546 -0.0581  0.1704
18457W        W35304  16.984   5.336   5.116 -0.1228 -0.0131  0.1748
18458W        W35305  13.043   3.780   3.359 -0.2931  0.0168  0.1123
18459W        W35306   9.040  11.968   3.596  0.2024  0.1310  0.1317
18460W        W35307   5.723  17.360   1.527 -0.0631 -0.0869 -0.3386
18461W        W35308  17.692  11.654  13.897 -0.0821  0.2582  0.2657
18462W        W35309  14.241   6.750  11.431 -0.0358 -0.1223  0.0690
18463W        W35310  14.622   6.090   3.752  0.0262 -0.2984 -0.0182
18464W        W35311   7.658  12.414   1.848  0.2355 -0.2368 -0.2083
18465W        W35312  15.307  18.929  12.072 -0.1082 -0.2383  0.1396
18466W        W35313  13.804  12.026   5.224 -0.0315  0.2643  0.1122
18467W        W35314   9.617  18.226   0.499  0.1208  0.1092 -0.3598
18468W        W35315  12.922   0.345   4.117 -0.4061 -0.0286 -0.2268
18469W        W35316   7.762  17.935  13.067 -0.5416 -0.0813 -0.0779
18470W        W35317  17.151   0.140   2.476 -0.0453  0.3078  0.1275
18471W        W35318  18.645   7.832   3.372  0.2585 -0.3091  0.0796
18472W        W35319   8.315  17.359   0.357  0.1246  0.3205  0.1308
18473W        W35320  11.935   0.736   0.927  0.2149 -0.0608 -0.1356
18474W        W35321   9.321  12.029   4.828 -0.1380 -0.4018 -0.1395
18475W        W35322   1.811  16.239  10.651 -0.1697  0.1124  0.0056
18476W        W35323  15.871  16.505  11.604  0.2908  0.0040  0.0381
18477W        W35324  14.696   7.383   9.174 -0.2720 -0.0236  0.2109
18478W        W35325  18.237  15.027   1.197 -0.0297  0.0537  0.0948
18479W        W35326   7.221  13.922  11.834 -0.1901 -0.2100  0.1058
18480W        W35327   0.322  19.450   4.288 -0.3372  0.0111 -0.0498
18481W        W35328  17.935  13.581   9.112  0.0299 -0.0837  0.3612
18482W        W35329   5.825   5.215  10.666 -0.1785 -0.1287 -0.0717
18483W        W35330   6.618   6.412   3.493 -0.1744 -0.1791 -0.1167
18484W        W35331  15.172   4.429  13.717  0.1272 -0.4120  0.1855
18485W        W35332  11.748   2.803   2.679  0.2503 -0.1577 -0.0253
18486W        W35333  17.951  14.335  12.520  0.2269 -0.1443  0.1073
18487W        W35334   4.197  14.224   9.799 -0.2663 -0.3662  0.1474
18488W        W35335  11.715   9.663   4.175 -0.2685 -0.3842  0.1342
18489W        W35336  10.929   8.991   5.005 -0.0769  0.2399  0.1148
18490W        W35337   5.260   4.943   2.080 -0.1319 -0.2310 -0.2121
18491W        W35338  16.137   6.949  11.664  0.0424  0.1057 -0.1452
18492W        W35339   3.637   6.917   4.086  0.0476  0.0290 -0.1024
18493W        W35340   6.010   0.883  14.357 -0.1939 -0.2519  0.1100
18494W        W35341  16.841   1.484   4.733  0.0221 -0.0393 -0.1298
18495W        W35342   5.630   9.409   9.871 -0.0135 -0.0338  0.2294
18496W        W35343  18.694  12.160  10.282  0.0152  0.0624 -0.2962
18497W        W35344  18.635  14.271   3.952 -0.1134 -0.0987 -0.0023
18498W        W35345  13.634   6.537  14.322 -0.0865 -0.3170  0.3478
18499W        W35346  19.685   2.170   2.935 -0.0640 -0.0662  0.5268
18500W        W35347   6.425   0.614  13.024 -0.1077 -0.1325  0.0499
18501W        W35348  19.488  10.426   0.554  0.0504 -0.2216  0.0386
18502W        W35349  10.743  15.805   2.976 -0.1572  0.0002 -0.2543
18503W        W35350   4.088   8.680   3.964 -0.0042 -0.4658 -0.0140
18504W        W35351   7.981  12.269   3.267  0.1998 -0.1838 -0.3135
18505W        W35352  15.402  10.596   4.692 -0.0882 -0.1445  0.3087
18506W        W35353   9.753   6.213  11.512 -0.2847 -0.0384  0.0092
18507W        W35354   8.222  14.743  13.561 -0.2903  0.3891 -0.0431
18508W        W35355   0.416   2.042   0.300  0.1288  0.1647 -0.3153
18509W        W35356  14.047  13.785   3.765 -0.0931 -0.0105 -0.3903
18510W        W35357  14.051  10.765   1.938  0.2867  0.1565  0.0578
18511W        W35358  13.766   0.951   1.963  0.3446 -0.3886 -0.3578
18512W        W35359   1.224  19.760   3.807 -0.0496 -0.2924  0.0791
18513W        W35360  10.644   9.388   2.523 -0.4074 -0.0637 -0.3540
18514W        W35361   1.950   8.275   0.400 -0.1434 -0.2984  0.2427
18515W        W35362  11.617  17.485  10.780  0.4746 -0.2049 -0.2188
18516W        W35363   2.186   0.333  12.675  0.4170 -0.0485  0.0028
18517W        W35364  19.390  14.926   0.466  0.3866 -0.0016 -0.0411
18518W        W35365   2.397   7.495  13.463  0.5193  0.2218 -0.1408
18519W        W35366   3.821   6.360  11.237 -0.1671  0.0647 -0.1024
18520W        W35367  10.624   8.941  13.148  0.2761 -0.0298 -0.1587
18521W        W35368  10.404   4.596   2.299 -0.0179  0.0601 -0.0628
18522W        W35369   6.531   6.187   4.841  0.1086  0.1596 -0.0225
18523W        W35370   1.676   2.037  12.176 -0.0580  0.3182 -0.0262
18524W        W35371  19.379  15.637   3.490 -0.1189  0.0576 -0.2302
18525W        W35372  10.571  14.301  12.772  0.2949  0.0078 -0.0782
18526W        W35373   3.471  10.574   4.360  0.0042 -0.0218  0.0350
18527W        W35374   2.300  12.429  13.006 -0.1157 -0.3344  0.4775
18528W        W35375   5.864   9.576  11.429 -0.3724  0.1140 -0.3539
18529W        W35376  15.132   3.663   3.849  0.3531  0.1400 -0.1580
18530W        W35377   4.006  18.536  13.695 -0.0324  0.1365 -0.1154
18531W        W35378  15.618  18.964  11.194  0.1234 -0.1641  0.1072
18532W        W35379   9.081   8.974  12.706 -0.3069  0.1341  0.0032
18533W        W35380   0.119  18.755  12.645 -0.1374  0.1289  0.2413
18534W        W35381  12.129   2.978   2.277 -0.2335  0.2846 -0.5330
18535W        W35382  12.754   7.321   0.482  0.2051 -0.1113 -0.1084
18536W        W35383   0.580   3.047   0.746  0.7048  0.1651 -0.1145
18537W        W35384   1.466   6.489  11.779 -0.0207  0.3736  0.1476
18538W        W35385   0.647  18.353   0.476 -0.0139  0.0926  0.2915
18539W        W35386  18.904   8.736   3.180 -0.2604 -0.0864  0.2301
18540W        W35387   4.530  16.001  12.316  0.2684  0.2468  0.0488
18541W        W35388   1.110   7.010  10.617 -0.0744 -0.0483  0.2312
18542W        W35389   2.060  14.136  10.687  0.0177  0.3455  0.3348
18543W        W35390   8.070   1.090   5.151  0.1439  0.3645  0.1099
18544W        W35391  17.437  19.839  12.734  0.0296  0.2954 -0.2020
18545W        W35392  12.877   4.309   1.716 -0.0438  0.3301  0.5066
18546W        W35393   3.802  19.756   0.773 -0.3610  0.2754  0.0072
18547W        W35394   5.962  18.238   1.397  0.0437  0.0197 -0.0511
18548W        W35395   2.507  14.413   0.573 -0.0385 -0.1389 -0.0095
18549W        W35396   3.751   8.281   2.562 -0.0778 -0.5000  0.2535
18550W        W35397  10.562   0.080  10.952  0.1690 -0.0323  0.2041
18551W        W35398  18.264  16.458  12.290  0.1054  0.2952 -0.0092
18552W        W35399  14.007   0.196   9.850 -0.2050 -0.1043  0.2121
18553W        W35400  15.693  16.131   2.965  0.1814 -0.1997 -0.1080
18554W        W35401  18.758  13.931  14.016  0.1542  0.0926  0.2395
18555W        W35402  12.480   4.582   2.270 -0.1409 -0.1613 -0.2086
18556W        W35403   6.796  12.015  14.179 -0.0030 -0.0726 -0.0250
18557W        W35404  10.441   8.453   2.391  0.2366 -0.0045 -0.1746
18558W        W35405   0.794  18.771   0.207 -0.0613 -0.2656  0.2354
18559W        W35406   6.730   4.898  10.520  0.4156 -0.2659  0.1194
18560W        W35407   8.547   3.401   3.309 -0.2654  0.0084  0.4046
18561W        W35408   2.147   7.324  10.829 -0.1405 -0.2099  0.0147
18562W        W35409  13.387   3.328   3.309 -0.0870  0.2661  0.0858
18563W        W35410   7.618   0.359  10.732 -0.3200 -0.0740  0.1886
18564W        W35411  16.198   4.685   0.994 -0.1418 -0.0842  0.0313
18565W        W35412  15.394   0.040   1.229  0.1126  0.0455  0.3895
18566W        W35413   4.371   9.937   0.189  0.0627 -0.0113  0.0337
18567W        W35414   3.057   9.800   4.030 -0.0737  0.5311  0.3464
18568W        W35415   2.538   5.918   4.194  0.0834  0.2232 -0.5653
18569W        W35416  16.835  15.270   3.108 -0.0443  0.1060 -0.3675
18570W        W35417  13.622   2.241  12.442  0.0939  0.0155 -0.0934
18571W        W35418   4.356  19.125   1.543 -0.2341  0.1142 -0.0622
18572W        W35419   8.175   0.333  14.341  0.1946 -0.0493  0.2156
18573W        W35420  11.217  14.203   9.540 -0.1127 -0.0099 -0.0592
18574W        W35421  10.076  14.434   1.895 -0.3768 -0.0407  0.3099
18575W        W35422   4.352   2.728   9.196  0.0212  0.3036  0.0642
18576W        W35423   5.605  15.164   2.908 -0.4485  0.0257 -0.0825
18577W        W35424  13.253   9.214  12.153 -0.2774  0.2543 -0.0843
18578W        W35425  17.263   1.410   4.441 -0.0786 -0.0973 -0.3471
18579W        W35426  10.391   1.976  11.044  0.1368 -0.0220 -0.1321
18580W        W35427  19.651   5.837  10.583 -0.1061 -0.2877  0.0619
18581W        W35428   4.448  16.123  13.957  0.1972 -0.0834  0.0462
18582W        W35429  13.769   9.965   2.864  0.2915  0.2100  0.0442
18583W        W35430  10.066  19.571   2.627  0.0268  0.0457  0.0715
18584W        W35431   5.580   4.160   0.510  0.0029 -0.0887  0.0473
18585W        W35432   9.584  14.981   1.287  0.1662 -0.0536  0.0267
18586W        W35433   8.165  11.355  12.862  0.0404  0.1219 -0.2131
18587W        W35434   3.463  11.558  14.067 -0.2223 -0.0096 -0.0670
18588W        W35435   2.147   9.242   0.847 -0.1655 -0.0881  0.3073
18589W        W35436  18.716   1.483   9.693  0.3872 -0.6208 -0.0084
18590W        W35437  11.106   8.663  13.163  0.0350 -0.3797 -0.3397
18591W        W35438  19.219  18.408   3.801 -0.2042 -0.2333  0.0485
18592W        W35439  19.157   3.394  11.542 -0.1602  0.2025  0.2950
18593W        W35440   7.991  19.582   3.882  0.0853 -0.1397  0.0472
18594W        W35441  18.452   1.576   2.043 -0.1648 -0.2484 -0.0718
18595W        W35442   3.320   1.630   3.351  0.0041  0.3598 -0.2113
18596W        W35443   8.596  19.352   0.955 -0.0999 -0.2398  0.0125
18597W        W35444   2.256   1.815   9.247 -0.1629  0.3788  0.1895
18598W        W35445   3.648   2.606   0.148 -0.0939 -0.1198 -0.0393
18599W        W35446  14.269   9.624  11.282  0.0267 -0.0789  0.1997
18600W        W35447   2.448  17.016  10.410 -0.2217 -0.0942 -0.0453
18601W        W35448  17.285   5.848   0.569  0.0042  0.0615 -0.2288
18602W        W35449   2.320  15.294  12.335  0.0767 -0.1020 -0.0622
18603W        W35450  10.911  18.080   2.346  0.0868 -0.0129  0.3388
18604W        W35451   2.429   2.183  13.118 -0.0091  0.0894  0.0426
18605W        W35452  15.700  14.536  12.048 -0.2338  0.1959 -0.1041
18606W        W35453  17.620  16.870   4.188  0.2059  0.2356 -0.2260
18607W        W35454  13.194  12.032  13.062 -0.2100  0.1011  0.0847
18608W        W35455   7.182  12.206  14.017  0.1754  0.0045 -0.1852
18609W        W35456  14.229   1.103  13.594 -0.1843 -0.0398  0.4793
18610W        W35457   6.143  15.549   0.228 -0.1328  0.2053  0.0996
18611W        W35458  13.208   0.237  13.260  0.1821  0.1070 -0.3364
18612W        W35459   8.983   5.151  10.874  0.2535 -0.1618  0.0385
18613W        W35460   0.107   8.515   2.213  0.1242 -0.1790  0.0030
18614W        W35461  13.311  16.742   5.205 -0.4120 -0.0536  0.4153
18615W        W35462  18.182  18.472   3.861  0.0225 -0.0305  0.3346
18616W        W35463   4.001   6.667   0.355 -0.2958  0.1012 -0.1801
18617W        W35464   0.670   1.751   3.080 -0.3307  0.2356  0.0565
18618W        W35465   7.534  10.307   3.780  0.0614 -0.0328 -0.3149
18619W        W35466  11.994  11.073   0.322  0.0730 -0.1845 -0.1979
18620W        W35467  10.671   6.699  12.403 -0.0420  0.0806  0.1365
18621W        W35468  19.722  13.617   4.332  0.0392  0.1317  0.1397
18622W        W35469   7.804  19.559   0.873 -0.2276  0.1259 -0.0411
18623W        W35470   9.918   8.340   2.308  0.0905 -0.0071  0.2692
18624W        W35471   6.615  10.514  12.279  0.0114 -0.0435 -0.1983
18625W        W35472   5.578   6.903   1.639 -0.1015  0.0101  0.0194
18626W        W35473   7.898  12.901   9.387 -0.0024 -0.1736  0.0880
18627W        W35474   7.429  13.169  12.375 -0.0550 -0.1357  0.2973
18628W        W35475  17.565   8.694   1.886 -0.2578  0.1559 -0.2548
18629W        W35476   6.781   2.522  11.724 -0.3294  0.2528  0.2201
18630W        W35477   9.981   9.086   1.046  0.2003  0.0264  0.0553
18631W        W35478   8.368   7.886   1.452  0.0002 -0.2531 -0.0850
18632W        W35479   2.609   4.158   4.217 -0.1899 -0.2031  0.1474
18633W        W35480   1.562  19.182  12.797  0.0564 -0.2515 -0.0106
18634W        W35481  13.464   0.366   4.508  0.0382 -0.2274  0.1412
18635W        W35482   0.823   7.715  13.787  0.1777  0.0545 -0.1393
18636W        W35483   1.388   7.431   3.214 -0.2717 -0.1288 -0.1503
18637W        W35484  14.792   5.274   3.575 -0.1940 -0.0357  0.1322
18638W        W35485  15.592  17.062  13.012  0.0728  0.2902  0.3987
18639W        W35486   6.783   4.854  13.965  0.1480 -0.0566  0.2267
18640W        W35487  12.027  16.815   3.447 -0.1303 -0.0437  0.1371
18641W        W35488   3.336  13.274   1.643 -0.0659 -0.1435 -0.0093
18642W        W35489  13.080  13.181   4.832  0.2252  0.1464 -0.3141
18643W        W35490   1.733  19.835   3.582  0.1957 -0.0598  0.3745
18644W        W35491  15.011  13.617   3.533 -0.1671  0.0932 -0.0038
18645W        W35492  12.442  13.693   2.214  0.3367 -0.0033 -0.2572
18646W        W35493   6.629  12.309   3.426 -0.2320 -0.1365  0.0548
18647W        W35494  17.632  16.801  11.389  0.1110  0.0545  0.1004
18648W        W35495  16.336  18.397   4.699  0.1399 -0.0742 -0.1440
18649W        W35496  18.590  12.639  10.998  0.1750  0.1769  0.2434
18650W        W35497   3.404   9.708  12.304 -0.2607  0.0646  0.0641
18651W        W35498  16.268  18.659   3.051 -0.2143  0.1198  0.4931
18652W        W35499  17.389   4.267  11.786 -0.0758  0.1509 -0.0159
18653W        W35500  17.381  12.409   0.042 -0.1617  0.0387 -0.3700
18654W        W35501  10.012   1.114   4.523  0.0779  0.1228  0.1898
18655W        W35502  13.212   4.991   4.313  0.3714  0.2395  0.1666
18656W        W35503   2.406   0.459   2.984  0.1902  0.1480  0.3523
18657W        W35504  12.649  18.237  13.629  0.3861 -0.0532 -0.4072
18658W        W35505  15.482   1.487   1.014  0.0486 -0.1877  0.2180
18659W        W35506   5.617  18.670   4.997 -0.0707 -0.0442 -0.2922
18660W        W35507   6.125   8.271  10.352  0.0822 -0.1763  0.0167
18661W        W35508  12.155  14.144   5.424  0.1101  0.2166  0.2287
18662W        W35509   6.747   3.060  11.876  0.2187 -0.1362 -0.0920
18663W        W35510   5.316   8.648   1.329  0.1308  0.0219 -0.0944
18664W        W35511   1.070   9.472  14.262  0.0466  0.4712  0.0208
18665W        W35512   2.480  12.175   2.614  0.2447 -0.0602 -0.0307
18666W        W35513   8.364   8.991   5.401 -0.1943 -0.2828 -0.0947
18667W        W35514  14.109  12.530  10.013 -0.0462 -0.1630  0.2509
18668W        W35515  16.775   7.477  12.234 -0.2577  0.1393  0.3351
18669W        W35516   2.339   3.531   0.695 -0.1512  0.1118  0.1978
18670W        W35517  11.668  17.561  12.989 -0.1647  0.0354  0.0700
18671W        W35518  12.941   3.330   3.507  0.4950  0.0727 -0.1499
18672W        W35519   5.109   2.439  12.708  0.1800  0.2230 -0.0173
18673W        W35520   9.741  12.904   9.778  0.0488  0.4793  0.2134
18674W        W35521  18.033   3.210  10.747  0.0283  0.2938  0.3227
18675W        W35522  18.917   8.201   1.179 -0.2233 -0.0494  0.0271
18676W        W35523   7.264   9.181   4.421  0.1316 -0.0647  0.2603
18677W        W35524   6.987  19.808   4.254 -0.1818  0.1386  0.3263
18678W        W35525  15.147   3.206  12.972 -0.2365 -0.1530  0.1353
18679W        W35526   4.516  10.684  12.843 -0.0438  0.3480 -0.0327
18680W        W35527   4.633   8.879   2.333 -0.0450  0.0269  0.0492
18681W        W35528  16.785  15.384   1.816  0.2619 -0.0066  0.1102
18682W        W35529   1.800  12.716   0.884 -0.4411 -0.2418 -0.0762
18683W        W35530  12.271  12.140  10.301 -0.2772  0.1308 -0.2399
18684W        W35531  16.413   7.256   2.840 -0.1269 -0.3126  0.0218
18685W        W35532  10.124   6.019   3.459 -0.2167  0.0513 -0.0945
18686W        W35533   1.805  12.985   3.152 -0.0742  0.1179 -0.2182
18687W        W35534   6.763   0.492  10.882  0.0628 -0.1280 -0.0371
18688W        W35535   4.189  17.774   1.949  0.0776 -0.2841 -0.5977
18689W        W35536   3.013   1.194   3.156 -0.3357 -0.1129 -0.1983
18690W        W35537   4.809  18.981  10.628  0.1124 -0.1896 -0.3072
18691W        W35538  17.589   1.969   0.845 -0.1936 -0.0183  0.1318
18692W        W35539  12.188  17.779   4.475 -0.0520 -0.0638  0.1768
18693W        W35540  16.394  19.258  12.796  0.0036 -0.1583 -0.2044
18694W        W35541   9.860  18.972   0.226 -0.0436 -0.3155 -0.1100
18695W        W35542   8.829   4.879   1.235  0.1275  0.0130 -0.1382
18696W        W35543   1.340   5.950  14.144  0.2601  0.0818 -0.0111
18697W        W35544  16.822  18.029   3.124  0.0518 -0.1492  0.2833
18698W        W35545  18.105   8.502   0.813 -0.0036  0.2135 -0.2980
18699W        W35546  13.442  16.582   0.350 -0.1584  0.1270  0.1988
18700W        W35547  14.228   6.101  12.102 -0.0091  0.1460  0.0232
18701W        W35548  12.603   8.610   1.311 -0.3058 -0.2296 -0.0184
18702W        W35549   3.106  12.489  13.266 -0.3052 -0.0658  0.0561
18703W        W35550  10.967  19.119   3.247 -0.3942 -0.1521 -0.3147
18704W        W35551   1.843   8.731  11.708  0.1028 -0.3175  0.2651
18705W        W35552  13.283  11.281  10.401 -0.1561 -0.0557  0.1123
18706W        W35553  18.506   0.715   3.529 -0.3799  0.1854  0.2617
18707W        W35554   8.747  13.115   0.900 -0.3766 -0.0987 -0.0517
18708W        W35555   9.495   9.857   1.227  0.1019 -0.0760 -0.1263
18709W        W35556   2.818   8.505   1.050 -0.2034  0.1960 -0.1382
18710W        W35557  10.692  12.443   0.486  0.2982 -0.0126  0.0192
18711W        W35558  14.958   4.931   3.256 -0.0070  0.2343  0.4790
18712W        W35559   8.892  17.895   0.721 -0.1601 -0.1652  0.0145
18713W        W35560   3.705   8.459   3.800  0.1129 -0.0270  0.1635
18714W        W35561   8.941  18.860   0.032  0.3297  0.1296  0.0875
18715W        W35562   5.655   1.564   0.542  0.0916  0.1444 -0.0801
18716W        W35563  15.686   3.756  12.377 -0.3803  0.1345 -0.2282
18717W        W35564   9.257  14.677   3.002  0.0734  0.3651  0.0889
18718W        W35565  10.474   7.963  13.324  0.0331  0.2218 -0.1428
18719W        W35566  12.108   0.634   5.000  0.1960 -0.3201 -0.0434
18720W        W35567  11.052  15.941  10.836  0.0828  0.0573 -0.1055
18721W        W35568  15.769   7.190   1.732 -0.3546  0.1509  0.0486
18722W        W35569   8.071   5.128   4.861 -0.1341  0.2173  0.2050
18723W        W35570   3.827  13.822   4.925 -0.1872 -0.0379 -0.0306
18724W        W35571   4.325   6.026  12.516 -0.1120 -0.1575  0.1102
18725W        W35572   6.286  11.801  13.028  0.2425  0.1209 -0.1177
18726W        W35573   7.066  13.296  11.115  0.0072 -0.1466  0.0425
18727W        W35574  18.137  17.522   3.302 -0.2814  0.0665  0.2964
18728W        W35575  15.214  11.081   3.872  0.3007  0.1580 -0.0106
18729W        W35576  10.121   1.431   0.260  0.1053  0.1876  0.1850
18730W        W35577  17.149   6.024   2.719 -0.1321  0.2558 -0.2511
18731W        W35578  11.396  12.651  12.875  0.0172 -0.4128 -0.2120
18732W        W35579   7.694   7.088   1.239  0.0349  0.1035 -0.1950
18733W        W35580  18.615  17.619  12.968  0.4227 -0.0025  0.2537
18734W        W35581   7.332   1.038  11.350  0.0999 -0.2588  0.0356
18735W        W35582  17.736  15.691   1.909 -0.0848 -0.1433 -0.2485
18736W        W35583   8.319   9.417  13.190  0.1649 -0.0124  0.1396
18737W        W35584  17.148  11.406   3.171  0.0717  0.3313 -0.2289
18738W        W35585   5.745  11.788  12.370  0.1067 -0.1891  0.0093
18739W        W35586   0.117   6.751  10.895 -0.2630  0.1414 -0.1002
18740W        W35587  11.717  12.184   5.397 -0.0056 -0.1246  0.1195
18741W        W35588  12.295  13.481   0.215 -0.0266  0.2828 -0.0938
18742W        W35589   0.155  10.350   5.746  0.3065 -0.2363 -0.3557
18743W        W35590   7.880  10.999   0.803 -0.0102  0.1438  0.0738
18744W        W35591   2.123  14.964  10.365  0.0576 -0.2052 -0.0127
18745W        W35592   6.351   3.985   0.458 -0.1835 -0.1249  0.2900
18746W        W35593  10.714   3.020  13.368 -0.2604 -0.1609 -0.1647
18747W        W35594   9.940   7.029   1.140 -0.3068  0.0074  0.2927
18748W        W35595  14.681  14.652  10.786  0.1309  0.1418 -0.1152
18749W        W35596  17.619   0.104  10.531 -0.0556 -0.0167  0.2382
18750W        W35597  14.728   4.612   2.076 -0.0220  0.2080 -0.2246
18751W        W35598  16.389   1.381   4.529  0.1415 -0.0264  0.0320
18752W        W35599  18.959   9.626   4.684  0.1620  0.3226  0.2104
18753W        W35600  12.680  18.903   3.069  0.1044  0.0650  0.1112
18754W        W35601  11.315   5.527   5.014  0.3684 -0.1067 -0.3106
18755W        W35602  11.363   3.163  10.744 -0.0483  0.1623 -0.2236
18756W        W35603  15.931   0.778  11.626 -0.1175  0.1093  0.0591
18757W        W35604  14.852   8.021  11.197 -0.1654  0.3127  0.2078
18758W        W35605  10.475  12.063   0.208 -0.0502 -0.6803  0.2181
18759W        W35606   3.961  19.646  12.613  0.0253  0.2874  0.0219
18760W        W35607  10.927   4.575   3.786  0.0346 -0.1464 -0.2069
18761W        W35608  15.865   1.522   2.212 -0.1383  0.0700 -0.0513
18762W        W35609  19.341   4.655   2.113 -0.3532 -0.1621 -0.0006
18763W        W35610   7.942  17.074  14.085 -0.0531 -0.2691 -0.0851
18764W        W35611  15.166   1.231   1.627  0.2909 -0.3731  0.3104
18765W        W35612   1.115  12.882   0.665  0.1856 -0.0606  0.2506
18766W        W35613  18.034  19.333  11.662 -0.2387  0.1949 -0.0761
18767W        W35614  11.129  10.388  13.658  0.4551  0.0946  0.2478
18768W        W35615  18.542   9.773   3.536 -0.0863 -0.2022 -0.1041
18769W        W35616  12.028  14.760  13.544 -0.1086  0.1220 -0.0811
18770W        W35617  13.330  19.341   4.113  0.0942 -0.0925  0.0311
18771W        W35618   3.131   3.025   0.705  0.2622  0.1547 -0.0237
18772W        W35619   7.638  14.797  11.874  0.0575  0.1924 -0.1945
18773W        W35620  17.331   5.455   0.171 -0.3969  0.0174  0.2389
18774W        W35621   3.096   0.250   1.152  0.6588  0.2855 -0.1686
18775W        W35622   5.181  11.806  14.066 -0.2939 -0.1195  0.2085
18776W        W35623  17.142  11.349  10.229 -0.1962  0.0245  0.3319
18777W        W35624  12.672   8.680   1.899 -0.1847 -0.3337  0.1142
18778W        W35625   0.587  14.196   4.862  0.0745  0.2601  0.3861
18779W        W35626   8.228  16.178  11.330  0.1529 -0.2517 -0.0663
18780W        W35627  14.193  15.940   4.724 -0.2824 -0.0411 -0.3558
18781W        W35628  19.644   2.400  14.000 -0.0392 -0.1334 -0.3551
18782W        W35629   1.069   2.036   9.972 -0.0183 -0.2740  0.0597
18783W        W35630   7.017  16.154  11.813  0.0561  0.2928  0.4869
18784W        W35631   6.388  17.680   4.114  0.1660 -0.0888  0.0683
18785W        W35632   0.333   0.302   1.849  0.0621  0.1292 -0.0148
18786W        W35633  13.442   4.583   3.499  0.1612 -0.1965  0.2217
18787W        W35634  12.675   0.313  10.550 -0.2627  0.0381 -0.0200
18788W        W35635  19.817  17.579  12.424  0.0665  0.0512 -0.0379
18789W        W35636  17.891  12.185   0.794 -0.0602  0.3012 -0.2649
18790W        W35637  18.569  12.198   0.462  0.1935 -0.1789  0.0608
18791W        W35638   6.519  13.233  13.068  0.0829  0.1620 -0.1107
18792W        W35639  14.381   6.764  12.378  0.0451  0.3025  0.2325
18793W        W35640   8.619   2.088  14.012 -0.1127 -0.3772 -0.0085
18794W        W35641   0.110   8.144   3.404 -0.0780 -0.1866  0.0641
18795W        W35642  10.252   9.969   3.795  0.1994  0.0797  0.0670
18796W        W35643   6.109  14.975   5.089  0.1713  0.3067  0.0584
18797W        W35644  18.732   4.177  14.249 -0.2838  0.0700  0.0033
18798W        W35645  17.741  12.653   2.722  0.0356 -0.1840  0.3579
18799W        W35646   6.870  18.468   4.442 -0.1228 -0.2823  0.1347
18800W        W35647   4.945  18.992  11.426  0.2241 -0.2125 -0.3194
18801W        W35648  16.237   7.066   0.553 -0.0166  0.2173  0.0345
18802W        W35649   0.903   5.767   4.665  0.2220 -0.1361  0.1307
18803W        W35650  12.486  14.521   3.179 -0.6797  0.0142 -0.1119
18804W        W35651   3.551   5.961   5.728  0.1236 -0.1835 -0.1829
18805W        W35652  15.006  18.397   0.043  0.3708  0.0235 -0.0849
18806W        W35653  16.143  15.334   3.469  0.3549  0.3932 -0.0656
18807W        W35654   2.818  15.109   1.263 -0.3377 -0.3579  0.1719
18808W        W35655  19.643  13.310   2.501  0.2116 -0.0011  0.1691
18809W        W35656  12.278  12.584   0.587 -0.2374  0.3113 -0.1734
18810W        W35657   6.830  15.912   0.057 -0.0150  0.0140 -0.3293
18811W        W35658   6.530   2.211  12.849  0.0549  0.1147 -0.2239
18812W        W35659   4.592   4.529   2.551 -0.1272  0.1277  0.3464
18813W        W35660   6.270  13.772  14.208  0.0401  0.1165  0.0640
18814W        W35661   5.133   4.519   1.782  0.0624 -0.1869 -0.2250
18815W        W35662  18.601  16.334   0.521 -0.4015 -0.0990  0.3431
18816W        W35663  13.183  19.171  12.725 -0.3509 -0.0011  0.0725
18817W        W35664   3.727  17.579  11.192 -0.0709  0.2613 -0.0010
18818W        W35665   5.309  14.056   2.146 -0.0549  0.0241 -0.1032
18819W        W35666  11.820   5.308   0.234  0.0195 -0.2045 -0.1616
18820W        W35667   7.681   8.664   0.809 -0.2354  0.0907  0.2715
18821W        W35668  16.824   1.926  12.017 -0.1012  0.0835  0.1220
18822W        W35669   4.221  15.348  11.039 -0.0690 -0.0891 -0.2839
18823W        W35670   1.163   1.320  13.600  0.1363  0.1595 -0.2613
18824W        W35671   6.915  17.880   3.017  0.0868  0.2477  0.2805
18825W        W35672   1.674  18.601  11.593 -0.2232 -0.2640  0.1632
18826W        W35673   8.407  10.820  11.166 -0.2606  0.0981  0.1925
18827W        W35674  13.915  19.807   1.923  0.2234 -0.4854 -0.1341
18828W        W35675  18.277   1.422   0.315 -0.1293  0.0156 -0.2207
18829W        W35676  13.893  17.457   3.738  0.0975  0.1002 -0.0845
18830W        W35677   8.319  10.405   2.963 -0.2146  0.2859  0.2320
18831W        W35678   3.648   9.330   9.721  0.1454  0.1970  0.1564
18832W        W35679   7.292   7.249   2.542  0.3662  0.2877  0.3214
18833W        W35680  15.022  10.562  12.184 -0.2550 -0.0100  0.0260
18834W        W35681  11.386   3.197   2.790 -0.1753 -0.0313 -0.0398
18835W        W35682  18.465   5.704   3.591 -0.0435 -0.0134 -0.1404
18836W        W35683   6.028   4.883  13.478  0.4014  0.2179 -0.3269
18837W        W35684  17.480   2.747  11.499 -0.1350 -0.2000  0.2695
18838W        W35685  14.785  19.419   2.408  0.2338 -0.1069 -0.1320
18839W        W35686   0.254   4.792   1.137 -0.0649  0.0697  0.2020
18840W        W35687  19.226   0.411  13.887  0.1482 -0.1438  0.2456
18841W        W35688  19.582  19.060   3.045 -0.0928 -0.1943  0.2893
18842W        W35689   8.494  19.022  14.240 -0.1106 -0.0903 -0.1465
18843W        W35690  10.014   0.257  11.824 -0.0017  0.0435  0.2426
18844W        W35691  10.078  12.028   0.620  0.1361  0.0155  0.1939
18845W        W35692   0.226  17.997   4.576 -0.0295 -0.1096 -0.1242
18846W        W35693   2.653  14.764   0.234 -0.0397  0.1473  0.1839
18847W        W35694  19.829  14.235  11.356  0.1291  0.3742  0.0421
18848W        W35695   1.372   3.768   2.306 -0.1377 -0.2370  0.1110
18849W        W35696   2.105  15.350  14.016 -0.2031 -0.2063 -0.1397
18850W        W35697   3.422   4.461  13.690 -0.1349 -0.0209  0.3567
18851W        W35698   7.829  11.280  10.336  0.0146  0.1306 -0.2483
18852W        W35699  11.053  14.910   2.784 -0.2288  0.1132 -0.0345
18853W        W35700   5.487   7.056   2.109 -0.0054 -0.0990  0.1178
18854W        W35701  13.722   4.105   0.467  0.1147  0.1543 -0.1594
18855W        W35702  19.125  18.716  13.109  0.0239  0.1340  0.1383
18856W        W35703  14.423  11.265   2.472  0.0397 -0.0692 -0.2401
18857W        W35704   6.811  12.507   2.042 -0.0129 -0.3255 -0.0586
18858W        W35705  16.276   1.619  11.971 -0.0361  0.0685  0.1414
18859W        W35706   9.765  14.127  10.648 -0.4334 -0.3413  0.1369
18860W        W35707  17.191   6.136   2.064  0.0044 -0.3764  0.3550
18861W        W35708   9.724  19.158   2.492  0.2743  0.4055 -0.0464
18862W        W35709  14.079  12.219  13.477 -0.1785  0.2386  0.0736
18863W        W35710   6.661  13.123   4.603 -0.2390  0.3110  0.3362
18864W        W35711   4.959  14.246   0.764  0.1229  0.1185  0.0123
18865W        W35712  19.629   9.232   2.525 -0.3469 -0.3334 -0.3301
18866W        W35713   1.459   8.699   2.860  0.2750 -0.1302  0.1591
18867W        W35714   4.078   7.677   3.217  0.1602  0.1113  0.1927
18868W        W35715   9.510   3.449  11.885 -0.2254  0.3773 -0.0977
18869W        W35716  11.990   2.810  12.562  0.3575 -0.1415 -0.0763
18870W        W35717   4.274   7.679   2.404 -0.1010  0.0681 -0.0037
18871W        W35718   9.217   3.916   1.977 -0.2227  0.0233 -0.0488
18872W        W35719   0.776   8.784   4.010  0.0244 -0.0274  0.0449
18873W        W35720   2.544   3.749   9.886 -0.1234  0.0641 -0.0056
18874W        W35721  17.176  16.299  10.760  0.3759  0.0047  0.1826
18875W        W35722  13.946   7.130   9.734 -0.2672  0.0936 -0.0600
18876W        W35723   0.055   6.947   2.535 -0.0859 -0.1178  0.5075
18877W        W35724   5.109  19.767  13.645 -0.4318 -0.2117  0.0524
18878W        W35725   0.596  17.569   4.568 -0.0379 -0.0596 -0.1624
18879W        W35726   2.699  12.464   1.594  0.0494  0.2984  0.0016
18880W        W35727   0.344  10.858  13.805  0.4341 -0.2236 -0.2894
18881W        W35728   5.118  11.483  12.855  0.4780  0.3961 -0.0999
18882W        W35729  18.586   2.342   2.553 -0.0418 -0.1316  0.3376
18883W        W35730   0.353  17.114  10.001  0.1414 -0.0493  0.0014
18884W        W35731   0.208  18.914   1.182  0.1284 -0.0137  0.3626
18885W        W35732  11.789  18.132   0.388  0.2087 -0.1012  0.0807
18886W        W35733   3.402  14.954   0.114  0.0819 -0.1590  0.0006
18887W        W35734  14.277   8.597   3.492  0.1377  0.1577  0.1779
18888W        W35735  11.455   5.980  11.027 -0.2077 -0.0680 -0.1669
18889W        W35736  19.788  19.023  11.895 -0.1395 -0.2913 -0.1788
18890W        W35737  12.853   1.699   4.586  0.1394  0.2377 -0.1419
18891W        W35738  14.530   8.407   2.423 -0.1645  0.2246 -0.2252
18892W        W35739  15.668   1.709  10.601  0.2157  0.1565  0.1154
18893W        W35740   2.574   2.351  11.671 -0.0566 -0.0819  0.2276
18894W        W35741   1.569   8.041  13.334  0.0443  0.2913 -0.0037
18895W        W35742   4.553  10.742   0.931  0.2635 -0.0304  0.0875
18896W        W35743  11.981   3.840   9.271  0.4864  0.1292 -0.0743
18897W        W35744   2.686   8.641  13.524 -0.1701 -0.1528  0.1858
18898W        W35745   8.586   4.020  14.248  0.3541  0.1099 -0.1207
18899W        W35746  15.865  19.375  11.268  0.3822  0.0867  0.0593
18900W        W35747   6.486  11.031  12.230 -0.0196 -0.0947 -0.0031
18901W        W35748  15.036   4.282   5.086 -0.1345  0.1445  0.0838
18902W        W35749  17.141  12.805  13.204 -0.2787 -0.0113  0.1573
18903W        W35750   3.397   0.482  12.911 -0.1362  0.1673  0.0207
18904W        W35751   2.523  11.029   2.682 -0.2117  0.0184  0.0490
18905W        W35752  13.894   5.330   4.523 -0.0411 -0.2959 -0.0794
18906W        W35753  10.337   1.337  10.879 -0.0767  0.1316 -0.3921
18907W        W35754   7.213   8.330  11.099  0.1309  0.0295  0.0115
18908W        W35755   6.103   7.328   0.761 -0.1614  0.1721  0.1675
18909W        W35756  10.716  14.348  11.850 -0.2164 -0.0201  0.0458
18910W        W35757   1.238  13.514  12.796 -0.2819  0.0216  0.0559
18911W        W35758  18.868  11.043   4.265  0.0060  0.0365  0.1125
18912W        W35759   8.875   0.088   0.043  0.1520 -0.0277  0.0794
18913W        W35760   1.865   6.850  12.334 -0.0648 -0.4194  0.0121
18914W        W35761  12.965  10.064   3.369 -0.0010 -0.3362  0.0531
18915W        W35762   3.034   9.779   3.519  0.0802 -0.1079 -0.1284
18916W        W35763   9.290  10.247  11.167 -0.0643  0.0267 -0.1787
18917W        W35764   4.266  11.659  12.921 -0.0716 -0.1769  0.2903
18918W        W35765  17.401  10.912   3.276 -0.2467  0.2813 -0.1460
18919W        W35766  16.488   4.772   3.617 -0.2560  0.0401 -0.2611
18920W        W35767   6.945  14.338  10.812 -0.1316 -0.1842  0.3847
18921W        W35768  10.324  15.575  12.267 -0.4991 -0.0443 -0.0220
18922W        W35769  17.640   4.040   3.773 -0.0560  0.0081  0.1872
18923W        W35770  14.253   9.266   3.324 -0.2156  0.0212 -0.0197
18924W        W35771   7.792   5.730  11.815  0.0465  0.1867  0.2023
18925W        W35772  17.473  11.984   1.467 -0.3665  0.0595 -0.0543
18926W        W35773   8.606   1.387   1.702 -0.0206 -0.1294  0.1931
18927W        W35774  11.352   0.045  12.742  0.2463  0.2491  0.0222
18928W        W35775   5.399   9.864   9.680  0.5338 -0.1707 -0.0961
18929W        W35776  16.015   4.917   3.398 -0.3776 -0.3153 -0.0666
18930W        W35777  13.386  15.541  12.545  0.4253  0.0120  0.3237
18931W        W35778  13.845  18.610   3.312 -0.2663 -0.0115 -0.0380
18932W        W35779   6.689   7.114  11.728  0.2539  0.1102 -0.0087
18933W        W35780  19.213   8.310  12.610 -0.3840  0.2342  0.0962
18934W        W35781  12.098   7.087   3.952 -0.0763  0.2313 -0.0394
18935W        W35782   5.222   1.907  12.841  0.1040  0.1884 -0.4579
18936W        W35783  11.667  10.542   3.509 -0.0935 -0.1680  0.0793
18937W        W35784   8.038   4.588  13.681  0.1507  0.1735  0.0974
18938W        W35785  19.504   7.426   1.214  0.0191  0.0342 -0.2777
18939W        W35786   6.400   3.688   1.022  0.0262  0.0589  0.3304
18940W        W35787   9.701   3.818  13.665 -0.0157  0.1642 -0.0843
18941W        W35788  12.591  18.663   1.477  0.2109 -0.0898 -0.2564
18942W        W35789   7.478   1.882  12.578  0.3009 -0.2842 -0.0182
18943W        W35790   5.685  10.670   0.523 -0.0911 -0.1823 -0.3127
18944W        W35791   2.162   0.650  11.317 -0.1613  0.0157  0.1554
18945W        W35792   7.192   1.684   0.818 -0.1699 -0.0785  0.0120
18946W        W35793   1.648  12.227   2.199  0.3690  0.2160  0.1666
18947W        W35794  13.960  18.926   2.687  0.1048 -0.2522  0.1507
18948W        W35795  10.745   2.746   3.769  0.2122 -0.3325  0.1182
18949W        W35796   7.461  12.914  11.115 -0.0535  0.0187 -0.1459
18950W        W35797  19.522  13.320   4.728  0.1681  0.1439  0.2199
18951W        W35798  12.268   2.584  11.651  0.0242 -0.1375  0.1237
18952W        W35799  16.806   8.237  12.496  0.3906 -0.0687  0.3962
18953W        W35800   8.305  13.234   2.909  0.2151  0.1942 -0.1161
18954W        W35801  16.717   3.633  12.840 -0.1042 -0.0256  0.2985
18955W        W35802  10.417  15.251   8.956 -0.1188 -0.0342  0.2618
18956W        W35803   7.447  11.232  11.585 -0.1760 -0.2530  0.1005
18957W        W35804   4.645  16.181  11.171  0.0275  0.0031  0.1016
18958W        W35805   0.099  15.771   2.656  0.0973 -0.2035 -0.0965
18959W        W35806  10.711   9.520   1.457  0.2388 -0.0897 -0.0367
18960W        W35807  15.674  15.846   0.088  0.2362 -0.1628 -0.1049
18961W        W35808  14.174  10.179  11.228  0.1113  0.1628  0.2675
18962W        W35809  14.649  16.240  13.611  0.2096 -0.3821  0.4334
18963W        W35810   9.612   4.653   3.203 -0.1907 -0.0760  0.0140
18964W        W35811   7.580   4.595  11.398  0.4206 -0.1400  0.1857
18965W        W35812  17.108   8.671  11.786 -0.0919  0.0642 -0.2061
18966W        W35813  10.897  19.239  10.492  0.2223  0.1691  0.3341
18967W        W35814   4.176   1.563   0.560  0.1659  0.0133 -0.1491
18968W        W35815   4.861   4.535   3.486  0.1325  0.0878  0.1404
18969W        W35816  17.561  10.065  10.863  0.2687 -0.1321  0.4605
18970W        W35817   2.988  15.588  13.045  0.0074 -0.0923 -0.2948
18971W        W35818  12.687   9.748   3.665  0.0145 -0.2171 -0.0605
18972W        W35819  15.838  17.110  13.932 -0.0718  0.1860 -0.1192
18973W        W35820  14.290  18.103   9.107  0.0954  0.4321  0.2452
18974W        W35821  17.159   6.297  14.052  0.0514 -0.0543 -0.0610
18975W        W35822  19.098   2.370  11.813  0.0365  0.0956 -0.0354
18976W        W35823  18.454   4.718  14.304  0.1106 -0.5206  0.2483
18977W        W35824  16.311  11.510  13.031  0.1561  0.0906  0.0385
18978W        W35825   4.915   4.726   1.111  0.3427  0.1733 -0.5155
18979W        W35826   3.668  15.046   1.888  0.2129  0.2819  0.0833
18980W        W35827   0.258  17.783  12.790  0.1906  0.4332 -0.0364
18981W        W35828  11.002   5.854   2.318  0.5013 -0.3206  0.3544
18982W        W35829   8.226  10.037   0.542 -0.0866 -0.3159  0.2675
18983W        W35830   7.379   9.001   2.294  0.2183  0.3777 -0.1296
18984W        W35831  12.243   9.607  11.819 -0.1040 -0.0589  0.1046
18985W        W35832   9.604  14.900  11.050  0.4327 -0.2342 -0.1361
18986W        W35833  14.234  17.726  10.025  0.1892  0.1703  0.0791
18987W        W35834   3.943   1.351  13.502  0.1286  0.0793  0.0750
18988W        W35835   8.497   2.867   4.126  0.2368 -0.0529 -0.0343
18989W        W35836   4.149   3.727  12.539 -0.3305 -0.1005 -0.2085
18990W        W35837   9.713   0.298   4.013  0.1229  0.2729  0.1264
18991W        W35838  16.497   3.282   4.564  0.1084 -0.0499  0.1926
18992W        W35839  15.680   0.378   1.441 -0.2224 -0.2135  0.0192
18993W        W35840   2.252  15.826  12.761  0.2375  0.1859  0.1694
18994W        W35841  11.881   9.112   1.460 -0.1103 -0.0725  0.0996
18995W        W35842   4.388   2.384  13.422 -0.1632 -0.0328 -0.0170
18996W        W35843  17.709  11.345   3.305 -0.2134 -0.1350 -0.0671
18997W        W35844  19.700  11.739  10.846  0.3154  0.3386 -0.2086
18998W        W35845   4.388   9.577  10.291 -0.0754 -0.1094  0.0625
18999W        W35846   8.490   8.054   3.666 -0.1501  0.0336 -0.0969
19000W        W35847  14.986  10.612   2.520 -0.2737  0.0115  0.3227
19001W        W35848   5.433   5.204   2.906  0.1883 -0.0741 -0.1878
19002W        W35849  13.535  18.480  10.340  0.0059  0.0243 -0.1818
19003W        W35850   2.497  17.397  10.802  0.0429  0.1151 -0.0757
19004W        W35851   3.193   6.590  12.964  0.1145 -0.1156  0.0683
19005W        W35852   9.339  15.073  11.529 -0.0705 -0.0629 -0.1503
19006W        W35853  16.751   2.384   0.749  0.0223  0.1175 -0.2077
19007W        W35854  14.354  12.668   3.642 -0.2849  0.1682  0.2615
19008W        W35855  15.082   4.689   3.718  0.2430 -0.2466  0.2216
19009W        W35856   4.564  12.042   4.183  0.1233  0.1826  0.3027
19010W        W35857  18.911  15.192   0.099  0.1425 -0.0216  0.0973
19011W        W35858   5.258  16.252  10.503  0.2234 -0.1455 -0.0963
19012W        W35859  11.497  12.615  11.512 -0.0646 -0.2271 -0.0171
19013W        W35860  17.481  12.076   3.841  0.1243 -0.2367  0.1093
19014W        W35861   9.542  13.060   4.807  0.0365 -0.0771 -0.2959
19015W        W35862   1.420  15.010   3.546  0.3554  0.0481 -0.3186
19016W        W35863   5.472  17.760  11.160 -0.0888  0.0208  0.1608
19017W        W35864   0.693   5.222   0.476  0.1846 -0.3490 -0.0281
19018W        W35865  10.907  17.354   4.098  0.0255 -0.0176  0.3019
19019W        W35866  18.589   6.755  11.214  0.0342 -0.0184  0.0265
19020W        W35867  13.391   5.380   0.214 -0.1409 -0.0320  0.1838
19021W        W35868  15.600   5.375   5.295 -0.1599 -0.1984  0.3289
19022W        W35869  14.526  13.582   2.711 -0.1754 -0.3762  0.1210
19023W        W35870   3.449   0.271   0.811  0.0384  0.0684  0.0574
19024W        W35871   1.265  18.598   1.004  0.2632 -0.0482 -0.0096
19025W        W35872  13.487  16.976   0.769  0.2431  0.2821 -0.0384
19026W        W35873   1.249   4.771  11.446 -0.1369  0.0229 -0.0870
19027W        W35874   5.624   2.448   4.533 -0.1537  0.0219  0.0692
19028W        W35875   6.759   8.511  10.972  0.2163  0.0747 -0.2432
19029W        W35876  10.016   6.612   0.783 -0.0109 -0.1131  0.0178
19030W        W35877   9.228  13.589  11.233  0.0347  0.1987 -0.0637
19031W        W35878   1.230  11.966   0.507 -0.3928 -0.0682 -0.1950
19032W        W35879  14.606   6.858  13.139 -0.1780  0.3673  0.2940
19033W        W35880   8.256   0.496  11.325 -0.2591  0.1135  0.2830
19034W        W35881  12.835  15.988   0.697 -0.1897 -0.0741 -0.2692
19035W        W35882  13.740   1.209  13.100 -0.1001  0.0436 -0.1149
19036W        W35883   4.618   2.040   0.115  0.0160 -0.0624 -0.2243
19037W        W35884   4.453   4.931  12.005 -0.2063 -0.0198 -0.0401
19038W        W35885   8.479   2.532   0.548  0.0710 -0.0783  0.1676
19039W        W35886  10.919  12.407  12.040  0.0168  0.0896 -0.0660
19040W        W35887   8.571  18.906   3.473 -0.0913 -0.1544 -0.2390
19041W        W35888  13.012  19.854   2.940  0.2516  0.3833  0.2487
19042W        W35889   3.010   0.752   2.215 -0.0938  0.0130  0.1961
19043W        W35890  18.685  12.634   0.248  0.0753 -0.2036  0.0141
19044W        W35891  14.909  17.203   9.457 -0.0296 -0.3416  0.1346
19045W        W35892  17.126   0.770   1.718  0.3019  0.2598 -0.3374
19046W        W35893  18.748  14.027   9.411 -0.1450 -0.0359 -0.0017
19047W        W35894   4.043   9.361   5.808 -0.1784  0.5119  0.0844
19048W        W35895   5.632   7.750  10.484  0.4894 -0.3971 -0.0640
19049W        W35896  18.197   8.377  13.909 -0.3703 -0.1712 -0.0797
19050W        W35897  14.719  10.885   3.905 -0.2431  0.1732  0.0211
19051W        W35898  18.402  10.089   5.516  0.0123  0.3050 -0.1145
19052W        W35899  19.470  15.281   3.796  0.0819  0.3359 -0.2100
19053W        W35900  18.480  11.761   0.133  0.0484  0.2225 -0.4408
19054W        W35901   6.827  15.073  13.260  0.2177 -0.2300  0.0700
19055W        W35902  16.802  16.212   4.266  0.0777  0.2498  0.0490
19056W        W35903   9.782   2.131  13.059  0.3115  0.0851  0.2298
19057W        W35904  12.824   7.069   3.044  0.2867 -0.0109 -0.0214
19058W        W35905   9.842  16.052  12.431  0.0820  0.0830  0.1131
19059W        W35906   9.387   9.116   4.067 -0.0082 -0.3801  0.1687
19060W        W35907   9.637   0.824   4.681  0.1700  0.1627  0.0678
19061W        W35908   0.410   1.414   2.759 -0.1485 -0.0926 -0.0805
19062W        W35909  17.966  10.954  12.423 -0.1392  0.1949  0.0144
19063W        W35910  10.975  17.845   1.380  0.1391 -0.2223  0.0930
19064W        W35911  12.795   5.671   5.324  0.1282  0.0034  0.0779
19065W        W35912  14.667  14.717   3.123 -0.1988 -0.0151  0.1845
19066W        W35913  18.759   9.214  14.093  0.1430  0.2150  0.2171
19067W        W35914   6.414   6.890   4.136 -0.1249  0.2395 -0.0507
19068W        W35915   2.888  18.416   3.051 -0.1414 -0.0497  0.4274
19069W        W35916   8.440  15.887   4.564 -0.1869  0.0807 -0.2382
19070W        W35917  10.551  15.893   0.813  0.0716 -0.0602 -0.2136
19071W        W35918   2.976   2.018  10.422  0.1615  0.0688 -0.0678
19072W        W35919  19.459   4.240  11.868 -0.0449  0.3314 -0.0394
19073W        W35920  12.071   4.771   0.938 -0.2423  0.3994 -0.0184
19074W        W35921   1.815   5.135   3.358 -0.2445 -0.2382 -0.1728
19075W        W35922   6.929   6.998   2.302  0.1486 -0.0990  0.1658
19076W        W35923   6.204  15.278   4.502 -0.3275 -0.0883  0.1991
19077W        W35924   7.442  13.519   4.383 -0.2950  0.2278 -0.0906
19078W        W35925  10.049  17.457   4.299 -0.3267 -0.0945  0.2354
19079W        W35926   0.929   3.811  11.753 -0.1731  0.0261  0.0861
19080W        W35927  19.152  13.429  10.787  0.2618  0.0731 -0.1251
19081W        W35928   4.945   9.023  12.622  0.1830 -0.1989 -0.1313
19082W        W35929  17.808  11.464   3.873  0.0594 -0.0185 -0.2682
19083W        W35930   1.392   6.953   5.310  0.5102 -0.3630  0.0240
19084W        W35931   1.716   8.774   0.297 -0.0459 -0.2624  0.0335
19085W        W35932  16.173  11.768   3.091 -0.0262  0.1159 -0.0119
19086W        W35933   8.773   3.936  12.402  0.0136  0.0533 -0.0161
19087W        W35934   4.996   4.798  12.016  0.3320  0.3581 -0.2205
19088W        W35935   9.589   8.360   5.261 -0.1128 -0.2338  0.0175
19089W        W35936  14.911  14.091  11.612 -0.1580 -0.1366 -0.1735
19090W        W35937   6.048   5.333  11.421  0.0508 -0.0282 -0.3329
19091W        W35938   2.828  14.410  10.345 -0.0709 -0.0532  0.0336
19092W        W35939   4.810   4.161   4.630 -0.0600  0.1420 -0.1458
19093W        W35940  13.078  19.652  12.446  0.0969 -0.1477  0.2439
19094W        W35941   5.631  13.725   2.976  0.3292  0.1678  0.2685
19095W        W35942  18.312   3.924  14.122  0.2624 -0.1210  0.2522
19096W        W35943   8.835  17.530   3.532 -0.0144 -0.1593  0.2760
19097W        W35944   1.789   8.241  12.521 -0.0951  0.0262  0.1958
19098W        W35945  10.607   9.019  12.471 -0.1161 -0.0539 -0.2234
19099W        W35946   4.916   9.956  12.934 -0.0464  0.0978  0.0827
19100W        W35947   1.121   2.648  10.538 -0.3817 -0.1918 -0.2745
19101W        W35948   8.113  16.655  12.053  0.1715 -0.1815 -0.2760
19102W        W35949  19.402   2.211   0.505 -0.1493 -0.0938  0.1974
19103W        W35950   2.147  13.203  13.996  0.1512 -0.0043  0.1975
19104W        W35951   3.099   3.677   1.617 -0.0945  0.1123  0.3387
19105W        W35952   1.392   5.488   2.932  0.1397 -0.1428  0.1541
19106W        W35953  13.236   3.545  12.511  0.0968  0.0936  0.2645
19107W        W35954   5.497  11.195  13.020  0.3302 -0.0824 -0.1063
19108W        W35955   7.115   8.560   2.273 -0.0908 -0.2054 -0.1261
19109W        W35956  17.806   5.819   0.465  0.1584  0.0154 -0.0983
19110W        W35957  16.814   1.807  12.968 -0.1169 -0.2556 -0.0984
19111W        W35958   0.284  17.361  10.425  0.1092 -0.1497 -0.0516
19112W        W35959   8.190  12.393   0.756  0.1908 -0.1064 -0.1993
19113W        W35960   1.489   5.026   1.629 -0.0166  0.1347 -0.3069
19114W        W35961   9.277  16.241  12.465 -0.3022 -0.2532  0.2781
19115W        W35962   6.539   9.671  12.655  0.0261 -0.0198 -0.0749
19116W        W35963  14.985   3.526  10.454 -0.2478 -0.1824  0.2777
19117W        W35964  15.684  17.768  11.402 -0.0226  0.1106  0.0993
19118W        W35965  11.567  10.298  13.283 -0.2183 -0.0147  0.0903
19119W        W35966  18.151  11.939  12.611 -0.0838  0.2321  0.0516
19120W        W35967  15.837  19.631  11.873 -0.0606  0.1118 -0.1281
19121W        W35968   5.012   4.024   3.544 -0.2282  0.2772  0.4444
19122W        W35969   1.315  13.109   3.729  0.0674 -0.1637  0.1218
19123W        W35970  18.380   0.420   5.262 -0.1142 -0.2467  0.0889
19124W        W35971  13.125  14.308   0.227  0.0554  0.0329 -0.1587
19125W        W35972   4.659   1.680  10.616  0.1408  0.1416  0.1897
19126W        W35973   5.950   5.069   2.536  0.1216 -0.2386  0.0100
19127W        W35974  18.885   1.822   1.272 -0.0404  0.1002  0.3877
19128W        W35975   9.830  11.688  10.659 -0.3490 -0.0081  0.2984
19129W        W35976   6.492   5.492   4.281  0.3556  0.1165  0.4242
19130W        W35977   5.802   3.089  10.287  0.2076  0.1383 -0.1491
19131W        W35978  13.955   9.248   2.224 -0.2789 -0.4952 -0.0598
19132W        W35979  10.485   2.919   4.205  0.0607  0.0697  0.1102
19133W        W35980  19.443  17.569   2.180 -0.0262  0.0234 -0.2920
19134W        W35981  10.152   3.281  11.862  0.1102  0.4254  0.1467
19135W        W35982  14.801  18.577  10.777  0.0296 -0.2455  0.0058
19136W        W35983   1.081   8.001   0.264  0.2248  0.0091 -0.1067
19137W        W35984  19.671  14.243   2.504  0.2512  0.1370  0.1400
19138W        W35985   3.621  12.715   1.026 -0.3747 -0.0534 -0.1671
19139W        W35986  17.649  16.150  13.535 -0.0828  0.1260 -0.1171
19140W        W35987  19.146  18.534  14.333 -0.0428  0.3102 -0.2473
19141W        W35988   4.419   3.678   2.342  0.1845  0.2221  0.2330
19142W        W35989  14.724  15.457  12.230 -0.1445  0.1195  0.0622
19143W        W35990   5.324   4.519   8.906  0.0634 -0.2323 -0.0888
19144W        W35991   9.327   5.979   8.570 -0.1555 -0.2291  0.1616
19145W        W35992   5.035   5.426  12.505 -0.1843  0.1439  0.2218
19146W        W35993   1.174  11.480   2.659 -0.0976  0.0860 -0.0886
19147W        W35994   6.692   1.638  11.886  0.0131  0.0978  0.2788
19148W        W35995  17.865  14.547   2.249  0.0858 -0.0486 -0.2840
19149W        W35996   5.210   0.741   0.330  0.0768  0.3221  0.2088
19150W        W35997   3.814   8.225  11.632  0.2183  0.3208  0.3369
19151W        W35998  14.390   8.701  11.234 -0.1458  0.0672 -0.3214
19152W        W35999  14.499  12.227   2.260 -0.0092  0.1037  0.0519
19153W        W36000  15.990  10.846   1.501 -0.2163 -0.3166 -0.0275
19154W        W36001  15.107   1.335   3.122  0.3855 -0.3198  0.0307
19155W        W36002  13.964  11.149  14.086  0.0117 -0.0401  0.0243
19156W        W36003   7.943  10.488   4.143 -0.3636 -0.0580 -0.2315
19157W        W36004   0.379  15.584   3.744  0.2592 -0.2115 -0.1988
19158W        W36005   3.443   4.220  11.877 -0.2335  0.1862 -0.0042
19159W        W36006  17.613  12.213  11.240 -0.0359  0.3089  0.2196
19160W        W36007  16.517  14.882   2.801  0.1501 -0.1238  0.2778
19161W        W36008   6.429   2.479   2.466 -0.1285 -0.2301 -0.0994
19162W        W36009   0.790  19.570   1.881  0.0883  0.2024 -0.2341
19163W        W36010  19.108   7.461  10.337  0.0215  0.1572 -0.1286
19164W        W36011  15.747   8.292  11.254  0.2306 -0.2289  0.1372
19165W        W36012  11.926   9.152   0.936 -0.1225 -0.0152 -0.1817
19166W        W36013   8.647   7.075   0.998  0.4271  0.2693 -0.3851
19167W        W36014   3.812  16.659  10.615 -0.1451 -0.1575 -0.2856
19168W        W36015  10.132  17.316  10.897  0.3450  0.0547 -0.3363
19169W        W36016  16.467   6.409  13.201  0.0574 -0.0112 -0.0263
19170W        W36017   2.757   3.332   2.805  0.1523 -0.0099 -0.3777
19171W        W36018  16.217  13.919  11.984  0.2939  0.1068 -0.4874
19172W        W36019  10.682   7.973  11.932 -0.1544 -0.1910 -0.1990
19173W        W36020  13.627  14.571  10.319 -0.2757  0.1885  0.0130
19174W        W36021  18.827  12.159   0.885  0.1218  0.0961 -0.0236
19175W        W36022   0.152  14.737  12.845  0.0904  0.0648  0.3156
19176W        W36023   9.975   6.319  13.860  0.2065  0.1387  0.2669
19177W        W36024   3.613   5.520  11.704 -0.3796  0.1792 -0.1378
19178W        W36025  19.055  16.754  13.198 -0.0696 -0.1144 -0.0643
19179W        W36026  14.200   3.753   4.964 -0.1563  0.0934  0.0313
19180W        W36027   4.584   9.468  11.796  0.4097 -0.2451 -0.2010
19181W        W36028   1.699  15.597   0.322 -0.0964  0.1763 -0.2256
19182W        W36029   6.175  12.580   1.335 -0.1783  0.0118  0.0536
19183W        W36030   8.789   7.575  12.424  0.1152  0.0836  0.4255
19184W        W36031   3.276   1.474  10.023 -0.3146  0.1300 -0.2103
19185W        W36032  19.118   3.782  10.668 -0.2420 -0.0995  0.3188
19186W        W36033   7.461  17.401   1.573 -0.0169  0.2012 -0.3526
19187W        W36034   3.730   6.784  12.074 -0.1127  0.1233 -0.0069
19188W        W36035  11.390  18.464   9.174 -0.2689  0.2574  0.0236
19189W        W36036  17.187   5.564   3.093  0.0641  0.2535 -0.0394
19190W        W36037   6.508  11.535  12.106  0.1031 -0.0286 -0.0928
19191W        W36038  17.994   8.912   1.123  0.0996  0.2340  0.0093
19192W        W36039  17.206  12.943  14.190 -0.0982  0.1845  0.0734
19193W        W36040   1.951  14.369   3.125 -0.0498  0.1806  0.2263
19194W        W36041   0.051   9.667   3.661 -0.2939  0.4157  0.0945
19195W        W36042   0.775   4.907   1.168 -0.0941 -0.0836  0.2183
19196W        W36043  18.531   1.260  12.192  0.0865  0.0203  0.1471
19197W        W36044   2.529  10.150   1.448 -0.0149 -0.2419 -0.1676
19198W        W36045  10.070   6.137   0.084 -0.0538 -0.2298  0.0222
19199W        W36046  16.256   8.875   1.733 -0.1053  0.2228  0.3963
19200W        W36047  16.530   1.443   2.849  0.0925 -0.0746  0.0456
19201W        W36048   7.967   4.925  14.095 -0.4660  0.0711 -0.1037
19202W        W36049   9.380  12.303  12.402 -0.0273 -0.0046 -0.0820
19203W        W36050   4.042   4.025   4.510  0.0700 -0.0178 -0.0231
19204W        W36051   7.775   8.612  12.532 -0.0613 -0.2717  0.2569
19205W        W36052   6.595   3.575  10.102  0.1040  0.2135 -0.3923
19206W        W36053  13.489  15.596   1.889  0.1060  0.0679  0.4140
19207W        W36054  10.875  11.722   1.095  0.0455  0.1701  0.3214
19208W        W36055  13.227  10.200  10.606  0.0580  0.0732 -0.3593
19209W        W36056  13.982  14.432  13.847 -0.3373 -0.1657  0.0746
19210W        W36057   5.203  16.486  12.761 -0.3373 -0.0523  0.0856
19211W        W36058   9.744  11.054   3.971 -0.1578 -0.4214  0.0283
19212W        W36059   7.604   3.342   0.224  0.4267 -0.0108 -0.2438
19213W        W36060  14.992  16.306   4.240  0.0395  0.1148 -0.0372
19214W        W36061   6.626  17.575   1.246 -0.2888  0.0704 -0.0297
19215W        W36062   5.993   4.693  11.942  0.2069 -0.3785  0.1746
19216W        W36063  12.651  12.047   2.584 -0.1295 -0.0664 -0.0913
19217W        W36064   4.161   0.748   0.227 -0.2541  0.0347  0.0753
19218W        W36065  16.395  13.129  12.241 -0.1275 -0.0198 -0.2357
19219W        W36066  10.924  15.229   3.849 -0.2713 -0.0386 -0.0329
19220W        W36067  16.400   1.177   0.737 -0.2479 -0.1244  0.0692
19221W        W36068  12.556   0.853   4.255 -0.3468 -0.2061 -0.0707
19222W        W36069  16.260  16.772   3.429  0.0313 -0.1407 -0.0238
19223W        W36070  19.864  19.061   3.770 -0.1282 -0.1923 -0.4066
19224W        W36071   6.219  10.765   1.248  0.2410 -0.1322 -0.1346
19225W        W36072   9.065  18.591  13.081  0.1103  0.1505  0.0877
19226W        W36073  16.571  14.253   3.528  0.2515  0.2169 -0.2059
19227W        W36074  15.030  11.815   9.815 -0.2062 -0.1649  0.1486
19228W        W36075  11.252   8.228   1.159  0.0831  0.2197  0.0265
19229W        W36076  18.564   6.492   3.965 -0.0913 -0.2020  0.1672
19230W        W36077   9.122  19.306   4.353  0.2495 -0.5953  0.0924
19231W        W36078  16.238  13.525  13.124 -0.0872  0.2341 -0.1306
19232W        W36079   5.732   1.464   4.768 -0.3052 -0.2765  0.0911
19233W        W36080  10.212  14.632   2.635 -0.0058 -0.0368 -0.0332
19234W        W36081  16.186  17.722   5.512  0.0188 -0.2999 -0.2346
19235W        W36082   0.552   3.721   4.401 -0.0288  0.0463  0.2228
19236W        W36083  15.776  12.863   5.017 -0.0962  0.0096  0.2825
19237W        W36084  16.981   2.512   3.861  0.1817  0.2594  0.2297
19238W        W36085   9.633   5.686   2.644 -0.1221  0.0302 -0.2631
19239W        W36086  13.668   7.860   3.756  0.3618  0.0346 -0.1834
19240W        W36087  14.595  10.783   2.773  0.0558 -0.1563 -0.0656
19241W        W36088  10.385  11.558   0.784 -0.1083  0.1181  0.1108
19242W        W36089   9.631  13.186   1.989 -0.0661  0.2656 -0.1577
19243W        W36090   6.653   4.067   1.375 -0.1795  0.0667  0.0329
19244W        W36091   4.304   3.570   4.414 -0.0063 -0.1065 -0.1608
19245W        W36092  16.725  18.827  12.880 -0.1183 -0.1250 -0.0124
19246W        W36093  18.529  12.276  14.264 -0.0291 -0.1267  0.0311
19247W        W36094  10.216   5.467  10.551  0.0518 -0.0991  0.1213
19248W        W36095  19.208  10.879   3.058 -0.1553  0.0489  0.3625
19249W        W36096  15.176   1.763   1.424 -0.0687 -0.2931 -0.3072
19250W        W36097  19.085   5.587  11.877 -0.1329 -0.1365  0.0763
19251W        W36098  13.458  19.827   4.243  0.0432 -0.1912 -0.1946
19252W        W36099   5.749   9.892   2.692  0.3120  0.1992  0.0108
19253W        W36100   9.572   1.721   3.800  0.2163 -0.1314 -0.0917
19254W        W36101   2.621  15.946   0.475 -0.0600  0.2739 -0.1223
19255W        W36102   2.323  16.785   3.019  0.0595  0.1495  0.5118
19256W        W36103   7.967  10.819   2.271  0.0399 -0.1875  0.3193
19257W        W36104   7.882   9.528   5.398 -0.1964  0.1443  0.0100
19258W        W36105  17.639   8.339  12.926  0.0052  0.2911  0.1363
19259W        W36106   6.236  16.645   0.380 -0.0219  0.2682 -0.0536
19260W        W36107   6.173   6.533   3.240 -0.1274 -0.0901  0.1543
19261W        W36108  13.804  10.888  13.449 -0.2086 -0.2325 -0.3790
19262W        W36109  11.771   8.530  11.544 -0.1282  0.1730  0.0004
19263W        W36110   0.028   9.260   4.584 -0.1408 -0.0926  0.0482
19264W        W36111  19.565  12.336   2.622  0.1139 -0.0097  0.1972
19265W        W36112   0.859  17.066  11.684  0.0197  0.1554 -0.1028
19266W        W36113   2.196  18.491  14.011 -0.1474 -0.0015  0.0727
19267W        W36114  12.289   0.094  11.736 -0.2569 -0.1134  0.0539
19268W        W36115   1.131  17.889  10.039 -0.2389 -0.3110  0.1370
19269W        W36116  16.300   5.253  12.157 -0.2183 -0.1857 -0.1410
19270W        W36117  19.203   3.952  11.522 -0.0799  0.0913  0.2461
19271W        W36118   8.986   5.522   3.395 -0.0796  0.0341  0.1908
19272W        W36119  13.997  14.527   0.511 -0.2646 -0.3150 -0.2834
19273W        W36120   4.219   9.034   3.546  0.0212 -0.0776 -0.0002
19274W        W36121  10.980  11.469   1.657  0.0438 -0.2359 -0.2901
19275W        W36122   5.146   9.722   3.502  0.0995 -0.4048  0.2091
19276W        W36123   7.609   7.737  13.073  0.2195  0.1413 -0.1472
19277W        W36124  18.282  19.585  13.845  0.0805 -0.2210  0.0037
19278W        W36125   4.878  13.221   0.550 -0.0279 -0.0023  0.1526
19279W        W36126   7.870  17.807  11.998 -0.0518 -0.1207  0.2236
19280W        W36127  14.097   0.835   0.572 -0.0045 -0.1222  0.0240
19281W        W36128   1.967  16.918   1.690  0.0750 -0.2536  0.0168
19282W        W36129   8.306  17.027  10.521  0.0216 -0.0661 -0.1334
19283W        W36130  16.254   9.820   1.054  0.0436 -0.0640  0.1921
19284W        W36131  18.842   9.236   0.679 -0.0418 -0.2838  0.2958
19285W        W36132  15.591   1.125   1.895 -0.0955  0.0940 -0.1040
19286W        W36133  10.666  19.680  11.535  0.2467 -0.0770  0.1385
19287W        W36134   4.025   9.679   3.834  0.0620 -0.3860  0.0857
19288W        W36135  18.148   7.256   4.707 -0.1262 -0.3005  0.1102
19289W        W36136   2.912   5.637  11.256  0.1593 -0.2098  0.0944
19290W        W36137   6.888   3.543  12.086  0.1405  0.2510  0.1021
19291W        W36138   7.726  14.743   9.336  0.2844  0.3639  0.0226
19292W        W36139   3.681  12.564   4.089  0.1309  0.0775 -0.0756
19293W        W36140   0.031  11.304   2.086 -0.0302  0.1950  0.0416
19294W        W36141  14.498  13.702  12.506 -0.3210 -0.0181  0.0760
19295W        W36142   4.009  16.537  11.123  0.1713 -0.1862 -0.1630
19296W        W36143  18.253  17.248  12.763 -0.2050 -0.0848  0.0811
19297W        W36144  16.653   4.849  11.137 -0.2330 -0.0061  0.1022
19298W        W36145  14.932  13.723  13.000 -0.0987 -0.0702  0.2682
19299W        W36146  10.796   1.945   5.073 -0.2642 -0.0967  0.1714
19300W        W36147  10.385   7.512  11.793 -0.2966  0.2136  0.3312
19301W        W36148   1.325  14.466  13.172 -0.3546 -0.0202  0.0217
19302W        W36149  17.253  12.281   2.565 -0.0152 -0.2513  0.2232
19303W        W36150   6.988  16.820   1.238 -0.1643 -0.1921  0.1875
19304W        W36151  13.377  15.910  12.152 -0.2834 -0.0550 -0.0142
19305W        W36152  12.410  16.108   2.757  0.0273  0.0217 -0.0852
19306W        W36153  17.885  13.857   3.840  0.1104 -0.1052 -0.1391
19307W        W36154   9.404   8.810   2.197 -0.0663 -0.1302  0.0826
19308W        W36155   1.640  14.573   2.800 -0.4219  0.2411  0.2629
19309W        W36156  16.727  12.805  10.997 -0.2318 -0.2475  0.2338
19310W        W36157   9.969  17.302   0.723  0.3109 -0.1138 -0.1667
19311W        W36158  19.707   0.367  13.032 -0.0155 -0.1830  0.1228
19312W        W36159   4.448   2.961  12.816  0.0214  0.1626  0.0032
19313W        W36160  16.958   4.994   1.336 -0.2145  0.1398 -0.1220
19314W        W36161  11.215  12.416   0.523  0.2213 -0.1238  0.0826
19315W        W36162  17.636  16.015   2.720  0.0948 -0.2040  0.1112
19316W        W36163  10.795  19.670  12.137 -0.0617 -0.1029 -0.1967
19317W        W36164   0.002   7.756  13.122 -0.1180 -0.3362 -0.2232
19318W        W36165  11.892  16.309  11.600 -0.0581 -0.1472  0.0233
19319W        W36166   6.464  14.933  11.856 -0.1939  0.2149 -0.1121
19320W        W36167  18.339  18.889   3.597  0.0592  0.3252 -0.1959
19321W        W36168   3.294   3.624   5.270 -0.3744  0.0027  0.0551
19322W        W36169   6.199   5.044  10.969  0.2892  0.2960 -0.3163
19323W        W36170  13.499  10.886   0.481 -0.1028  0.2217 -0.0583
19324W        W36171  17.758  12.640  12.407  0.0789  0.1276 -0.3291
19325W        W36172   9.026  17.972   3.683  0.0382  0.3055  0.1160
19326W        W36173   7.087  11.275  14.130 -0.0164  0.0232  0.4931
19327W        W36174   2.199  19.449  13.613 -0.2484  0.1913 -0.1664
19328W        W36175   0.629   2.669   2.876 -0.0817  0.1988  0.1988
19329W        W36176   5.430   2.855  13.725 -0.0889 -0.1369 -0.0263
19330W        W36177  11.195  15.053   3.237 -0.0512 -0.0504 -0.1506
19331W        W36178   2.804  17.944   3.172 -0.1923  0.0684 -0.4291
19332W        W36179  18.208  17.558   1.344  0.0687  0.0384  0.2455
19333W        W36180   5.237  17.106   3.649  0.0260  0.0029 -0.0607
19334W        W36181  11.567  15.525  10.736 -0.3934 -0.0982  0.2456
19335W        W36182   5.359  19.064   3.221 -0.2337 -0.1269  0.1406
19336W        W36183  13.874   5.655  12.147 -0.2518 -0.2763  0.4805
19337W        W36184  14.089  10.990  10.060 -0.1499  0.1548 -0.1134
19338W        W36185   1.662   9.572  11.081 -0.1818  0.1215 -0.0999
19339W        W36186   3.875  17.718  11.779  0.0416 -0.0971 -0.1151
19340W        W36187  15.596  19.194  11.681  0.2528 -0.0157 -0.1284
19341W        W36188  15.774  19.517   0.674 -0.0406  0.2801 -0.1927
19342W        W36189  18.949  11.213   3.436 -0.4146  0.0981  0.0657
19343W        W36190  13.857  16.660   2.655  0.1989 -0.2620 -0.4765
19344W        W36191  16.019   4.652   4.299 -0.0282  0.2948 -0.2070
19345W        W36192   9.440   5.264  11.171 -0.2224 -0.2024  0.0115
19346W        W36193  13.643   1.050  11.443 -0.0943 -0.1506  0.0954
19347W        W36194  19.782   3.991   0.129  0.1161 -0.0842 -0.1062
19348W        W36195  13.776  13.151  13.206 -0.2185 -0.1629  0.0608
19349W        W36196  11.267   5.163   0.127  0.5481  0.1572 -0.2029
19350W        W36197  11.638   5.057  10.461  0.1203  0.3663  0.0330
19351W        W36198   6.843  11.833   4.402  0.0682 -0.0426  0.1017
19352W        W36199   6.632   5.279  12.338  0.1868 -0.1360  0.1359
19353W        W36200   0.838   4.233   2.714 -0.2631  0.0460  0.2976
19354W        W36201  12.524   8.230  11.508 -0.0714  0.0819  0.0351
19355W        W36202   4.859   2.721   2.867  0.1568  0.0882 -0.1238
19356W        W36203  12.978  12.281  11.001 -0.0239 -0.2917 -0.0278
19357W        W36204  14.791  11.608   2.036  0.2856  0.1077  0.0764
19358W        W36205  15.852   7.048  12.129 -0.1262 -0.0142  0.3785
19359W        W36206  10.561  17.537   2.281  0.0276  0.4318 -0.1344
19360W        W36207   8.388   3.358   4.310 -0.0844 -0.1903  0.3913
19361W        W36208  10.539   3.179   1.537  0.2161 -0.0699  0.4327
19362W        W36209   1.279  14.844   1.123  0.1077 -0.3152 -0.0823
19363W        W36210  12.540   4.608  12.929 -0.0459 -0.2531  0.1451
19364W        W36211  11.824  17.769  10.324 -0.0048  0.1524  0.2436
19365W        W36212  17.909  15.608   3.004 -0.3415 -0.1847 -0.2768
19366W        W36213  14.478  15.429   3.413  0.1234 -0.1549 -0.1908
19367W        W36214  19.650   5.540  12.058  0.2098  0.0230  0.2463
19368W        W36215  14.753  12.960   2.861 -0.1962  0.4213 -0.0817
19369W        W36216   3.072  19.483   4.365 -0.0530 -0.0876  0.0519
19370W        W36217   6.259  18.617  13.298  0.2207 -0.0423  0.0722
19371W        W36218   3.579   6.831   2.516 -0.2011 -0.2694  0.1041
19372W        W36219   9.280  17.534  11.795 -0.0405 -0.2334  0.0439
19373W        W36220   9.361  14.535   1.050  0.0197  0.1646 -0.0078
19374W        W36221  17.894   3.077  13.666 -0.0383  0.2353  0.4125
19375W        W36222  13.439  11.515   1.693 -0.2853 -0.2831 -0.1280
19376W        W36223   4.859   9.254  14.014  0.3977  0.3919  0.2463
19377W        W36224   6.163   7.946   1.284  0.1601  0.1144 -0.1640
19378W        W36225   1.599   2.344   4.031 -0.1122 -0.0537 -0.0928
19379W        W36226   5.456   8.330   0.525 -0.0848 -0.1046 -0.0563
19380W        W36227   8.545   9.254   9.850  0.1346 -0.3584 -0.0644
19381W        W36228  18.200  13.633  14.001 -0.1380  0.1814 -0.0447
19382W        W36229  13.766   7.812  11.885 -0.0885  0.0283 -0.1081
19383W        W36230  11.935  12.312   0.324  0.3827 -0.0662 -0.1064
19384W        W36231   3.109   7.897   5.399  0.0864 -0.3128 -0.0515
19385W        W36232  15.540   4.313   0.226 -0.2748 -0.0201  0.3142
19386W        W36233   9.236   2.736  10.001 -0.0726  0.1991 -0.3578
19387W        W36234  13.840  15.685  12.412  0.0845 -0.3595 -0.1079
19388W        W36235   0.097   3.476   4.322 -0.0788  0.3011  0.1077
19389W        W36236  19.700   4.817  12.182  0.1210 -0.3500  0.1414
19390W        W36237   6.756   6.434   0.982  0.0025  0.0892 -0.1724
19391W        W36238  19.056  19.675   4.657 -0.2386 -0.1065  0.1617
19392W        W36239  11.978  18.725   3.905 -0.2339 -0.2580 -0.0500
19393W        W36240   3.923  16.284   3.300 -0.2012 -0.0496 -0.0526
19394W        W36241   6.380   1.081  10.992 -0.0032  0.2011 -0.2355
19395W        W36242  10.297  13.369  14.183 -0.3117 -0.1446 -0.1716
19396W        W36243   6.436  15.104  10.787  0.2619  0.1239 -0.5011
19397W        W36244   0.914  11.916  13.167  0.0710 -0.0772  0.0524
19398W        W36245  16.664  15.612   2.737 -0.0210  0.0870 -0.0032
19399W        W36246  11.869   6.874  12.909 -0.4158 -0.1288 -0.3126
19400W        W36247   7.838  15.109   9.692  0.0480 -0.0971 -0.0353
19401W        W36248   4.905  19.135   2.393 -0.3252  0.0460 -0.0530
19402W        W36249  10.920  19.693  12.744 -0.0379  0.3386  0.2074
19403W        W36250  13.209   9.144   1.233  0.1727  0.0899 -0.2282
19404W        W36251  19.164   2.729  10.197 -0.0821 -0.0825 -0.0057
19405W        W36252   7.823  14.788   3.230  0.0087 -0.2065 -0.1993
19406W        W36253  14.119   1.775  12.922 -0.0781 -0.1771 -0.1043
19407W        W36254  12.579  11.378   1.659  0.0594 -0.0411 -0.0147
19408W        W36255  13.216   7.703   0.417  0.1870 -0.0058 -0.2840
19409W        W36256  14.625  16.183   3.830 -0.2478 -0.0564  0.2331
19410W        W36257   3.974   3.676   2.745 -0.0679 -0.2345 -0.0736
19411W        W36258  17.398   0.527  10.110 -0.0570  0.1149 -0.1666
19412W        W36259  13.668   0.644   2.917  0.1994  0.2085 -0.1123
19413W        W36260   3.080   4.745   0.877  0.1679  0.1925  0.1012
19414W        W36261   3.021  10.663   4.515  0.0247 -0.1157 -0.1281
19415W        W36262  17.228   4.145  12.381 -0.2076 -0.0301 -0.0291
19416W        W36263  19.696   6.290   4.382 -0.4539  0.0470  0.1212
19417W        W36264  16.037  15.998   4.062 -0.1532  0.1613  0.2717
19418W        W36265   6.944   0.783   2.742  0.1577  0.2364 -0.0396
19419W        W36266   8.632  16.855   2.998  0.1411 -0.1297  0.5187
19420W        W36267   1.351  16.149  12.902 -0.1174  0.1307 -0.0614
19421W        W36268  13.571   8.836   1.305  0.3213  0.1889  0.0987
19422W        W36269  17.092   8.472   4.542 -0.2937 -0.1458  0.1292
19423W        W36270   6.180   2.748   0.684  0.2185  0.0273  0.0679
19424W        W36271  11.740   6.127  13.861  0.2020  0.0844  0.5550
19425W        W36272  18.532  14.029   2.075  0.0900 -0.1325  0.1643
19426W        W36273   3.657   6.427   1.092 -0.0838  0.0846 -0.2112
19427W        W36274  12.965  15.979   2.729  0.2951  0.1667 -0.2645
19428W        W36275  17.170  11.626   0.260  0.1741  0.3046  0.4827
19429W        W36276   3.389  17.226   4.926  0.1254  0.1183 -0.1494
19430W        W36277  18.418  16.116   5.152  0.3657  0.2487 -0.1739
19431W        W36278   8.900   8.823   4.266 -0.0117  0.1524  0.1422
19432W        W36279  19.451   1.122  12.233 -0.1798  0.0586 -0.3035
19433W        W36280   2.372   8.113  11.310  0.1674  0.3215 -0.2310
19434W        W36281  15.419  11.044   5.067 -0.3495  0.2079 -0.2135
19435W        W36282   0.675   6.151   4.649 -0.2042 -0.1519  0.0015
19436W        W36283   8.377  17.109   1.549 -0.0421  0.1107 -0.3835
19437W        W36284  19.807  11.446  14.154 -0.1490 -0.1993 -0.1831
19438W        W36285  14.928   8.757   2.084 -0.0367 -0.0445 -0.2637
19439W        W36286  10.637   9.821  13.517 -0.2220 -0.1293  0.2624
19440W        W36287  12.420  17.753  13.774  0.1673  0.3608  0.3575
19441W        W36288   9.924   0.730   5.292  0.1207  0.0928 -0.1168
19442W        W36289   7.998  16.279   3.205 -0.0126 -0.0662 -0.0017
19443W        W36290  19.422   6.536   0.596  0.1444  0.0032 -0.1077
19444W        W36291  14.951   3.206  14.084  0.0728 -0.1150 -0.0243
19445W        W36292  19.014   9.823   3.341  0.1713  0.1596 -0.0822
19446W        W36293  12.013   1.614   2.076  0.1201  0.0823  0.1804
19447W        W36294   6.061  15.744   3.580  0.0202 -0.1126  0.1433
19448W        W36295   3.819  10.823   0.884 -0.2223  0.1881  0.5390
19449W        W36296   8.438  10.329   4.714  0.0696  0.1389 -0.4613
19450W        W36297   0.096   9.623  13.760 -0.0276 -0.1312 -0.4879
19451W        W36298  11.413  16.645  10.150 -0.0863  0.2152  0.0423
19452W        W36299  15.090  13.157  13.892  0.2662 -0.0172 -0.0623
19453W        W36300  10.477   0.013  12.854 -0.6199  0.1971 -0.1332
19454W        W36301  13.702   8.104   2.665 -0.0970  0.0152 -0.0379
19455W        W36302   9.114   6.950  10.715  0.1891  0.0599  0.1521
19456W        W36303  10.331   8.190   0.923  0.0133  0.0225 -0.3081
19457W        W36304   6.301  12.511   3.828 -0.3224  0.0820 -0.5045
19458W        W36305  13.790   3.268  12.654 -0.1572 -0.1690 -0.1104
19459W        W36306   8.727  10.574   1.707 -0.1647 -0.3425 -0.2823
19460W        W36307   1.183   3.318   2.586  0.2596 -0.2370  0.1050
19461W        W36308   1.002   8.948  12.944  0.1108  0.0611  0.1420
19462W        W36309  14.080   2.022  13.380 -0.0548 -0.0974 -0.1761
19463W        W36310  15.271   9.202  11.934 -0.2157  0.2088  0.0698
19464W        W36311  18.003   2.040   1.411 -0.1456  0.1250 -0.0106
19465W        W36312   7.727  18.798   1.976 -0.1644  0.1665  0.2288
19466W        W36313  12.941  18.407  10.409  0.1018  0.2520 -0.1074
19467W        W36314  10.189   0.438   3.865 -0.0292 -0.0218  0.3350
19468W        W36315   9.037  19.573   4.841  0.2338  0.0456  0.2448
19469W        W36316  17.084  13.098  12.751 -0.0261  0.1015  0.0041
19470W        W36317   1.247   8.454  13.512 -0.1442 -0.1087 -0.1234
19471W        W36318   1.164   8.569   4.314 -0.0768 -0.0416  0.0230
19472W        W36319  13.846  15.572   0.867 -0.0793  0.0365  0.1485
19473W        W36320   3.133   1.325   2.698 -0.0866 -0.0661  0.2163
19474W        W36321   3.047  14.918   0.805 -0.0321  0.4462 -0.1871
19475W        W36322  16.598   6.806   2.857 -0.0347 -0.3146 -0.2210
19476W        W36323  15.622  17.931   4.321  0.0619 -0.1842  0.0579
19477W        W36324  16.159   0.976   4.602 -0.2828 -0.1443  0.3294
19478W        W36325   1.525   6.989  11.465  0.0990 -0.1401 -0.1780
19479W        W36326  11.610  15.188  12.975  0.0001 -0.1689 -0.3081
19480W        W36327  12.085  18.532  11.380 -0.0310  0.2848  0.0049
19481W        W36328   6.663  16.986  11.204 -0.3724 -0.0658  0.2086
19482W        W36329  13.932  18.163   3.029  0.1953  0.0974  0.0864
19483W        W36330  14.598   8.186  12.069 -0.1139  0.1482 -0.2421
19484W        W36331  10.462  16.846  13.469  0.1564 -0.1325  0.3523
19485W        W36332   7.120  14.792  11.927 -0.0429  0.3860 -0.1865
19486W        W36333   0.692  15.543  12.851  0.1053 -0.2167 -0.4077
19487W        W36334  14.094  17.179   2.862  0.0993 -0.1396 -0.0965
19488W        W36335   8.742   9.901  11.793 -0.2445 -0.1020 -0.1715
19489W        W36336  19.664  17.917  12.047 -0.5517  0.0863 -0.3442
19490W        W36337  19.089  10.447   3.455 -0.3892  0.0221 -0.3330
19491W        W36338  19.116  10.687   5.399 -0.0186 -0.1273 -0.0641
19492W        W36339   7.377  12.105   1.565 -0.2634 -0.0804  0.2689
19493W        W36340  13.850   8.019  13.414 -0.0590  0.1423  0.3121
19494W        W36341  18.510  12.513   4.237 -0.1210 -0.0876 -0.3789
19495W        W36342   1.438  15.693   1.379 -0.0392 -0.1685  0.0038
19496W        W36343  15.040  18.366   2.633 -0.2432  0.0370 -0.0564
19497W        W36344  10.248   9.680   0.638 -0.4157 -0.0693  0.2528
19498W        W36345  17.664   2.531   1.610  0.0687  0.0479 -0.2361
19499W        W36346   0.158  15.124  10.193 -0.1105 -0.0922  0.1378
19500W        W36347   2.649   8.949   3.348 -0.3355 -0.1574  0.0644
19501W        W36348  13.672  14.111   3.729 -0.0922  0.0025  0.2713
19502W        W36349   1.150   6.536  13.283 -0.1078  0.4527 -0.0464
19503W        W36350   1.944   0.080  14.161  0.2209  0.2800 -0.2037
19504W        W36351  13.537  15.982  11.664 -0.0013  0.1788  0.0331
19505W        W36352  14.853   4.221   3.652  0.0717 -0.1738  0.1071
19506W        W36353  12.014   4.046  12.301 -0.4172 -0.2140  0.3202
19507W        W36354   0.023  12.957  12.929  0.0570  0.1283 -0.1621
19508W        W36355   4.644  14.912   2.761  0.0156 -0.2230 -0.1049
19509W        W36356  18.311   1.047   5.177  0.1202  0.4557  0.0292
19510W        W36357   1.388   5.083   2.402 -0.2413  0.0658  0.3768
19511W        W36358   6.770  13.544  14.095  0.0451 -0.0058 -0.1927
19512W        W36359   5.222  12.824  14.128  0.0122  0.1353  0.0095
19513W        W36360  19.151   5.568   0.959  0.3821 -0.2584 -0.1324
19514W        W36361  12.415   6.566  12.125 -0.0549 -0.0665  0.2168
19515W        W36362   5.735   1.281   2.703 -0.0682  0.0935 -0.4988
19516W        W36363  11.423  13.059   1.451 -0.1564  0.3685 -0.0084
19517W        W36364   8.122   7.160  10.914 -0.3594 -0.0233  0.1358
19518W        W36365   5.133   4.396   2.315  0.2436 -0.2419  0.5458
19519W        W36366  18.077  10.920  13.563  0.1622 -0.4413 -0.1087
19520W        W36367   8.826   2.906  11.312  0.0196  0.0374 -0.2485
19521W        W36368   1.764   0.332   3.243  0.1771  0.0977 -0.2589
19522W        W36369   3.202   0.498   1.782 -0.0805  0.0038 -0.0586
19523W        W36370  12.417   7.341   4.340  0.0814 -0.1845  0.1770
19524W        W36371   5.887  15.134  10.930  0.2059 -0.1132 -0.0792
19525W        W36372   0.249   2.888  13.221  0.0376 -0.2150  0.0117
19526W        W36373  11.720  10.166  11.223 -0.0159 -0.2855  0.1029
19527W        W36374  12.746  18.805  11.628  0.0728 -0.0827  0.2296
19528W        W36375   7.120   4.873   2.212 -0.1881 -0.3388 -0.0523
19529W        W36376  10.770   7.474  12.210 -0.4390  0.0138 -0.0742
19530W        W36377   0.651  17.121   4.366 -0.0929 -0.3101  0.1332
19531W        W36378   3.635  15.348  12.251  0.0205  0.0785 -0.1505
19532W        W36379  18.258  11.813   4.723  0.1054  0.0421 -0.1840
19533W        W36380  13.827  17.039   1.802  0.0512 -0.2360 -0.3442
19534W        W36381  16.862  10.463  11.119  0.0216 -0.0226 -0.1406
19535W        W36382   5.475  14.182  13.279 -0.2642  0.0638 -0.0253
19536W        W36383  12.478  13.813   5.076 -0.0343 -0.0981 -0.3541
19537W        W36384  10.768  16.675   4.734  0.0883 -0.1173  0.1480
19538W        W36385   2.843   4.861   1.880 -0.3012  0.1942  0.2381
19539W        W36386  16.844  15.303  12.122  0.0987  0.0563  0.1112
19540W        W36387  16.549  19.876  10.018 -0.2230 -0.2083  0.2233
19541W        W36388  11.776  11.699   2.152  0.0014  0.1320  0.0380
19542W        W36389  15.558  14.186  11.701  0.0426  0.0194  0.0073
19543W        W36390  18.650  15.388   0.820  0.1706 -0.3138  0.0688
19544W        W36391  13.194  14.822   0.295  0.1850  0.4374  0.0479
19545W        W36392   2.699   1.659  12.331  0.0738  0.2995 -0.1406
19546W        W36393   5.407   5.002  10.637 -0.1714  0.2670 -0.0582
19547W        W36394  17.039  19.160   1.185  0.1334  0.0285 -0.2212
19548W        W36395  17.708  19.887   4.610  0.0155  0.0221  0.1149
19549W        W36396  18.765  12.963  10.656 -0.3467 -0.0167 -0.2375
19550W        W36397  11.860   7.544  13.696  0.1589 -0.1185  0.1687
19551W        W36398   5.396  10.586  11.298 -0.0138 -0.0180 -0.2786
19552W        W36399  15.182  14.706   9.085  0.1734 -0.0437 -0.0801
19553W        W36400  17.654  17.585   4.975  0.1548 -0.2364 -0.1259
19554W        W36401   2.675  17.459   0.517 -0.0802  0.1201 -0.2366
19555W        W36402   7.812   5.586   3.181  0.1238 -0.1808 -0.0013
19556W        W36403  17.065   5.123   2.517  0.1810 -0.1275  0.0888
19557W        W36404  14.612  18.034   3.223  0.5914  0.4842 -0.0780
19558W        W36405   6.095   8.016  10.819 -0.0045 -0.2604 -0.1794
19559W        W36406  11.735   5.124   0.759 -0.0764  0.1491 -0.0328
19560W        W36407   2.311  17.873   0.451  0.2466 -0.2497 -0.0713
19561W        W36408  17.659   5.501   4.545 -0.1220 -0.1796  0.2778
19562W        W36409   9.373  15.016   3.542 -0.3333  0.2484  0.0363
19563W        W36410   5.179  14.166   9.936  0.0207 -0.0023 -0.1077
19564W        W36411   5.097  15.902   3.950 -0.1685  0.0858  0.2492
19565W        W36412   5.616   5.768  11.498 -0.2885  0.1683 -0.0767
19566W        W36413   6.411   1.571   2.139  0.1161 -0.1353 -0.2100
19567W        W36414  15.079   4.888   0.806  0.2702  0.1983 -0.0105
19568W        W36415  12.685   7.327  12.293 -0.1717 -0.3824 -0.0108
19569W        W36416   5.828  15.344   2.494 -0.0135  0.1454  0.2561
19570W        W36417   0.096   7.130  11.234 -0.0396 -0.0319  0.0616
19571W        W36418  15.992   4.287  12.195  0.1341 -0.0909 -0.0719
19572W        W36419  10.368   9.775   1.113 -0.2670  0.2830  0.0213
19573W        W36420  14.296   6.050  11.303 -0.2651  0.1899  0.0578
19574W        W36421  17.901  10.469   0.159  0.1121  0.2083  0.2518
19575W        W36422  14.193   0.486   3.404 -0.1634  0.1112  0.1328
19576W        W36423  13.842  18.404  10.785  0.3149 -0.0173  0.0704
19577W        W36424  16.254   1.743  13.087 -0.0525 -0.0232 -0.0106
19578W        W36425   0.941  11.094  12.570  0.0333  0.3830 -0.0320
19579W        W36426  19.816  13.927   3.255  0.1769  0.0820 -0.1124
19580W        W36427  13.799   6.540  10.717  0.0279  0.1181 -0.3807
19581W        W36428   5.238   7.388   3.342 -0.0986  0.0815  0.1597
19582W        W36429   9.951  10.588   0.024  0.0860  0.0373 -0.3485
19583W        W36430   2.807  15.071   3.479 -0.1236  0.2563 -0.1021
19584W        W36431   7.318   5.750  13.856  0.1481 -0.1923  0.1364
19585W        W36432  16.418  16.931  10.151 -0.0732 -0.1991 -0.0144
19586W        W36433  16.132   1.291  12.572 -0.0953 -0.0497  0.4179
19587W        W36434  16.390   1.322  10.740 -0.3942 -0.0161  0.0675
19588W        W36435  10.579  15.001   1.139  0.0531 -0.0367  0.0082
19589W        W36436   1.793   1.599  12.641 -0.2475 -0.1971  0.2343
19590W        W36437  15.073  13.140   0.570  0.0324 -0.0885  0.2747
19591W        W36438   4.863   2.871  12.432  0.2010  0.0418  0.0496
19592W        W36439   2.273   3.410   2.679  0.0042 -0.2365  0.0295
19593W        W36440  19.420   2.730  13.627  0.0361 -0.0796 -0.1819
19594W        W36441   9.182  19.653   0.903  0.2614 -0.0843 -0.4026
19595W        W36442   7.761   0.656   3.966  0.1387  0.1399 -0.0684
19596W        W36443   6.597  10.848   2.205  0.2005  0.1988 -0.0314
19597W        W36444  12.241   4.200   3.565 -0.1109  0.0981  0.1018
19598W        W36445   6.916  19.817   1.303  0.1341 -0.1720  0.0309
19599W        W36446   9.695   2.857   2.696 -0.1231  0.2543  0.0024
19600W        W36447   5.246  10.545   4.735 -0.0082 -0.1259 -0.0071
19601W        W36448  13.671   9.264   5.076 -0.0515 -0.0274  0.0125
19602W        W36449   5.631   3.131  10.818 -0.1724 -0.1586 -0.2362
19603W        W36450   7.166  11.727  13.930 -0.2081  0.0870 -0.0335
19604W        W36451   1.565   9.953   1.917  0.3209 -0.1067  0.1600
19605W        W36452   7.476  19.068   3.902  0.1967 -0.1723  0.1676
19606W        W36453   1.928  14.763  11.943  0.0021 -0.1926  0.0496
19607W        W36454  12.792   2.689   9.165 -0.2586 -0.2032 -0.3469
19608W        W36455  16.625  12.177  11.027  0.2402 -0.2605  0.2001
19609W        W36456  19.251   7.567   2.934  0.4585  0.1595 -0.4168
19610W        W36457  16.313  16.777   9.228  0.1030  0.0719 -0.2861
19611W        W36458   1.510  10.133  13.714 -0.1508  0.0865 -0.0722
19612W        W36459   2.056   4.871  13.107  0.2149  0.0812  0.0436
19613W        W36460  19.452   8.969   1.605  0.1019 -0.1816 -0.0958
19614W        W36461  18.781  18.643   3.838 -0.0522  0.1458 -0.1728
19615W        W36462   0.321   0.327   1.330 -0.2158 -0.2467  0.1689
19616W        W36463  10.944   6.888   0.190 -0.3576 -0.0575  0.0178
19617W        W36464   9.556  15.912  10.799  0.2386 -0.0848 -0.1180
19618W        W36465   8.975  17.159   3.171  0.2448  0.0791 -0.1214
19619W        W36466   0.829   5.535  10.356  0.1133  0.2154  0.2782
19620W        W36467   0.188   8.639   3.977 -0.0537  0.0381  0.0703
19621W        W36468   3.190   0.729  10.548  0.0795  0.2568  0.3206
19622W        W36469   9.853  19.788  11.146 -0.0232  0.1514 -0.0565
19623W        W36470  12.813   8.723  11.652 -0.1144 -0.0410 -0.0320
19624W        W36471  13.049  11.511   9.499 -0.3982  0.0506 -0.2582
19625W        W36472  15.334  19.575  10.559  0.4135 -0.2851 -0.2740
19626W        W36473   4.736  12.755  10.781 -0.3502 -0.0256  0.1477
19627W        W36474  16.285  10.693  12.457  0.2193 -0.2333  0.1568
19628W        W36475   1.658   4.205  14.012 -0.3070 -0.1276  0.0295
19629W        W36476   9.821   6.335  10.465 -0.2841  0.0154 -0.4271
19630W        W36477   3.463   1.579  12.142 -0.1618  0.0328 -0.0449
19631W        W36478   0.639  18.231  13.864  0.0634 -0.2247 -0.2284
19632W        W36479  16.713   9.322   1.103 -0.1083  0.2166 -0.3249
19633W        W36480   9.235   5.699   1.630  0.2463 -0.0452 -0.0270
19634W        W36481   4.312   0.650   2.495  0.0526 -0.1620 -0.0054
19635W        W36482   7.702   8.127   0.098 -0.1849  0.0316 -0.3113
19636W        W36483  16.874  18.382  13.071  0.0064 -0.1183 -0.2280
19637W        W36484  19.380   8.461   0.930  0.0476  0.0904  0.1596
19638W        W36485  10.134  13.610   0.922 -0.0647  0.1087  0.2457
19639W        W36486  13.686  12.558   4.390 -0.1098 -0.1049 -0.2056
19640W        W36487   3.506   0.326   4.839  0.1670 -0.0418  0.1902
19641W        W36488  11.349  11.179  12.057 -0.0801  0.5549 -0.1374
19642W        W36489   5.680  11.377   4.447  0.3509  0.0664  0.1695
19643W        W36490  17.826   3.513  12.861  0.1643 -0.2568  0.3102
19644W        W36491  13.335  14.718   1.049 -0.0413 -0.2920 -0.1852
19645W        W36492  19.430   3.861   3.731  0.2651  0.2547  0.3002
19646W        W36493   6.694   7.314  12.816  0.0206  0.0350  0.0570
19647W        W36494  14.985   3.380   2.181 -0.2092  0.0560  0.0856
19648W        W36495  13.363   4.567   2.745 -0.1705 -0.1466 -0.1387
19649W        W36496   5.892  12.302  10.508  0.0823  0.0941  0.1754
19650W        W36497   8.501   8.456   1.356 -0.2630 -0.1667  0.0103
19651W        W36498  17.536   8.229   4.601 -0.0994  0.3924  0.0543
19652W        W36499   1.779   2.871  14.260  0.0633 -0.1075 -0.0206
19653W        W36500  18.519  10.918  12.864 -0.1173  0.2446 -0.0904
19654W        W36501  19.315  17.992   5.098  0.2667 -0.0724 -0.1027
19655W        W36502   2.865   5.084  12.863 -0.1330 -0.0711  0.3027
19656W        W36503   1.687   0.322  10.928 -0.2393 -0.0676 -0.1054
19657W        W36504   9.871   1.402  11.460 -0.2830  0.1158  0.1641
19658W        W36505  11.033  13.927  11.476 -0.4013 -0.1378 -0.0745
19659W        W36506   2.560   7.513   2.041  0.0769 -0.0094 -0.1090
19660W        W36507   5.170   9.085  13.193  0.0223 -0.0606 -0.3332
19661W        W36508   6.077   0.145   5.122  0.1316 -0.0048  0.0198
19662W        W36509   9.076   0.714   2.164  0.1341  0.0811 -0.0494
19663W        W36510  13.195  15.737   4.161  0.1320 -0.1840 -0.4114
19664W        W36511  18.874   5.638  12.727  0.0250  0.1291  0.0573
19665W        W36512  13.347   7.029  11.493  0.1768 -0.0693  0.6527
19666W        W36513   7.494   1.858   3.504  0.3020 -0.0381  0.1861
19667W        W36514  11.466   0.385  13.123  0.0388 -0.1135  0.0165
19668W        W36515  12.321   2.174  11.979  0.0677  0.1441 -0.0984
19669W        W36516  11.037   8.034   1.947 -0.1425 -0.0046 -0.1284
19670W        W36517   4.443   1.245  11.998  0.0026 -0.1865 -0.1776
19671W        W36518   0.558   2.388   2.060  0.0160  0.0505  0.4076
19672W        W36519  17.178   1.685   5.078  0.0799 -0.3203  0.1894
19673W        W36520  12.260   9.019   1.760  0.6139  0.0164 -0.3114
19674W        W36521  12.763   0.532   1.659 -0.1782  0.0597  0.1957
19675W        W36522  12.902  14.237  12.925 -0.1400  0.2405 -0.2185
19676W        W36523  19.770   4.634   1.780  0.0836  0.3493 -0.2115
19677W        W36524  10.488   1.600   2.518  0.3430  0.2599 -0.0300
19678W        W36525   4.088   2.401   3.739  0.1973  0.2951 -0.1526
19679W        W36526   6.224  12.525  11.225 -0.2784  0.0523 -0.1374
19680W        W36527   6.025   3.057   0.308 -0.3873 -0.0374  0.1619
19681W        W36528   8.759  14.901  13.947  0.1488 -0.1327  0.0943
19682W        W36529   6.135   1.748   4.736  0.1105  0.1258 -0.1073
19683W        W36530   7.913   2.489   1.402  0.3243 -0.1371  0.3857
19684W        W36531   0.007  16.190   2.165  0.0869 -0.4801  0.1485
19685W        W36532   6.902  13.068  13.406 -0.0520  0.1966 -0.0374
19686W        W36533   7.270   4.877  10.941 -0.0407  0.1479  0.0677
19687W        W36534  18.843   5.127  11.951  0.0576  0.1511  0.1406
19688W        W36535   6.525   4.843   4.176 -0.0259  0.0654  0.0811
19689W        W36536   8.488   8.935   1.228 -0.2502  0.1415  0.0269
19690W        W36537  19.081  19.533  11.630  0.0002 -0.2283 -0.1907
19691W        W36538  12.949  15.110  14.212 -0.0996 -0.1161  0.1411
19692W        W36539  11.417  13.282   0.971  0.0308  0.1528  0.3170
19693W        W36540   0.408   7.942   1.355  0.2028 -0.0532 -0.2153
19694W        W36541   1.912   4.640  12.245 -0.1251  0.1153 -0.3317
19695W        W36542   5.911  15.528  10.300  0.2938  0.0301 -0.3932
19696W        W36543  12.626   1.120   1.759 -0.2102  0.0716 -0.2975
19697W        W36544   4.371  18.848   0.917  0.2232  0.1966 -0.2840
19698W        W36545  18.817  15.223   3.884  0.0520  0.0489  0.0852
19699W        W36546   5.193  15.098   4.154  0.0852 -0.1895  0.0102
19700W        W36547   3.941   0.271   1.061  0.1126 -0.1074 -0.2174
19701W        W36548  10.356   5.581   4.078  0.1296 -0.1530 -0.0492
19702W        W36549  12.330   9.311  10.967  0.1591  0.3489 -0.2041
19703W        W36550   4.691  10.198  14.213  0.3212 -0.2883 -0.1255
19704W        W36551  15.689  11.296   4.679 -0.2072  0.1127 -0.1160
19705W        W36552   8.462  16.608  13.855  0.0392 -0.0198 -0.1241
19706W        W36553  16.252  16.419  13.315 -0.0973  0.2814  0.2287
19707W        W36554  12.617   2.600   2.411  0.0563 -0.1041 -0.2144
19708W        W36555   9.955  14.989   0.057  0.0598  0.0535  0.1745
19709W        W36556   8.439   4.879  10.290 -0.2270  0.1617  0.0122
19710W        W36557  16.328  16.235  11.705  0.1764 -0.2110 -0.3169
19711W        W36558   8.134   3.381   9.929  0.0632 -0.2981  0.2469
19712W        W36559   7.510   9.717   3.138 -0.1809  0.3088 -0.2278
19713W        W36560  15.800  10.448   1.704  0.3303 -0.3253  0.0502
19714W        W36561  14.074  18.258  13.459 -0.1988  0.2044 -0.0317
19715W        W36562   6.597  15.356   3.667 -0.2247 -0.2908  0.0399
19716W        W36563   0.042  12.113  13.332 -0.3031  0.0254 -0.1415
19717W        W36564  13.911  18.813  10.392 -0.1364 -0.0402 -0.1284
19718W        W36565  13.961   8.296  11.752 -0.3518 -0.0071 -0.4044
19719W        W36566   8.721  15.435   5.477 -0.0821 -0.3104  0.3579
19720W        W36567   0.322   7.856  11.810 -0.1192 -0.0809 -0.0681
19721W        W36568   5.512  12.668  12.273 -0.4207  0.3194  0.1352
19722W        W36569  15.428  14.379  13.720 -0.1437  0.1316  0.0781
19723W        W36570   5.413   8.929  12.620 -0.4494 -0.1454  0.0340
19724W        W36571  12.941   3.060   4.924 -0.3351 -0.0329  0.3285
19725W        W36572  13.858   8.907   4.538 -0.1835  0.0685  0.0672
19726W        W36573  12.288   8.311   3.423  0.0605 -0.0552 -0.3142
19727W        W36574  12.119  17.860  13.119 -0.0563 -0.2456 -0.0399
19728W        W36575   0.745  14.371  13.473 -0.2530  0.0029 -0.1685
19729W        W36576  11.405   2.158   3.479 -0.1535  0.3677 -0.2725
19730W        W36577   2.182   9.870   3.168  0.0563  0.0139  0.0796
19731W        W36578   1.351  10.874  12.461 -0.1455 -0.0352  0.0360
19732W        W36579   4.329  13.906  11.239 -0.0524  0.2881 -0.2649
19733W        W36580  16.191  17.669   2.454  0.0236  0.1154  0.1177
19734W        W36581  12.297   9.326   3.787 -0.0214 -0.2839  0.1230
19735W        W36582   9.803  12.283  12.655 -0.0123 -0.0101 -0.3240
19736W        W36583   4.267  16.366   0.918 -0.1312 -0.2596  0.0990
19737W        W36584  12.321   6.637  11.084 -0.5929 -0.1982  0.0803
19738W        W36585   7.075  10.050   3.728  0.0913  0.1255  0.1053
19739W        W36586  12.246  18.075  11.194  0.1853 -0.3080  0.0555
19740W        W36587   5.550   9.354   3.354 -0.1678  0.0247 -0.1287
19741W        W36588   8.068   5.285  11.812 -0.0556  0.2181  0.1607
19742W        W36589   3.539  17.207   0.107 -0.2178  0.1154  0.2277
19743W        W36590   8.165   6.181   2.632  0.1028  0.1067  0.0519
19744W        W36591   7.818  17.111   4.506  0.0253  0.1785  0.3060
19745W        W36592   8.647  10.097   1.564  0.1437 -0.0731 -0.0816
19746W        W36593   4.952   4.960   4.553  0.5105  0.0858 -0.1812
19747W        W36594   0.276   8.765   4.915 -0.1486  0.6585  0.3290
19748W        W36595   5.505  14.759   3.924  0.0047 -0.0765  0.2636
19749W        W36596  19.139   3.467   1.658 -0.0971  0.2345 -0.1471
19750W        W36597  13.395  14.202   5.027  0.2556  0.1729 -0.0058
19751W        W36598  17.657  13.596   0.936  0.0550  0.2029  0.0754
19752W        W36599   2.317  12.725   1.785  0.2365  0.2702  0.2461
19753W        W36600  18.958   6.537   0.411  0.1650  0.2720  0.2410
19754W        W36601  13.918   1.200   3.021 -0.1610 -0.0685  0.1200
19755W        W36602   0.301  19.099  12.278  0.1780  0.1185  0.1209
19756W        W36603  15.297   8.789   4.642 -0.2563  0.0105 -0.2876
19757W        W36604   9.990  15.949  10.446  0.1921  0.2495  0.1499
19758W        W36605   2.246  15.498  11.045 -0.1581 -0.0215 -0.1980
19759W        W36606  18.447   4.283   2.898  0.0188  0.0376  0.3624
19760W        W36607  12.963   8.574  13.518  0.2312  0.0839 -0.3290
19761W        W36608  11.285  17.449  13.257  0.1516  0.0389  0.1814
19762W        W36609   6.467   5.778  13.831  0.0417 -0.1737  0.1975
19763W        W36610  19.381  17.360  12.393 -0.1461 -0.0058 -0.0466
19764W        W36611   9.763   4.915   1.272  0.2189  0.0818  0.0267
19765W        W36612  18.782  17.998  10.788 -0.0708  0.1535 -0.1043
19766W        W36613   7.980   2.154   4.315 -0.0089 -0.1574 -0.0506
19767W        W36614  10.036  19.446  14.064 -0.0301 -0.1211 -0.2400
19768W        W36615  19.215   5.663  12.373 -0.1603 -0.0180  0.3400
19769W        W36616   0.334   8.573  12.253  0.0383 -0.0539  0.1161
19770W        W36617  13.872  19.887   5.215  0.0483  0.1136 -0.3238
19771W        W36618   7.638  12.538   1.368 -0.0035 -0.0546  0.1742
19772W        W36619  14.148  17.145   9.799 -0.2760 -0.1475  0.1504
19773W        W36620  12.669   5.075   1.241 -0.0748  0.1879 -0.0091
19774W        W36621  18.251  19.597   0.865  0.1549  0.4209 -0.3813
19775W        W36622   4.087  11.082   3.155  0.0494 -0.3056  0.1196
19776W        W36623   0.393   3.531   0.824 -0.0592  0.0929  0.0790
19777W        W36624   1.147   9.600   2.061  0.3909 -0.1299 -0.1143
19778W        W36625  17.528  12.523  11.965  0.2544 -0.0607 -0.1390
19779W        W36626  11.981  18.095   4.096  0.0077  0.0439 -0.0455
19780W        W36627   9.448   0.889  12.868  0.0700  0.1594  0.1074
19781W        W36628  17.966  13.343   3.869  0.3315 -0.0977 -0.0811
19782W        W36629   8.735  14.578  12.228  0.0348  0.1567 -0.0903
19783W        W36630  14.902   6.946  10.331 -0.0895  0.1094 -0.2234
19784W        W36631   4.482   0.362   0.932  0.2338 -0.0725 -0.0240
19785W        W36632   6.818  19.685   0.803  0.3013  0.2382 -0.1806
19786W        W36633  14.873  16.370  10.153 -0.0042  0.0165  0.0433
19787W        W36634  18.107  15.256  11.179 -0.0204  0.1877 -0.1069
19788W        W36635   0.513   6.128   2.532  0.2392 -0.3722  0.1570
19789W        W36636  17.972  11.923   3.682 -0.0330 -0.0327 -0.0956
19790W        W36637   9.284   5.840  12.969 -0.0816  0.1165  0.1491
19791W        W36638   7.972  15.273  13.174 -0.0726  0.1478 -0.0701
19792W        W36639   2.825   5.282   2.944 -0.2705  0.2575  0.0257
19793W        W36640   2.019   2.648  12.595  0.1368  0.0147  0.0542
19794W        W36641   9.851   4.319   4.129 -0.2040 -0.1334 -0.0873
19795W        W36642   9.253  13.490   9.176  0.1443 -0.0529  0.1124
19796W        W36643   0.318  19.040  13.888 -0.2707 -0.0339 -0.1647
19797W        W36644   3.157   5.676   2.117 -0.0940  0.2680 -0.0456
19798W        W36645   4.787   1.307  14.006 -0.3106  0.2725  0.0271
19799W        W36646   9.756  17.072   5.003 -0.4646  0.2025  0.0517
19800W        W36647  10.079   9.970  10.469 -0.0096 -0.1005 -0.2385
19801W        W36648  11.814   7.091   4.364 -0.2470 -0.2930 -0.1468
19802W        W36649  12.292   0.036   0.469 -0.1573  0.0266 -0.3834
19803W        W36650   9.894  13.328   3.120 -0.2179 -0.2408  0.0789
19804W        W36651  12.921   9.424  11.333  0.2202  0.1781  0.2631
19805W        W36652  10.937   7.087   4.167  0.3153 -0.0652 -0.1490
19806W        W36653   5.014   7.681  12.854  0.0539 -0.0975  0.3182
19807W        W36654   9.440   8.563  14.235 -0.4944  0.4016  0.2308
19808W        W36655  19.585   4.624  12.678 -0.3722 -0.1579 -0.0768
19809W        W36656   5.414  18.740  11.789 -0.1182 -0.0111  0.0776
19810W        W36657  12.635  16.450   3.755 -0.1156  0.1963 -0.1042
19811W        W36658  15.376   6.412   1.713 -0.3491  0.1611 -0.1068
19812W        W36659   0.290   3.858  10.473 -0.0826 -0.0330  0.0774
19813W        W36660  15.331   5.651  13.283 -0.0369  0.3368 -0.0804
19814W        W36661   5.113  18.872   0.424  0.1554 -0.0393  0.3729
19815W        W36662   8.789  13.511   1.196  0.0375  0.1086  0.0148
19816W        W36663   2.892   1.955  13.888 -0.1017  0.1733  0.2007
19817W        W36664   5.219   0.524  13.935 -0.1881 -0.4024  0.0750
19818W        W36665   8.518  12.079   0.032  0.0389 -0.3295  0.1896
19819W        W36666   9.510   5.891  11.835 -0.0389  0.1424 -0.3234
19820W        W36667  16.454  15.780   0.534  0.3696 -0.0341 -0.6211
19821W        W36668   7.245   4.482  13.915  0.1170 -0.4490 -0.3914
19822W        W36669   2.504   2.050   9.599 -0.0591  0.1324  0.4337
19823W        W36670  11.476   5.186  13.552  0.1863 -0.0526 -0.1009
19824W        W36671  13.776   5.145  12.767  0.0139 -0.2023  0.0320
19825W        W36672   3.644  11.403   4.022  0.3383  0.1429 -0.1215
19826W        W36673   2.954  14.253   1.614  0.1187 -0.2379  0.0720
19827W        W36674  16.525   0.283   0.563  0.0635 -0.0168  0.0088
19828W        W36675   6.706  12.800   0.084 -0.1541 -0.0838 -0.4720
19829W        W36676   7.108  16.787  14.235  0.1247 -0.0819 -0.1817
19830W        W36677   4.956  11.378  13.763 -0.2995 -0.0991  0.0722
19831W        W36678  12.600  10.598  11.345 -0.3640 -0.2185  0.1150
19832W        W36679   9.193   3.333   2.841  0.0688 -0.0723  0.1113
19833W        W36680   4.631  11.671  13.240 -0.0034 -0.1296 -0.2031
19834W        W36681  17.920  15.888  11.712  0.2576 -0.0606  0.0946
19835W        W36682  13.449  12.316  12.680 -0.0922 -0.0163  0.0678
19836W        W36683  12.747  15.349  11.176 -0.5304  0.3873 -0.0650
19837W        W36684   2.328   6.414   0.567 -0.1363  0.0773  0.1092
19838W        W36685  13.697   8.624   0.397 -0.1022  0.1740  0.4774
19839W        W36686   5.719   6.850  12.605 -0.0127 -0.0887  0.4170
19840W        W36687  14.085  16.286   4.272 -0.0026 -0.5373  0.2445
19841W        W36688   7.868  13.812   9.011  0.1162 -0.0053 -0.1283
19842W        W36689  18.103   9.569  12.636 -0.1866  0.1392 -0.2480
19843W        W36690  15.250   9.967  13.677  0.1113  0.1018 -0.1823
19844W        W36691   7.069  12.661   4.037 -0.0183  0.0690 -0.0244
19845W        W36692  10.969  16.970  13.549  0.3936 -0.2263 -0.0642
19846W        W36693  16.700   3.581   0.959 -0.1579  0.0887 -0.1441
19847W        W36694  19.683  13.999   0.695  0.1317  0.1545  0.2536
19848W        W36695  15.600  19.324   3.470 -0.1319 -0.1357 -0.0655
19849W        W36696  15.142  17.868  12.890  0.0836  0.1058  0.1079
19850W        W36697  10.702   2.219  12.787 -0.2388  0.1578 -0.1031
19851W        W36698  14.549   4.189  11.713  0.1945 -0.0821  0.0194
19852W        W36699  18.837   1.626   3.771 -0.0141 -0.2374  0.1997
19853W        W36700   2.962  14.661  12.121 -0.0730 -0.3065  0.3957
19854W        W36701   3.292  14.437  12.392  0.3204 -0.1809 -0.1064
19855W        W36702  17.170   8.178  11.562 -0.1057  0.0916 -0.0214
19856W        W36703   2.750   4.742   3.079 -0.1517 -0.1205  0.0142
19857W        W36704  14.873   9.654  13.271 -0.2596 -0.1907 -0.0395
19858W        W36705  16.812   7.658   2.428  0.0737 -0.1588  0.0923
19859W        W36706  16.719  18.720   1.182 -0.2791 -0.4474  0.1729
19860W        W36707   7.700   7.132   4.095 -0.3404  0.2135  0.1689
19861W        W36708  15.312  19.617   0.773 -0.0534 -0.1766  0.1743
19862W        W36709  12.039  14.976   0.136 -0.2326 -0.0595  0.3225
19863W        W36710  13.776  10.933   4.281 -0.0642 -0.1576 -0.0537
19864W        W36711  13.749   9.316   9.525 -0.1797  0.2522 -0.3773
19865W        W36712  16.694  13.662  13.721  0.1000 -0.0515  0.2316
19866W        W36713   4.390  11.161  14.223  0.1155  0.1788  0.0275
19867W        W36714   0.714  17.323  13.501 -0.2194 -0.1930 -0.1668
19868W        W36715   1.232  12.129   3.868  0.0733 -0.2202  0.0720
19869W        W36716  12.679  15.598   3.991  0.0374  0.0163  0.3346
19870W        W36717  10.941   4.327  13.368  0.2294 -0.1572 -0.4191
19871W        W36718  17.374  18.978   0.373  0.1628  0.0962 -0.1138
19872W        W36719  18.878   6.699  10.819 -0.0987  0.2021  0.0924
19873W        W36720  10.878  19.202   2.673  0.1181  0.1239  0.0830
19874W        W36721   1.502  16.505   4.760 -0.0372  0.1368  0.0053
19875W        W36722  14.584  15.126  10.678 -0.0727  0.1363 -0.1275
19876W        W36723   2.463   3.823   4.676  0.1030 -0.1947  0.1844
19877W        W36724  14.819  13.481   0.890 -0.0405 -0.1236  0.0997
19878W        W36725  19.117   1.292   0.478 -0.0440 -0.1627  0.0847
19879W        W36726  13.305   9.308   2.729 -0.3415 -0.1760 -0.1054
19880W        W36727   7.314  10.583  11.761  0.4639 -0.0679 -0.0117
19881W        W36728  18.870   5.671   2.020  0.1612  0.0616 -0.1519
19882W        W36729  14.497   3.621   4.547 -0.1697 -0.3229 -0.0855
19883W        W36730   9.202  19.158   5.068 -0.3073  0.1056 -0.0436
19884W        W36731   7.414   3.844  13.703  0.2632 -0.0786  0.0052
19885W        W36732  19.461   1.163  13.099  0.1148  0.0239 -0.1522
19886W        W36733  16.484   8.260   0.828 -0.0201  0.1294 -0.2958
19887W        W36734   3.774   9.332   3.535 -0.0150 -0.2069 -0.2794
19888W        W36735  14.277   3.706   3.323  0.2937  0.0154 -0.2338
19889W        W36736   4.424   9.978   2.378 -0.1862 -0.2048  0.0489
19890W        W36737   9.982   8.275   1.822 -0.0256 -0.0361 -0.0325
19891W        W36738  10.967  13.354  12.347  0.3500  0.1229  0.0291
19892W        W36739  17.678   6.115  13.988 -0.0042  0.0467  0.0755
19893W        W36740   6.539   0.090   0.428 -0.2655 -0.2119  0.0291
19894W        W36741   7.959   0.476  12.263 -0.0559  0.1675 -0.1750
19895W        W36742  17.577  13.285  11.617  0.1779 -0.0697  0.0831
19896W        W36743   6.556   1.949   2.699  0.0468 -0.1532 -0.1365
19897W        W36744   1.272  13.775   4.995  0.0343  0.1346 -0.2476
19898W        W36745   4.421   5.884   4.247 -0.0844  0.0569  0.2567
19899W        W36746  11.011  17.030   3.356 -0.0565  0.0238  0.1398
19900W        W36747   9.994  19.309   1.329  0.1247  0.1952 -0.0911
19901W        W36748  11.850   6.305   9.300  0.0317  0.3230 -0.4107
19902W        W36749   6.886  19.444  10.981  0.0535  0.0613 -0.1255
19903W        W36750  13.398   8.614   0.824 -0.0462 -0.3508 -0.0558
19904W        W36751  17.643   9.852   3.951 -0.1559 -0.0953 -0.0165
19905W        W36752   2.482   8.750  10.287  0.0570 -0.1450  0.1401
19906W        W36753   9.511   5.180   2.004 -0.2123 -0.0488  0.3069
19907W        W36754   7.209   8.217   3.178  0.1339 -0.0184  0.0792
19908W        W36755   8.710  17.751   0.266 -0.0599  0.4797  0.1614
19909W        W36756  10.042  12.558  11.795  0.2440  0.1865  0.1308
19910W        W36757   3.832   2.386   5.546 -0.2862  0.1784  0.1713
19911W        W36758   9.123   5.009   3.093 -0.2636  0.1623 -0.0190
19912W        W36759  12.446  17.114   0.417  0.0088  0.1418  0.0095
19913W        W36760  10.398   1.080   5.297 -0.0309  0.1548 -0.3948
19914W        W36761  18.016   4.157   4.321 -0.2959 -0.1258 -0.2432
19915W        W36762   3.516   0.409   1.322  0.0459  0.2123  0.1415
19916W        W36763   2.512  10.766   2.122 -0.2014  0.1745 -0.1984
19917W        W36764   4.720  13.446   1.318 -0.3527  0.0585  0.2064
19918W        W36765  14.193   6.907   2.159  0.0621 -0.1219  0.3719
19919W        W36766   7.902   7.708  12.615 -0.1106 -0.1808  0.0087
19920W        W36767   0.743  16.040   4.398 -0.0708 -0.0766  0.3196
19921W        W36768  17.702   8.032   3.565 -0.0809  0.0838 -0.0711
19922W        W36769  10.434   2.485   3.292 -0.1201  0.3445 -0.0088
19923W        W36770  19.460   7.503  12.001  0.0411 -0.1174  0.2418
19924W        W36771   6.029   1.941  12.655  0.0179 -0.1728 -0.5769
19925W        W36772  16.821  17.685   4.305 -0.1664  0.1974  0.1263
19926W        W36773  15.155  11.279   4.612 -0.1607  0.2176 -0.2735
19927W        W36774  15.469   0.618   2.566  0.5187 -0.0689  0.0538
19928W        W36775  15.046   6.748  11.445 -0.1244 -0.4674  0.1776
19929W        W36776  19.830   5.868   0.028  0.0734 -0.0533  0.0000
19930W        W36777   6.801   7.754  11.911 -0.4700  0.4003 -0.0328
19931W        W36778  16.669  18.003   0.043 -0.0947 -0.0890 -0.1905
19932W        W36779  16.474   3.154  12.937 -0.0442 -0.0110 -0.1624
19933W        W36780  10.119  17.879   1.985 -0.2109  0.2811  0.1707
19934W        W36781  10.178   4.345   0.635 -0.0231  0.1962  0.0745
19935W        W36782   9.089  16.286   2.244 -0.0956  0.1393 -0.2353
19936W        W36783   8.407  15.881   9.984 -0.1958 -0.1505 -0.2711
19937W        W36784   9.804  15.357  12.334  0.1287  0.1605 -0.3089
19938W        W36785   6.020   7.798  11.329 -0.0055  0.0271 -0.0526
19939W        W36786  12.675  14.104  12.471  0.0080 -0.2034  0.1361
19940W        W36787  12.031  16.739   2.023  0.2125  0.1519 -0.0963
19941W        W36788   1.649   0.274   4.110  0.0941 -0.1315 -0.1156
19942W        W36789   3.549   7.359   3.833 -0.0481 -0.1013  0.0429
19943W        W36790   8.546   8.100  10.082 -0.2618  0.3901 -0.1014
19944W        W36791   7.160   4.464  12.660  0.1254 -0.0032 -0.2467
19945W        W36792   6.262   9.270   1.672  0.2835  0.1434  0.3270
19946W        W36793   4.458   0.073  13.960 -0.2253 -0.2745 -0.0958
19947W        W36794   8.694  10.685  12.845 -0.2357 -0.0629  0.0433
19948W        W36795  11.437   2.804   5.213 -0.1921 -0.0310  0.0344
19949W        W36796  16.587  15.840   4.026 -0.0218  0.0292  0.2065
19950W        W36797  14.287  19.519   4.410 -0.3357 -0.3860  0.0748
19951W        W36798   0.999   2.991   2.919  0.0976  0.1201 -0.0230
19952W        W36799  13.135   3.042  10.813 -0.2053 -0.4260  0.2921
19953W        W36800   1.777  18.465  13.148 -0.3268 -0.0508 -0.0094
19954W        W36801  15.536  15.269   0.808  0.0620 -0.1757  0.2685
19955W        W36802  18.681  18.631  14.334 -0.1890  0.0617 -0.1182
19956W        W36803   1.995  19.011   2.458  0.0832  0.0884  0.1041
19957W        W36804  14.033  12.995   0.389  0.1360  0.1307 -0.2003
19958W        W36805  10.279   2.387  10.150  0.2957 -0.0601 -0.2664
19959W        W36806   3.062   5.725  11.748 -0.0604  0.2537  0.1361
19960W        W36807  10.344  17.870  14.183  0.2080 -0.0768  0.0207
19961W        W36808   5.681  14.679   5.259  0.0981  0.0172 -0.1149
19962W        W36809  13.404  15.181  12.234 -0.0297 -0.1845  0.1139
19963W        W36810   7.315  10.825  14.181 -0.1308  0.1067 -0.0354
19964W        W36811  16.175   1.575  13.603 -0.0671  0.1060  0.0159
19965W        W36812   1.012   1.660  11.698  0.2862 -0.0619  0.1708
19966W        W36813   1.278   7.860  14.158  0.2074  0.1068  0.1139
19967W        W36814  16.897   8.856  10.732  0.2131 -0.1493 -0.1351
19968W        W36815  14.879   0.122   3.868 -0.2622  0.1445 -0.2901
19969W        W36816  19.090  14.664   0.144 -0.2113  0.1644  0.0453
19970W        W36817  19.676  10.992   4.657 -0.0456  0.2143  0.1093
19971W        W36818   3.450   7.403   4.394 -0.0549  0.0461  0.1624
19972W        W36819  19.338   2.918  12.706 -0.1181 -0.2423 -0.0139
19973W        W36820  19.604   1.580   9.899 -0.3949  0.1481  0.1878
19974W        W36821   3.192   4.003   3.406 -0.1895  0.1028  0.4099
19975W        W36822  15.655   0.332   3.541  0.1261  0.3740 -0.0074
19976W        W36823  11.386  17.646   1.131  0.0544  0.0796  0.0930
19977W        W36824  14.178  19.498  14.089 -0.0154 -0.0434  0.0166
19978W        W36825   4.990   8.813  11.150  0.1771  0.0571 -0.1464
19979W        W36826   4.866   0.766  14.159  0.2355  0.2457  0.2261
19980W        W36827  18.569   2.837  11.921 -0.0473 -0.1012 -0.3800
19981W        W36828  15.172  10.335   0.427 -0.1949 -0.2691 -0.2561
19982W        W36829  18.961   8.757  12.914 -0.1945  0.0862 -0.1493
19983W        W36830  14.558   1.846  13.154  0.2923 -0.0310  0.2188
19984W        W36831   9.924   3.531  11.499  0.0185  0.1003  0.2276
19985W        W36832  10.725  10.516   2.885  0.0428  0.0270  0.5809
19986W        W36833   3.638  16.920  13.978 -0.3034  0.0527 -0.5900
19987W        W36834   9.955   6.496   8.478 -0.2746 -0.1472 -0.2443
19988W        W36835  17.624  14.604  14.261 -0.0800 -0.1498 -0.0974
19989W        W36836  10.819  12.547  10.646  0.0887  0.2223 -0.1131
19990W        W36837  16.508  11.086  12.789  0.0185 -0.0640 -0.0162
19991W        W36838  12.188  17.423   1.267 -0.1462 -0.0587  0.1443
19992W        W36839   8.427   3.915  13.346 -0.3365 -0.2006  0.0272
19993W        W36840   0.822  13.744   1.815  0.1439  0.2586  0.1733
19994W        W36841  14.118   9.095   2.762  0.1539 -0.0016 -0.1145
19995W        W36842  15.859   7.723  13.057  0.0775 -0.0738  0.1165
19996W        W36843   2.370   0.772   0.630 -0.1850 -0.1425 -0.0426
19997W        W36844   1.236   6.496   2.098  0.3530  0.3951  0.2356
19998W        W36845   9.545  18.399  11.625  0.1783 -0.1703  0.1199
19999W        W36846   8.500  12.176  10.602 -0.2616  0.0938 -0.1662
20000W        W36847  15.550   9.482   4.125 -0.0136  0.1286 -0.3172
20001W        W36848   8.501  18.528   2.353  0.2203  0.2513  0.3506
20002W        W36849   1.644   9.606  13.615 -0.0030 -0.0351 -0.0391
20003W        W36850  12.040  11.885  11.705  0.2348 -0.0094 -0.1659
20004W        W36851   8.643   5.642   0.177 -0.2303  0.2407 -0.3006
20005W        W36852   1.964  10.107   2.750  0.1953 -0.1393  0.0722
20006W        W36853   6.035  10.766   2.574 -0.2429 -0.0733  0.0180
20007W        W36854   4.149  12.172   1.560 -0.3663  0.1246  0.0318
20008W        W36855  13.271   4.244   1.396 -0.0663  0.0561 -0.0898
20009W        W36856  16.192  17.690   3.009  0.1700  0.1211  0.1163
20010W        W36857  13.663   4.767   3.080  0.1276  0.0713  0.0018
20011W        W36858   5.985  14.394   1.757 -0.0225 -0.3539 -0.1616
20012W        W36859   6.093  14.056  12.758  0.0248 -0.0677 -0.0130
20013W        W36860   1.879  12.451  13.502  0.1704 -0.1320  0.0958
20014W        W36861  11.098  13.960   1.340  0.0964  0.0557 -0.0695
20015W        W36862   3.570   9.748   1.886 -0.2569  0.0360  0.1790
20016W        W36863  16.377  19.364   0.034 -0.0212  0.3978 -0.0398
20017W        W36864   6.746  14.923  13.730 -0.0967  0.0663  0.0137
20018W        W36865   9.228  15.296   5.166 -0.1777 -0.4083  0.3587
20019W        W36866  11.880  18.992  11.156  0.3282  0.2137  0.3237
20020W        W36867  13.525  13.548  13.988 -0.0964  0.2354 -0.1907
20021W        W36868   6.245  11.660  12.500  0.3169 -0.2471 -0.0022
20022W        W36869   8.440  14.903  12.440  0.1488  0.4750  0.0962
20023W        W36870   8.615  15.573   1.237 -0.2668  0.2215 -0.1184
20024W        W36871  12.230  13.399  10.161  0.3032 -0.3616  0.4556
20025W        W36872   4.900   5.208  14.201  0.0327  0.0672 -0.3315
20026W        W36873  10.970   4.381  13.904  0.3384 -0.1492  0.0132
20027W        W36874  13.238   6.523  12.278 -0.0656  0.2855 -0.1543
20028W        W36875   6.257   1.490   0.270 -0.0143 -0.0001 -0.2390
20029W        W36876   8.123   6.199   0.926  0.1820 -0.0850  0.0704
20030W        W36877   4.844   5.424  13.308 -0.3628 -0.0009 -0.0046
20031W        W36878   8.873  13.964   1.848 -0.1279  0.0684  0.1602
20032W        W36879   5.652  14.647   3.000  0.4728  0.0156 -0.3138
20033W        W36880   1.895   2.658   3.361  0.0010 -0.0410  0.0618
20034W        W36881  18.968   5.776   3.595  0.0284  0.0283  0.1332
20035W        W36882  16.098   9.843  11.446  0.1198  0.0320  0.0194
20036W        W36883   7.384  11.884   4.434  0.0949  0.3095  0.3274
20037W        W36884   3.752  15.908   0.191 -0.2216  0.1997  0.2190
20038W        W36885   8.435   9.419   5.236 -0.2583  0.0000 -0.1098
20039W        W36886  17.883  18.450  11.549  0.1474 -0.0921  0.0642
20040W        W36887  17.234   6.647  11.759  0.3333 -0.2446 -0.1736
20041W        W36888  12.884  14.157   3.177 -0.0298 -0.0859  0.3124
20042W        W36889   7.288  14.263  14.094 -0.0286  0.4517  0.5518
20043W        W36890   2.124  14.070   5.476  0.0979  0.0769  0.0829
20044W        W36891   0.611   1.179  13.134  0.1109  0.2249  0.3890
20045W        W36892  18.504   4.839   2.857  0.0640  0.2884 -0.1265
20046W        W36893   1.526  15.719  11.359  0.4281 -0.0899 -0.1689
20047W        W36894   3.458   7.166  13.401  0.2839 -0.0424 -0.0356
20048W        W36895   0.606  18.705  11.433 -0.1953 -0.2050  0.1740
20049W        W36896   3.621   9.528  11.735 -0.0333  0.2949 -0.2737
20050W        W36897  11.739   8.072   3.593  0.0296  0.0497 -0.2100
20051W        W36898   9.482   4.493   5.033 -0.0843 -0.0987  0.4780
20052W        W36899   1.317  13.498   0.854  0.0113 -0.0716 -0.1473
20053W        W36900   6.842  14.854   0.249 -0.0369 -0.1006  0.1498
20054W        W36901  17.893   1.317   3.356 -0.4238 -0.5196 -0.0947
20055W        W36902   6.552   7.531   3.161  0.0565 -0.1048 -0.0835
20056W        W36903   4.219  16.346   3.712 -0.0239  0.0347  0.1466
20057W        W36904   8.791  15.943   2.873  0.0933 -0.1635  0.2722
20058W        W36905   8.185   2.026  14.181 -0.4024  0.5578  0.2319
20059W        W36906   5.274  13.630   5.121 -0.1901 -0.2065 -0.1734
20060W        W36907   1.229   0.432   0.987  0.0086  0.2722 -0.2657
20061W        W36908   1.163  18.280  11.637  0.0642  0.0438  0.2332
20062W        W36909   5.928   3.215  13.494  0.0180  0.0136  0.3404
20063W        W36910   8.675  11.451   1.291 -0.2487  0.0487 -0.0652
20064W        W36911   6.258   5.199   3.940  0.0757 -0.1341  0.1405
20065W        W36912   5.242   0.407  13.390  0.3010  0.1010 -0.0965
20066W        W36913   4.810  10.310  13.299  0.3179 -0.0884  0.0739
20067W        W36914  11.336  11.474   2.070  0.0952  0.0078  0.4082
20068W        W36915   2.633   2.508   0.003 -0.3855  0.0836  0.0038
20069W        W36916  16.364  19.544  10.910  0.1215  0.0829  0.1143
20070W        W36917   0.095   4.704  13.063  0.1458 -0.0088  0.4596
20071W        W36918  12.556   2.205  14.003 -0.1550  0.0764 -0.1447
20072W        W36919  11.728   3.797   3.540 -0.1833 -0.1565 -0.0633
20073W        W36920  12.502  12.270  11.365  0.0154  0.3781 -0.3008
20074W        W36921  17.229   4.775   8.795 -0.1041 -0.1720  0.2005
20075W        W36922   6.578   5.326  12.860 -0.1997  0.0032 -0.5305
20076W        W36923   0.317  14.655  13.335  0.2028 -0.1303 -0.3611
20077W        W36924  10.771   2.314  10.961  0.0576 -0.1848  0.0510
20078W        W36925   6.386  10.846   5.068 -0.2015  0.1125  0.4414
20079W        W36926   4.427   2.643   0.898  0.0546  0.0552 -0.3592
20080W        W36927   8.186  10.844  12.578 -0.0056  0.0154  0.0768
20081W        W36928   9.128   2.579   3.519  0.0025 -0.2333 -0.2353
20082W        W36929   9.003   6.650   0.799 -0.0312  0.1922 -0.0540
20083W        W36930   5.143   1.915   0.157  0.0389  0.1338 -0.1337
20084W        W36931  10.318   6.136   1.163 -0.3180 -0.1428  0.1095
20085W        W36932  15.127  14.538   2.795  0.0263 -0.4096  0.1121
20086W        W36933   9.459   2.869   3.173 -0.0503 -0.1181 -0.2674
20087W        W36934   3.962  14.670   4.619 -0.4249  0.1960 -0.0392
20088W        W36935  12.554  18.584   2.479 -0.1363 -0.1512  0.3973
20089W        W36936  14.896  11.052  10.510  0.1130  0.1124  0.1059
20090W        W36937  15.461   2.949  12.121  0.1253  0.2534 -0.4212
20091W        W36938   6.383   5.074   2.801 -0.0040  0.0163 -0.0948
20092W        W36939   8.683   4.792   1.687  0.1223 -0.0178 -0.0334
20093W        W36940  13.559   8.709   4.183  0.0209  0.1045  0.2893
20094W        W36941   4.118   3.005  13.794 -0.1204  0.2711  0.3754
20095W        W36942   8.456   1.231   0.078  0.1789  0.0832 -0.0270
20096W        W36943   1.501  11.859   2.596 -0.0340 -0.0364 -0.1989
20097W        W36944  14.458  17.014   2.428  0.2054 -0.0464 -0.0698
20098W        W36945  16.055  12.270   2.943 -0.1747 -0.1155 -0.1211
20099W        W36946   5.926  15.176  11.697  0.1186 -0.1312 -0.0982
20100W        W36947   8.461  13.865   0.269 -0.2886 -0.3001 -0.2492
20101W        W36948  11.769  15.787   4.203  0.1421 -0.0857  0.0852
20102W        W36949  16.627   9.246   1.638 -0.0711 -0.1148 -0.2871
20103W        W36950  19.767   8.995  10.505 -0.0918 -0.2308 -0.0092
20104W        W36951   5.788  13.439   0.572  0.0870 -0.2503 -0.1523
20105W        W36952   4.329   4.851   0.227 -0.3425  0.1492 -0.3785
20106W        W36953  10.387  10.520  13.148 -0.0900  0.0388 -0.1503
20107W        W36954   2.497   8.004   1.816 -0.1089 -0.1599 -0.0844
20108W        W36955  13.204   2.658  12.649 -0.0265  0.2006  0.0771
20109W        W36956   8.145   5.946   3.109 -0.2519  0.2373  0.1402
20110W        W36957   4.797  11.118  11.897 -0.3691  0.1244  0.0239
20111W        W36958   3.239  11.533  13.514  0.1819 -0.2850 -0.0754
20112W        W36959  18.957   4.616   3.495  0.2957  0.1355  0.2485
20113W        W36960   4.872   5.657   2.274  0.0370  0.1929 -0.4057
20114W        W36961   6.957  18.400  10.454 -0.4197 -0.0992 -0.1905
20115W        W36962  18.634   1.593   0.647  0.1228  0.4633  0.0968
20116W        W36963  16.606  10.104   1.776  0.0580 -0.3096  0.0646
20117W        W36964   2.998   8.889  13.056  0.2490  0.1722  0.1139
20118W        W36965  16.807  19.203   2.271  0.0406  0.3300  0.0256
20119W        W36966  10.453  15.107  10.689 -0.1538  0.0104 -0.1059
20120W        W36967  15.786   7.192  10.729  0.3616  0.4015  0.0712
20121W        W36968   0.267   8.676  11.329  0.1293  0.0884 -0.1192
20122W        W36969  12.722  15.884  11.301  0.0682  0.2551 -0.0342
20123W        W36970  14.014  13.955  10.952  0.1123 -0.1254  0.1500
20124W        W36971  10.216  16.278   2.420 -0.3517  0.1374  0.1985
20125W        W36972  15.855   8.442   1.517 -0.0338 -0.2910  0.2471
20126W        W36973  11.321   8.027   2.387 -0.0829  0.0456  0.2335
20127W        W36974  18.257  12.086   4.233  0.2090  0.0005  0.1192
20128W        W36975  17.460  11.247   0.790  0.4195 -0.3198 -0.0564
20129W        W36976  13.253  13.140  10.083  0.1252 -0.1162 -0.1669
20130W        W36977  16.907   5.864   5.274  0.0408 -0.2799 -0.1310
20131W        W36978   6.244   6.729   2.321  0.0981  0.0737 -0.1854
20132W        W36979   2.671  19.885   3.165  0.0829  0.1230 -0.3660
20133W        W36980  18.815  11.425  11.505  0.2200 -0.2902 -0.2282
20134W        W36981   8.450   0.633  11.738  0.0075  0.0075 -0.3058
20135W        W36982   9.646  15.291   0.381 -0.2140  0.0635 -0.0197
20136W        W36983   4.425   8.034   3.352 -0.2608  0.3048 -0.1107
20137W        W36984   0.110   7.508   2.714  0.1991 -0.0502 -0.1293
20138W        W36985   6.362  15.429  11.810  0.1500 -0.1428 -0.1248
20139W        W36986   9.954  13.156  12.817  0.1145  0.2711 -0.0718
20140W        W36987   6.760  15.690  11.871 -0.2437 -0.1240  0.2116
20141W        W36988  19.389  14.020   4.180 -0.1655  0.0387 -0.3485
20142W        W36989  15.089  10.845   0.581  0.0962 -0.4876 -0.2227
20143W        W36990   3.101   2.174   3.229  0.0442  0.1478 -0.2843
20144W        W36991  11.054   3.004  12.876 -0.0644 -0.1461 -0.2594
20145W        W36992  19.864   2.506   0.130 -0.0528  0.1739  0.0284
20146W        W36993  10.039  13.807  13.318  0.2521 -0.0851 -0.2234
20147W        W36994   2.538  16.965   1.552 -0.0586  0.0007  0.0495
20148W        W36995  11.575  12.751   0.329 -0.2350  0.1351  0.0579
20149W        W36996   3.543  11.138  13.612 -0.3387  0.2274  0.0220
20150W        W36997  15.599   6.831   1.439 -0.2836  0.3488  0.2477
20151W        W36998   6.542  13.156   1.542  0.1741 -0.0275 -0.0127
20152W        W36999   5.458   6.765   1.196 -0.4127 -0.3592 -0.1382
20153W        W37000   7.554  11.070  13.754  0.0321 -0.1479  0.0462
20154W        W37001   0.028   1.496   0.163 -0.1534 -0.2108 -0.2227
20155W        W37002  12.152  14.525  10.123 -0.1219 -0.1603 -0.0543
20156W        W37003   8.015  15.074  12.100 -0.0522  0.0537 -0.1295
20157W        W37004  13.077  17.544   2.220  0.1996  0.0404  0.1288
20158W        W37005  16.411  18.460   0.029 -0.0120 -0.2238  0.0656
20159W        W37006  13.114   6.302   4.261  0.0494 -0.1123  0.0999
20160W        W37007  18.179  18.677  14.333  0.0429 -0.0898  0.1660
20161W        W37008  18.764   6.499   2.485 -0.0416  0.0590  0.1338
20162W        W37009  19.363  10.469  13.268 -0.6367 -0.0483  0.1660
20163W        W37010  13.000   8.106   4.377  0.0503  0.4590 -0.0163
20164W        W37011   5.028  12.727   4.940 -0.0633 -0.0191 -0.1302
20165W        W37012   6.092   2.018   3.024  0.0917 -0.0673 -0.1074
20166W        W37013   2.125  11.875   2.258 -0.1258 -0.0990  0.0908
20167W        W37014   5.148   7.264   1.218 -0.0089 -0.0203  0.1963
20168W        W37015  15.440   6.065   2.728 -0.0394  0.3274  0.0456
20169W        W37016  10.892   8.799  12.765  0.2351 -0.0305 -0.0340
20170W        W37017  13.128  18.829  10.233  0.2987  0.0369  0.3003
20171W        W37018  12.414  10.914   3.608  0.0496  0.0918  0.2854
20172W        W37019  18.443  11.203  13.716 -0.3236  0.1283 -0.3079
20173W        W37020  15.409  14.647   0.626 -0.1489  0.2241  0.0604
20174W        W37021   2.657  17.204   4.427  0.0425  0.1566 -0.3618
20175W        W37022   0.263  16.246  12.743  0.1292 -0.2543 -0.3104
20176W        W37023  16.401   3.071   2.836 -0.0031  0.1705  0.1324
20177W        W37024   6.966  10.634  10.108 -0.0681  0.3378  0.0561
20178W        W37025  13.037   3.776  11.453 -0.0237  0.1441 -0.0730
20179W        W37026  10.246  13.768   2.772 -0.0723  0.0221 -0.4076
20180W        W37027  16.810   2.583   1.939  0.1259  0.0180  0.1911
20181W        W37028  11.767  19.065   3.569 -0.1204  0.1045 -0.1954
20182W        W37029   0.578  12.368  11.133 -0.2352 -0.0744 -0.2930
20183W        W37030   1.397  19.298   3.933  0.2126  0.0540  0.0046
20184W        W37031   6.132   1.510  11.111 -0.1660 -0.2919 -0.0282
20185W        W37032  17.952   8.222   0.381 -0.0097  0.0169 -0.0374
20186W        W37033   8.100  19.541   2.216 -0.0408 -0.2424  0.0580
20187W        W37034   8.317  19.454   4.911  0.0525 -0.0261  0.0274
20188W        W37035   5.828  10.384  11.802  0.1686 -0.1389 -0.2233
20189W        W37036  10.135  19.534  13.531  0.1425  0.2051  0.0791
20190W        W37037  14.923   4.470  10.124  0.0933 -0.3683 -0.0958
20191W        W37038  15.282  10.743  13.981 -0.0031  0.0025  0.3843
20192W        W37039  19.222  18.115   4.329  0.3367  0.1822  0.0983
20193W        W37040   4.830   8.061  14.091 -0.0360  0.1210  0.0471
20194W        W37041   3.243   7.975   4.503 -0.1360  0.1458 -0.0981
20195W        W37042  15.912   5.651   3.152 -0.1641  0.1749 -0.1018
20196W        W37043   8.464  10.606  13.409 -0.0004  0.0133 -0.0212
20197W        W37044   0.703  16.331  14.249 -0.0268  0.2910 -0.3379
20198W        W37045  17.141  16.390  13.493 -0.0547 -0.0705 -0.2586
20199W        W37046  16.682   4.345   2.680  0.1924 -0.4162  0.0537
20200W        W37047   3.573  12.977   5.547 -0.1232  0.1302  0.1299
20201W        W37048  14.645   8.896   3.247 -0.1406  0.0149  0.2009
20202W        W37049  10.355   6.713  11.066 -0.1322 -0.0904 -0.0641
20203W        W37050   6.744  13.660  11.187 -0.3775  0.1887  0.2625
20204W        W37051   1.039   6.576  10.426 -0.0872  0.1262 -0.1917
20205W        W37052  12.945  19.886   0.030  0.0128  0.0082 -0.1668
20206W        W37053   0.005   3.386  10.190  0.0300  0.1363  0.1860
20207W        W37054  13.226  10.903  11.238  0.2416  0.3432  0.2735
20208W        W37055   8.882   4.252  11.158  0.0031  0.0638 -0.4044
20209W        W37056   1.183  13.267   2.250  0.2296  0.2318 -0.2184
20210W        W37057  12.609   0.256   3.666  0.1928 -0.0198 -0.1137
20211W        W37058   5.740   6.072   1.750  0.3178  0.2498  0.0075
20212W        W37059  18.447   3.513  12.786  0.1510  0.0898  0.2413
20213W        W37060   7.108   1.396  12.709 -0.0385  0.2560 -0.2224
20214W        W37061   9.994  15.431   4.110 -0.2361 -0.0475 -0.4052
20215W        W37062  10.047   1.022  10.571 -0.1086  0.3379  0.0571
20216W        W37063  18.057   6.451  11.060 -0.0531  0.4942 -0.0102
20217W        W37064   3.273   0.598   3.528 -0.3041 -0.1503  0.3249
20218W        W37065   6.419  17.079  13.670  0.1505  0.3160 -0.1416
20219W        W37066   6.722  18.738  10.769  0.0241 -0.0724  0.0478
20220W        W37067   9.343  18.471   3.797  0.1140 -0.2573 -0.3629
20221W        W37068  16.963  15.995  10.132 -0.2716 -0.1167 -0.1123
20222W        W37069   7.059  17.228   0.501 -0.2222 -0.1414 -0.2647
20223W        W37070  16.535   4.711   4.547 -0.3483 -0.3254  0.4800
20224W        W37071  19.063  10.034  13.549 -0.0444  0.1384  0.2078
20225W        W37072   0.938  11.083   5.024 -0.0930 -0.2996 -0.0395
20226W        W37073   6.539  19.635   3.631 -0.2873  0.1000  0.0522
20227W        W37074   7.597  15.304   3.664 -0.1126  0.3079 -0.2270
20228W        W37075   8.519   6.342   2.974 -0.0499  0.0766  0.0925
20229W        W37076   3.896   2.265  11.899 -0.1366 -0.0977 -0.0152
20230W        W37077  10.580   3.880   9.653  0.1396  0.0764 -0.3323
20231W        W37078   1.290  15.346  11.651 -0.0571 -0.2500 -0.0013
20232W        W37079  10.565  17.188  11.758 -0.0001 -0.1690  0.3168
20233W        W37080  10.411   5.590   0.058  0.2366  0.0145 -0.2750
20234W        W37081   8.046  18.732   4.367 -0.2442 -0.2936 -0.1738
20235W        W37082   7.304   8.791   1.718  0.0413  0.4640  0.0753
20236W        W37083  17.965  16.796  10.786 -0.0722  0.0949 -0.1947
20237W        W37084  12.135   6.931   5.045  0.0635  0.0657  0.3291
20238W        W37085   6.172   1.114  10.528  0.2463  0.1135 -0.0157
20239W        W37086  15.039  14.189   3.615 -0.3046  0.1852  0.1508
20240W        W37087   3.176  11.149  13.987 -0.0127 -0.1184  0.1535
20241W        W37088  17.219  13.879  11.653 -0.2556  0.1604 -0.1118
20242W        W37089   3.953   6.355  12.380 -0.2265 -0.0547 -0.1463
20243W        W37090  14.167   9.968   3.245  0.3016  0.3794 -0.0609
20244W        W37091  17.451  12.651   1.203 -0.0372 -0.1787  0.1642
20245W        W37092  16.202   4.661  11.913  0.3557 -0.0623 -0.2073
20246W        W37093  18.665  19.811   3.115 -0.5452 -0.2590  0.4159
20247W        W37094  10.389  15.335  14.197 -0.2892 -0.1580 -0.1496
20248W        W37095   5.860   0.931  11.858  0.1418 -0.2053  0.1255
20249W        W37096   7.215  19.269  14.228  0.1931  0.1111  0.2154
20250W        W37097   2.909  16.271   0.110 -0.0753 -0.2153  0.5576
20251W        W37098   3.503   0.035   2.084 -0.0829 -0.0783 -0.0338
20252W        W37099   6.188   2.351  12.479  0.1161 -0.0944  0.1541
20253W        W37100   8.178   9.915  11.125 -0.2312  0.1045  0.0395
20254W        W37101  11.116  10.708   4.305 -0.0186 -0.0011  0.1008
20255W        W37102  16.480  16.073   2.587 -0.0102 -0.3585 -0.0130
20256W        W37103  12.561   0.489  13.065 -0.0757  0.1490  0.2865
20257W        W37104   2.380  17.775  10.425  0.4491 -0.1361  0.1300
20258W        W37105   9.503   5.840   0.572  0.0288  0.1027 -0.3485
20259W        W37106  17.048   6.745   1.294 -0.0727 -0.0664  0.2502
20260W        W37107  13.805   9.992   1.216 -0.0312  0.0933  0.0531
20261W        W37108  13.037  15.662  10.872  0.1226 -0.0036  0.2056
20262W        W37109  12.639  16.870   3.487  0.0730  0.1045  0.3843
20263W        W37110  10.279  16.150  11.019  0.0774 -0.3504  0.1466
20264W        W37111  11.290   0.223  10.641 -0.0150  0.0058  0.2875
20265W        W37112   1.743  18.008  12.788  0.1020  0.0564 -0.0332
20266W        W37113  12.729   3.175   0.811 -0.4130 -0.1860 -0.1471
20267W        W37114   4.019  10.226  11.436  0.0841  0.1744  0.2830
20268W        W37115  16.957   9.471   9.908  0.1782  0.1910 -0.1570
20269W        W37116   5.499   7.233  10.647  0.2038  0.0281  0.0410
20270W        W37117   3.770   3.862  11.106  0.1027  0.2081  0.2495
20271W        W37118  17.528   6.926  13.202  0.3937  0.1082  0.1164
20272W        W37119   5.277   9.491  10.568 -0.3017 -0.0882  0.2264
20273W        W37120   6.987   5.262  10.681  0.3530 -0.2964 -0.0044
20274W        W37121  17.011  18.035  11.377  0.0697  0.1133 -0.0264
20275W        W37122  14.386  19.615   2.964  0.1653  0.3480  0.2151
20276W        W37123  16.219   8.689  12.122 -0.1657  0.2340  0.2923
20277W        W37124  19.741   1.650  14.043  0.1356  0.0285 -0.0308
20278W        W37125   6.907  10.247   0.063  0.2235  0.2448  0.0589
20279W        W37126   6.095   9.600   1.322  0.0984 -0.0825  0.1559
20280W        W37127  15.017   5.810   0.633  0.1773 -0.1511  0.1878
20281W        W37128  12.846  10.151   1.066 -0.2079  0.0670  0.3840
20282W        W37129   5.318  18.063  13.273 -0.1821  0.2255 -0.1413
20283W        W37130   9.119   8.170   5.002  0.0040  0.1403 -0.0961
20284W        W37131  12.459   7.383   2.336  0.1041 -0.1391 -0.2987
20285W        W37132  11.184   4.683  13.036  0.1709  0.2586 -0.1764
20286W        W37133   5.329  15.893  13.738  0.1115  0.3102  0.2073
20287W        W37134  16.668  11.787  11.472  0.1846  0.0854  0.1499
20288W        W37135  14.059   5.223  12.303  0.1650  0.2784 -0.3350
20289W        W37136   2.563  15.607   3.642  0.3569  0.0098 -0.1607
20290W        W37137   9.729   0.865   3.260 -0.4293  0.0158 -0.1245
20291W        W37138  10.924  14.651  10.355 -0.1172  0.2041 -0.2367
20292W        W37139   7.690   6.039   2.818  0.0366 -0.1587 -0.3692
20293W        W37140   4.202   6.435   9.912  0.1816 -0.0024  0.5071
20294W        W37141   0.761   7.961  14.235  0.0026  0.0624 -0.0019
20295W        W37142  11.705  17.065   1.871 -0.2304  0.4120 -0.2328
20296W        W37143  10.533  12.821   2.960  0.3283  0.2858 -0.0032
20297W        W37144   8.996   4.393   1.778  0.0343 -0.3026 -0.2490
20298W        W37145   8.121   0.703   1.217  0.0947  0.0838 -0.2310
20299W        W37146   8.367   1.002  11.243  0.1828 -0.1353  0.1011
20300W        W37147   3.482  16.424  13.875 -0.2537 -0.0095 -0.1855
20301W        W37148   7.934   4.598   4.803  0.1058  0.2170  0.0388
20302W        W37149  15.605  15.027  12.328  0.0957 -0.0299 -0.4608
20303W        W37150   4.875  19.309  12.339  0.0739  0.1623  0.0050
20304W        W37151   5.794   6.909   3.271  0.1997 -0.2257 -0.1151
20305W        W37152  11.390   9.760   3.829  0.2223 -0.1986  0.0733
20306W        W37153  15.161   9.989   3.713  0.0543 -0.2037 -0.1362
20307W        W37154  15.939   5.788   3.936 -0.0213 -0.0253  0.1698
20308W        W37155  18.761  14.662  10.098 -0.2986 -0.1331  0.1503
20309W        W37156  16.823   9.763   2.065 -0.0864  0.3572 -0.0096
20310W        W37157  14.391   4.428   2.763  0.3200 -0.1586 -0.1686
20311W        W37158  14.817  14.545  12.405 -0.2083 -0.0779  0.1078
20312W        W37159  11.406  18.122  14.335  0.2767  0.0139  0.3125
20313W        W37160   4.935   1.761  11.503 -0.0645 -0.0487  0.1727
20314W        W37161  13.786   7.690   2.312 -0.0010 -0.2527  0.3942
20315W        W37162  11.961  10.026  10.369  0.0842  0.1015 -0.0732
20316W        W37163   8.606  18.537  10.608  0.1285 -0.2267  0.1304
20317W        W37164  17.320  17.711  11.110 -0.2090 -0.1085  0.0293
20318W        W37165  14.335   4.061  13.865  0.3756 -0.3913 -0.2300
20319W        W37166  10.333   7.708  10.045 -0.0765 -0.1537  0.0709
20320W        W37167   8.106  14.423  10.948  0.0361  0.0739 -0.1671
20321W        W37168   1.411  16.996   5.006 -0.1624 -0.2769 -0.2700
20322W        W37169  13.535  18.956   0.145  0.1334 -0.0320 -0.0185
20323W        W37170  12.817   7.309  13.821  0.0826 -0.3131 -0.1150
20324W        W37171  13.531  15.072  11.727  0.1283 -0.0760 -0.2044
20325W        W37172   5.485  19.060  13.544  0.0421 -0.0545  0.1437
20326W        W37173  16.787  10.680   2.075  0.0568  0.1700 -0.2331
20327W        W37174  17.245   8.951   0.037 -0.2062 -0.0136 -0.3047
20328W        W37175   6.696  16.245  13.402 -0.0352 -0.0177  0.1192
20329W        W37176  12.370  13.937  11.473  0.0374 -0.3684 -0.0054
20330W        W37177  14.296   4.205  13.108 -0.3524 -0.3898 -0.1829
20331W        W37178   7.850  15.475  12.667  0.2854  0.2714  0.3213
20332W        W37179  12.905  16.948   0.712  0.0687  0.3514 -0.2519
20333W        W37180   3.143  12.514   0.688 -0.1834 -0.0662 -0.2385
20334W        W37181   0.678  14.589   2.223  0.0879 -0.1829  0.1875
20335W        W37182   5.105  11.407   4.618  0.2491  0.0375 -0.1083
20336W        W37183  18.355   5.810   1.570  0.2720  0.3434 -0.0136
20337W        W37184   7.415   7.334  13.307 -0.1136 -0.4315  0.0513
20338W        W37185  10.571   6.827   1.779  0.0102 -0.0400 -0.0411
20339W        W37186  17.585  15.670   3.518 -0.4048  0.0138 -0.0919
20340W        W37187   6.348  19.163  13.978  0.3205  0.1045 -0.2758
20341W        W37188   1.486  12.332   2.703  0.1906 -0.2665  0.5271
20342W        W37189   5.372  14.592  12.692 -0.1035 -0.0495  0.1244
20343W        W37190  14.217   0.925   1.643  0.2576 -0.1894  0.1907
20344W        W37191   8.423   5.058   3.821  0.2798  0.2376  0.2090
20345W        W37192  10.700   0.267   1.134  0.0541 -0.4884 -0.0466
20346W        W37193   7.126   5.077   1.765 -0.2788  0.1178 -0.1762
20347W        W37194  17.434  10.902  10.513 -0.0802 -0.0352  0.1353
20348W        W37195  15.868   6.367   1.463  0.3201 -0.3231  0.2352
20349W        W37196   6.937   7.181   3.405  0.3589  0.2136 -0.1006
20350W        W37197  10.600   8.007   0.541  0.0810 -0.2351  0.1653
20351W        W37198   9.926  12.349   2.212 -0.0765 -0.0340 -0.0339
20352W        W37199   3.673  18.218   4.022 -0.0809  0.2588  0.1248
20353W        W37200   3.447   5.723   4.686 -0.3129  0.4010 -0.3451
20354W        W37201  12.645   2.440   4.317 -0.2993  0.0440 -0.1708
20355W        W37202  13.055   3.758   2.527 -0.1218  0.0181 -0.1767
20356W        W37203   1.622  13.419  13.111 -0.0505 -0.0043 -0.1840
20357W        W37204   9.827   0.687  11.842  0.0661 -0.0903  0.0924
20358W        W37205  11.703   8.271   1.439  0.0210  0.2584 -0.1465
20359W        W37206   9.817  12.601   0.020  0.1902  0.0349 -0.2241
20360W        W37207  19.372   1.951   2.446  0.0159  0.0005  0.0738
20361W        W37208  15.705   4.124  13.085  0.0339 -0.0033  0.2198
20362W        W37209   8.973  18.115  14.354  0.2786  0.3367 -0.0143
20363W        W37210   2.212   6.225  10.675 -0.0286  0.3334  0.2302
20364W        W37211   0.675   1.112   1.974  0.3264  0.1099 -0.5192
20365W        W37212  14.353   8.740   9.001 -0.0175 -0.0645  0.1306
20366W        W37213  10.925   0.647   5.109  0.3107 -0.2519 -0.2557
20367W        W37214  11.592   7.044   3.699 -0.3386  0.2572 -0.1716
20368W        W37215  19.771   7.256   3.556  0.2463 -0.0760  0.3340
20369W        W37216  18.543   8.065  13.281  0.0229  0.2307  0.2334
20370W        W37217   3.673  12.968   1.447  0.1432  0.2332  0.0170
20371W        W37218  15.660   2.938   4.735  0.1430  0.2746  0.2311
20372W        W37219  17.276   8.880   0.527  0.1163  0.1086  0.1476
20373W        W37220   0.149  10.108  13.493 -0.0591 -0.2542  0.5084
20374W        W37221  14.806   7.646  12.757  0.4334  0.0693 -0.0726
20375W        W37222  11.232  18.912   1.768 -0.0727 -0.0964  0.1869
20376W        W37223  10.856   4.377   9.660 -0.3604  0.4929  0.3135
20377W        W37224  10.684  13.051   4.951 -0.1578 -0.1711  0.0662
20378W        W37225   4.116   9.968   0.625 -0.1404  0.1981  0.1289
20379W        W37226   1.268  13.624  13.752  0.0881 -0.0055  0.1931
20380W        W37227   6.398   1.446  12.293 -0.2529  0.2676 -0.1373
20381W        W37228  14.795   7.141   0.898  0.1909 -0.1851  0.1434
20382W        W37229  12.940  12.934  10.494  0.1088  0.2128  0.2685
20383W        W37230   9.923  10.897   0.419 -0.0558  0.0974  0.0668
20384W        W37231  13.419   1.017   1.147  0.0553 -0.1658 -0.1476
20385W        W37232  17.023   0.023   4.921  0.2608 -0.2393  0.0296
20386W        W37233   3.868   2.537   1.503  0.2843  0.0267 -0.3398
20387W        W37234   3.637   6.497   0.627  0.0913 -0.3375 -0.3098
20388W        W37235  19.119  11.097   1.176  0.0307 -0.1001 -0.1904
20389W        W37236   0.435  12.122   2.206 -0.1846  0.0158  0.0867
20390W        W37237  13.250  13.826   1.678  0.0708 -0.2539  0.2560
20391W        W37238   2.256  15.052  11.301  0.1176 -0.2293  0.1540
20392W        W37239   5.110   9.971   1.859  0.2302 -0.1585 -0.1150
20393W        W37240   8.649  15.577  10.691 -0.1078  0.1568  0.1786
20394W        W37241  18.210  16.164  11.372  0.0679  0.1332  0.0734
20395W        W37242  12.650  11.051  11.654 -0.0772 -0.2661 -0.1353
20396W        W37243   8.829   8.172  10.474 -0.3392  0.1700 -0.2861
20397W        W37244  14.337   7.105  10.112 -0.0706 -0.1226 -0.3224
20398W        W37245   4.611  15.274  10.607  0.1385  0.0730  0.1357
20399W        W37246  19.632   8.048   1.367  0.1090  0.1048 -0.0815
20400W        W37247   4.605  13.664  14.250 -0.0580  0.2825 -0.1874
20401W        W37248   5.948   3.058  13.951 -0.0796  0.1341  0.0023
20402W        W37249   3.203  14.782  11.625 -0.3873  0.3212  0.0717
20403W        W37250  17.432   1.941  12.857 -0.2771 -0.1934  0.3945
20404W        W37251  13.822   9.785  13.662 -0.2620 -0.3914 -0.1032
20405W        W37252   6.991   5.024   2.695 -0.1566  0.2125 -0.0115
20406W        W37253   9.719   2.442  14.090 -0.2315 -0.1960 -0.0418
20407W        W37254  18.073  18.253  12.010  0.3391  0.0425  0.1289
20408W        W37255  14.537   2.929  13.385 -0.0464 -0.1710  0.0307
20409W        W37256  10.808  10.085   5.029 -0.0219  0.0446 -0.1407
20410W        W37257  10.147  11.356  10.960 -0.0739 -0.1687  0.1760
20411W        W37258   3.152  17.562  12.051 -0.1949  0.0065  0.1837
20412W        W37259   2.414  16.815   9.126  0.0923  0.3314 -0.2467
20413W        W37260  17.121   8.638   2.087 -0.3019  0.0940 -0.2060
20414W        W37261  18.434  17.039  11.375 -0.1868 -0.1780  0.0173
20415W        W37262   9.222  17.416  12.287  0.0104  0.2419 -0.1275
20416W        W37263   2.091  10.302   0.534 -0.0989 -0.0457  0.0694
20417W        W37264  19.369   0.762   1.681  0.0268 -0.2772  0.1561
20418W        W37265   6.716  18.644   1.245 -0.1767 -0.2510  0.1438
20419W        W37266  18.712   6.135   1.572 -0.1141 -0.3655  0.0391
20420W        W37267   7.882  10.754  13.448 -0.0845  0.0546 -0.1891
20421W        W37268   0.968  17.700   1.080 -0.0600  0.0960 -0.0277
20422W        W37269  12.665   6.083   3.133 -0.0628  0.1191  0.2007
20423W        W37270   7.504   0.427  12.534  0.3309 -0.1967 -0.0846
20424W        W37271   9.144  10.823   1.880  0.0170  0.1422 -0.1732
20425W        W37272   6.844  15.145  10.264  0.0964 -0.0604 -0.0771
20426W        W37273  18.629   7.641  11.159 -0.1515 -0.0261 -0.4463
20427W        W37274  19.545   6.486  11.900  0.2420 -0.1453  0.1313
20428W        W37275  16.632  16.386   4.740  0.1449 -0.1127  0.0736
20429W        W37276   4.540   5.738  13.544 -0.0993 -0.0555 -0.0205
20430W        W37277   4.430   4.245  13.203 -0.1486 -0.1385 -0.1779
20431W        W37278  19.678  18.972  13.042 -0.0815 -0.0485 -0.0343
20432W        W37279  11.319   7.096  10.880 -0.1832 -0.1086 -0.0940
20433W        W37280   8.892  11.416  10.387 -0.1499  0.0278 -0.1705
20434W        W37281  16.676  17.161   4.206  0.0257 -0.0995  0.2737
20435W        W37282   0.390  10.650  12.543 -0.1824 -0.3068 -0.2339
20436W        W37283   0.692   6.476   0.977  0.0739 -0.0112 -0.0696
20437W        W37284   4.287   7.005   2.909 -0.0396  0.2539 -0.0928
20438W        W37285   3.953   3.600  11.667 -0.3515 -0.0761  0.3054
20439W        W37286   0.685   6.961  10.207  0.2521  0.0283  0.0462
20440W        W37287   0.894  10.332   2.158  0.1751 -0.4882 -0.0207
20441W        W37288   5.048   6.871   0.824 -0.0582  0.0214 -0.0642
20442W        W37289  18.801  14.229  11.140 -0.1705  0.0770  0.0980
20443W        W37290  10.616   3.793  11.258  0.0445 -0.1103  0.0086
20444W        W37291   5.995   2.660  11.789  0.0938  0.0815 -0.2201
20445W        W37292   8.378   9.138  13.791 -0.2174 -0.0137 -0.1057
20446W        W37293  16.644   4.471  12.209 -0.0503 -0.0830  0.0382
20447W        W37294  11.457  11.755  12.039 -0.0343  0.0631  0.1712
20448W        W37295   0.528  18.411   4.725 -0.4678 -0.2140 -0.1169
20449W        W37296   9.614   3.916  10.474 -0.2089  0.1888  0.2458
20450W        W37297   2.962   3.638   4.827 -0.3005 -0.1896  0.1932
20451W        W37298   3.989   8.548  12.568  0.0936 -0.2031  0.0138
20452W        W37299   1.204   0.492   0.258  0.3089 -0.1086  0.4363
20453W        W37300   7.302  13.815   1.370  0.1292 -0.2129  0.3184
20454W        W37301  12.734  15.423   4.457  0.0269 -0.0724  0.1969
20455W        W37302  15.698   4.253   2.419  0.5051 -0.2190  0.1504
20456W        W37303  12.103  16.458  12.460  0.1161  0.0451  0.3207
20457W        W37304   0.256  12.782   0.099 -0.2608  0.3156 -0.2503
20458W        W37305  14.311   6.445   3.443 -0.0082 -0.1152 -0.2570
20459W        W37306   5.764   7.389   3.436  0.1859 -0.1245  0.0226
20460W        W37307  11.089   6.356   0.383  0.3638 -0.0619  0.1197
20461W        W37308   1.195   2.722   3.867  0.1860 -0.1583  0.0558
20462W        W37309  14.405  13.062  12.855  0.1705  0.1551 -0.0829
20463W        W37310  12.396   2.253   0.132  0.3837  0.2256 -0.0990
20464W        W37311  11.113  14.359   0.512 -0.0631  0.4841 -0.0667
20465W        W37312   4.467  17.663   3.084  0.1377  0.3439 -0.2896
20466W        W37313  12.601  14.379  13.734 -0.1049  0.1332 -0.2435
20467W        W37314   5.785   5.739  13.403 -0.3143  0.0623  0.0122
20468W        W37315   5.103  18.797   3.533  0.0667 -0.2402  0.0057
20469W        W37316  13.534  12.115   2.368 -0.1252  0.0660  0.1335
20470W        W37317  19.821  11.463  12.366 -0.0572  0.1786  0.0906
20471W        W37318  19.223   1.452   3.476  0.3013 -0.0946 -0.0343
20472W        W37319   1.716  13.647   0.468  0.3751 -0.0966 -0.0965
20473W        W37320   3.091   2.901  12.639 -0.5148 -0.0226  0.1243
20474W        W37321   4.134  12.402   5.076 -0.0103  0.3310 -0.0606
20475W        W37322  19.036   0.987  12.825  0.0098  0.0670  0.1898
20476W        W37323  11.611  18.348   4.324  0.2408  0.2001  0.1925
20477W        W37324   6.517   2.679  13.653 -0.3232 -0.0124  0.0019
20478W        W37325  14.785  15.205  11.742 -0.2366  0.0136 -0.2283
20479W        W37326   6.968   5.049  12.798  0.0961  0.0468 -0.1842
20480W        W37327   1.217   3.983   9.848 -0.1959 -0.1892  0.1332
20481W        W37328  12.869   7.429   3.490 -0.0878  0.0242 -0.0058
20482W        W37329  14.759  15.784   0.624  0.0216  0.0172 -0.2233
20483W        W37330   8.733  13.750  13.372  0.2526 -0.0180  0.0839
20484W        W37331  19.609  11.266   3.362  0.0335 -0.2815 -0.2083
20485W        W37332   4.620  15.849   3.834  0.1610  0.2620  0.1613
20486W        W37333   1.130   6.946  12.888 -0.0825 -0.0194 -0.1680
20487W        W37334  19.099   9.367  11.899  0.3133  0.0434  0.0380
20488W        W37335   0.874  18.187   1.024  0.1522 -0.3310  0.3462
20489W        W37336  17.435  11.430  10.612  0.1721 -0.1172 -0.0576
20490W        W37337   8.977  16.052  11.724 -0.1874  0.3703  0.2123
20491W        W37338  16.270   7.497   3.401 -0.0203 -0.1846  0.1093
20492W        W37339   7.829  17.908  11.524 -0.1273 -0.1445  0.0269
20493W        W37340  14.807  10.059  12.194  0.0810  0.1940 -0.0562
20494W        W37341   0.663  11.841   4.277 -0.2846  0.2236 -0.0188
20495W        W37342  19.396  14.113  13.229  0.2543  0.0682 -0.4434
20496W        W37343  18.202  18.100   4.243 -0.2233 -0.5699  0.0459
20497W        W37344  12.353   1.382   4.208 -0.0090  0.0358 -0.2648
20498W        W37345   1.101   7.718  13.244  0.1257 -0.3065  0.0833
20499W        W37346   9.259   8.495  12.782 -0.2197 -0.0256 -0.1912
20500W        W37347   6.885   4.952  11.358  0.0314  0.1348 -0.1640
20501W        W37348  17.112  17.714  12.253 -0.2295  0.0715  0.2559
20502W        W37349  14.577   9.734   0.060 -0.0236  0.0060 -0.0756
20503W        W37350  10.254   0.467  12.667 -0.0354 -0.0435  0.1319
20504W        W37351   5.555   0.620  14.318 -0.0362 -0.1192 -0.1603
20505W        W37352  14.092   2.315   1.076  0.0244  0.1853 -0.2006
20506W        W37353  12.277  17.788   1.635 -0.2652 -0.0525 -0.0871
20507W        W37354  13.356   3.427  11.095 -0.1619 -0.2491 -0.1798
20508W        W37355  15.051   5.264   4.606  0.0634 -0.1813 -0.2967
20509W        W37356  10.053  16.492  13.519  0.0209  0.1934 -0.2645
20510W        W37357   3.302   8.041   1.692  0.2866  0.1050 -0.1239
20511W        W37358   4.628   5.807  11.069  0.0662  0.5871  0.0498
20512W        W37359   6.210   6.402   4.183  0.1352  0.1776  0.0943
20513W        W37360  12.935  16.107   2.229 -0.2111  0.1379  0.0106
20514W        W37361  19.414   3.078  14.030 -0.0053 -0.1430 -0.1297
20515W        W37362   8.926  13.057  10.799 -0.1636  0.0211  0.4904
20516W        W37363  14.589  16.103   1.694  0.3094  0.0866 -0.1151
20517W        W37364   8.804  10.305   4.251  0.1910 -0.2461 -0.1504
20518W        W37365  18.291  19.837  12.347 -0.0317  0.3207  0.1509
20519W        W37366   3.523   1.297  14.073  0.1211 -0.0500 -0.0782
20520W        W37367   1.931  15.531  10.672 -0.0821 -0.3834  0.5474
20521W        W37368  14.577   3.825   3.803  0.0245  0.1744 -0.0128
20522W        W37369   3.217  15.279  11.992  0.1541 -0.0503 -0.2468
20523W        W37370   6.049   5.934  12.273 -0.3349  0.1673  0.2380
20524W        W37371   4.881  14.435  12.721  0.1304 -0.2227 -0.0683
20525W        W37372  12.151  11.317   1.942 -0.2622 -0.0963  0.0092
20526W        W37373   4.365  18.081  11.582 -0.0228  0.1663  0.1562
20527W        W37374   0.281   0.699  12.003  0.3635 -0.1349  0.0081
20528W        W37375   6.618  13.651  12.252  0.1027 -0.0397  0.1364
20529W        W37376   9.640  12.817   1.096  0.1590  0.0214 -0.0428
20530W        W37377  11.386   3.648  11.579 -0.1536  0.0858 -0.2040
20531W        W37378   8.984   9.856   2.250 -0.0918 -0.1406  0.1953
20532W        W37379   9.351   4.258   0.378 -0.0616  0.2960  0.3805
20533W        W37380   8.514  17.537  13.599  0.1211 -0.1223 -0.0889
20534W        W37381  13.153  13.338   2.021 -0.0089  0.1366 -0.2214
20535W        W37382   7.267   8.235   0.512  0.0423  0.0896  0.1671
20536W        W37383  19.806  17.169  12.638  0.0072 -0.0898 -0.5317
20537W        W37384   5.704  10.942   3.716  0.2032  0.1250  0.0046
20538W        W37385  13.249  13.202   4.068 -0.1718 -0.2816  0.1314
20539W        W37386   8.755   9.260  12.439 -0.0678  0.3602 -0.0441
20540W        W37387   7.264   4.875   0.759 -0.1048 -0.2346 -0.5064
20541W        W37388   5.375  17.977   0.245 -0.0420  0.1239  0.1079
20542W        W37389  11.781   8.391  12.488  0.0085 -0.0910 -0.2011
20543W        W37390   6.745   0.470   0.311 -0.1842 -0.0489  0.2297
20544W        W37391  14.540   9.080  13.777 -0.1959  0.0458  0.1341
20545W        W37392   7.039  12.421   5.103 -0.0261  0.3037 -0.2856
20546W        W37393   2.080   6.146   4.029  0.1787 -0.1240 -0.0517
20547W        W37394  10.571  17.244   3.184  0.3061 -0.1954 -0.3135
20548W        W37395   7.285   5.726  11.587 -0.4170  0.1358  0.1534
20549W        W37396  10.897  18.352  13.298 -0.2531 -0.0591  0.2303
20550W        W37397  13.417   1.553  11.464  0.1778  0.1213  0.0437
20551W        W37398   8.452  11.704  12.367 -0.2293  0.0527  0.0494
20552W        W37399  14.105  11.305   4.589  0.0183 -0.5660 -0.1047
20553W        W37400   2.185   6.758  13.394  0.0785  0.0688 -0.2314
20554W        W37401  11.460   3.958  12.657 -0.3359  0.1811  0.1069
20555W        W37402  15.130  16.783  12.367 -0.1730  0.0383  0.4533
20556W        W37403   6.615   5.736   2.188 -0.4708 -0.2357  0.2733
20557W        W37404  18.974  12.906   5.030  0.1652  0.1823  0.3710
20558W        W37405   1.758   2.200   3.111  0.2391  0.0845  0.4023
20559W        W37406   6.343  18.903   1.123  0.3761  0.0510 -0.2842
20560W        W37407  14.110   8.057   2.414 -0.1190 -0.2240  0.0748
20561W        W37408  11.763   8.094   4.159  0.0148 -0.0536 -0.0134
20562W        W37409   8.579  17.673  14.094 -0.0669 -0.1627 -0.1339
20563W        W37410  18.089   4.184   1.310  0.1501  0.0243 -0.3023
20564W        W37411  17.013  10.345   3.180 -0.0588  0.1226 -0.1194
20565W        W37412   2.195  18.676   0.249 -0.0522 -0.1599 -0.3302
20566W        W37413   0.606   1.276   0.883 -0.0835 -0.2293 -0.0902
20567W        W37414   2.113  15.902   0.267 -0.3483 -0.1948  0.2750
20568W        W37415  17.215  15.208   0.846 -0.0103  0.2707  0.0514
20569W        W37416  15.767   7.822   2.796  0.0045 -0.0064  0.3517
20570W        W37417  16.812  17.149  10.393  0.0595 -0.0034 -0.0775
20571W        W37418   8.742   3.890   4.774 -0.3641  0.4978 -0.3198
20572W        W37419  17.695   2.418  12.816  0.2275  0.0405 -0.0328
20573W        W37420  16.614  11.123  14.035 -0.1108 -0.1489  0.0839
20574W        W37421   0.526  11.517   0.951 -0.2294  0.0634 -0.0243
20575W        W37422   3.596  16.595   2.789  0.1651 -0.1564  0.2277
20576W        W37423   9.187   1.986   1.890 -0.1043  0.1646  0.1028
20577W        W37424  14.463  19.424   9.391 -0.0436 -0.2073  0.0543
20578W        W37425   4.560   2.737  11.464 -0.2752 -0.0522 -0.0578
20579W        W37426   1.199   8.855  10.964 -0.1328 -0.0263 -0.3302
20580W        W37427   2.260  12.883   0.661 -0.0723 -0.0326 -0.0173
20581W        W37428  10.843   7.164   4.695 -0.0478 -0.0859  0.0035
20582W        W37429  18.603  11.661   5.089  0.3476  0.1296  0.1112
20583W        W37430  13.033   8.742  13.015 -0.2133  0.3645  0.1399
20584W        W37431  10.587  19.422  12.526  0.4325 -0.1318  0.1981
20585W        W37432  17.196   7.707  10.022 -0.1093 -0.4396 -0.0006
20586W        W37433   1.045   5.051   2.780  0.2506  0.0055 -0.2685
20587W        W37434  11.700   0.067  12.292  0.3670 -0.1850  0.0586
20588W        W37435  18.052   6.723   1.981 -0.1262 -0.0626  0.1200
20589W        W37436  16.335   0.469   4.426 -0.0620  0.2426 -0.1518
20590W        W37437  11.454   1.133  11.212  0.4410 -0.1461 -0.1910
20591W        W37438  19.339  11.866   4.930  0.1847  0.0919  0.2037
20592W        W37439  19.104   7.763   3.428  0.0796 -0.1801  0.4912
20593W        W37440  15.651   5.587  10.768  0.0809 -0.3091  0.2203
20594W        W37441  11.249  19.860   0.389 -0.1450  0.0856  0.0051
20595W        W37442  19.737  14.824  10.472 -0.0560  0.0940  0.2105
20596W        W37443   9.556   5.579   4.132  0.0842  0.4871  0.5212
20597W        W37444  17.735   2.917  12.981  0.4571  0.1161  0.0545
20598W        W37445   6.273   4.786   2.069 -0.4460  0.0434  0.3216
20599W        W37446   9.696   3.130  13.052 -0.0309 -0.0996  0.1305
20600W        W37447  14.829  15.765   3.151 -0.0642  0.0323  0.3068
20601W        W37448  16.658   1.550  13.392 -0.1193  0.1541  0.1261
20602W        W37449   3.414   0.015  13.751 -0.4164  0.0097  0.0769
20603W        W37450   9.933  16.298  11.963 -0.1314 -0.0106 -0.1365
20604W        W37451  10.112  19.041   3.660  0.1392 -0.2565  0.1572
20605W        W37452  15.265   1.339  10.521  0.0736  0.0866  0.1750
20606W        W37453   6.598   3.221   1.148 -0.2050 -0.2751 -0.0519
20607W        W37454  13.029   6.008   9.217  0.1824 -0.1819 -0.5237
20608W        W37455   0.163   8.128  13.543 -0.0209 -0.4207  0.3466
20609W        W37456  14.556   4.367  13.520 -0.0784 -0.0131  0.2278
20610W        W37457  11.757  17.283   3.718 -0.1388  0.0629 -0.2169
20611W        W37458   2.911   8.997   3.844  0.1107 -0.1346 -0.0215
20612W        W37459  19.479   4.363   1.207  0.1084 -0.3880 -0.0604
20613W        W37460  11.615   6.546   0.740 -0.0486  0.2784 -0.1188
20614W        W37461   2.252   6.331  11.520  0.0766 -0.1940  0.2514
20615W        W37462  11.417   8.449   0.740 -0.3575 -0.1153  0.1229
20616W        W37463   6.376  19.657  10.376 -0.0139 -0.0784  0.0875
20617W        W37464   3.521   3.289  10.270  0.1971  0.0652 -0.0368
20618W        W37465   2.636   3.119   3.275 -0.1152 -0.1363 -0.0700
20619W        W37466  16.380  10.541   3.915 -0.2868 -0.0379  0.1040
20620W        W37467   9.876  18.616   0.708 -0.3404  0.0895 -0.1630
20621W        W37468  14.879   0.425   1.430 -0.0183 -0.2806  0.0953
20622W        W37469  13.690  15.038  10.288  0.1352 -0.0904  0.1826
20623W        W37470   0.672  17.040   3.270 -0.1817 -0.0635 -0.0227
20624W        W37471   3.482   5.610  13.187  0.3617 -0.3025 -0.1243
20625W        W37472  12.585  10.231   0.616  0.1467 -0.2034  0.1603
20626W        W37473  13.891  14.575  12.896 -0.0949  0.0431  0.3637
20627W        W37474  11.983  16.589   2.966 -0.1756  0.3704  0.1230
20628W        W37475  11.559  17.684  12.175  0.0288  0.0794  0.0683
20629W        W37476  17.156  17.222   2.408  0.3270  0.0266 -0.0477
20630W        W37477  13.346   8.174   2.323 -0.0869  0.3716 -0.1767
20631W        W37478   7.749   0.009  12.307  0.2720 -0.1661 -0.1878
20632W        W37479   5.575  16.722  13.119  0.0485  0.0427  0.0279
20633W        W37480  17.833  13.655  11.867  0.0105  0.0485  0.1496
20634W        W37481  17.833   0.852   3.278 -0.0793 -0.1495  0.0633
20635W        W37482  19.258   5.552   3.907  0.0618  0.4220 -0.1683
20636W        W37483   8.485   4.318  10.239 -0.0714 -0.1841  0.2042
20637W        W37484   8.418  17.197  11.937 -0.2073 -0.1201  0.3901
20638W        W37485   7.125   4.100  10.258  0.0410 -0.0134  0.0830
20639W        W37486  10.933   1.535   4.070  0.2526 -0.1958  0.2578
20640W        W37487  15.947  19.312  14.025  0.1479  0.0295 -0.1395
20641W        W37488   7.321  13.409   0.878 -0.2305 -0.3296  0.0362
20642W        W37489   5.955   7.567  11.833 -0.2261  0.0366 -0.0950
20643W        W37490   4.294  17.155  11.738  0.2063 -0.1661  0.0209
20644W        W37491  11.614  14.206   3.119  0.1908  0.0054 -0.2101
20645W        W37492  19.742   8.661   1.236  0.0786  0.1117 -0.1118
20646W        W37493   3.433  18.250  13.034 -0.2650 -0.0571  0.0379
20647W        W37494   0.702  17.393   1.894  0.2718  0.1162  0.1940
20648W        W37495   6.645   7.589  13.868 -0.0280  0.3024 -0.0551
20649W        W37496  19.431   3.413   1.247  0.3454  0.1243 -0.1725
20650W        W37497   9.570   4.216  10.905 -0.2895  0.1792  0.0707
20651W        W37498   4.570   6.336   0.049  0.4018  0.1336 -0.0632
20652W        W37499  18.211  12.052  11.084  0.2331 -0.1169  0.0358
20653W        W37500   3.679   7.902  14.355 -0.0839 -0.2115  0.1227
20654W        W37501   1.916   2.994   2.774 -0.1117  0.2888 -0.1379
20655W        W37502   2.194   3.699   4.186  0.3796  0.1675 -0.0340
20656W        W37503  13.711  15.054   1.811  0.0592 -0.1270 -0.1746
20657W        W37504   4.799  10.761   3.624  0.3081  0.3319 -0.1448
20658W        W37505  11.737   0.861   3.326  0.1258  0.0206 -0.2796
20659W        W37506   7.206  12.576   1.678  0.3227 -0.1241 -0.0797
20660W        W37507   0.929   3.916   3.529  0.2460  0.0675  0.1132
20661W        W37508  17.183   0.579  13.308 -0.2710 -0.0464  0.0139
20662W        W37509   4.723  11.995   1.181  0.1176 -0.0301 -0.0029
20663W        W37510  17.880  17.995   4.677  0.1236 -0.4205  0.1558
20664W        W37511   6.069  16.801  10.662  0.1148 -0.0419 -0.0884
20665W        W37512  16.175   9.804  13.432 -0.1559  0.0012  0.3824
20666W        W37513  14.112  13.032   9.894  0.1299  0.0048 -0.0777
20667W        W37514   7.046  10.534   3.838 -0.3104 -0.0279 -0.0045
20668W        W37515  10.772   0.968  14.020 -0.2064 -0.2865 -0.0954
20669W        W37516   9.027  10.725   0.558  0.2090 -0.1123 -0.0302
20670W        W37517  17.387   3.726  14.234  0.0083 -0.0363  0.2158
20671W        W37518  14.954  12.189  12.911 -0.1897  0.3706 -0.1379
20672W        W37519  17.313   9.214  11.910 -0.1073  0.5895  0.1760
20673W        W37520   8.467  19.124  10.519 -0.0856 -0.0247  0.0564
20674W        W37521  17.806   1.227  11.098 -0.1285  0.3547  0.1009
20675W        W37522  19.810   5.533  13.350 -0.0507  0.1074 -0.2660
20676W        W37523   3.485  16.088  12.815  0.0791  0.1136 -0.1840
20677W        W37524  17.576  19.186  10.532 -0.0168 -0.1782  0.1057
20678W        W37525  13.944  15.926  14.337  0.0651  0.0350  0.0803
20679W        W37526   7.020   5.894  10.017  0.0118 -0.1426  0.5089
20680W        W37527  10.977   5.540   3.534  0.2506 -0.2512  0.1490
20681W        W37528  13.375   1.149  11.832 -0.2003  0.0578  0.1277
20682W        W37529  10.745  18.189   2.755  0.3427 -0.1954 -0.1043
20683W        W37530   5.045  18.056  13.722  0.0296  0.0732 -0.2323
20684W        W37531   8.249   0.387  13.792 -0.1938 -0.0068  0.2042
20685W        W37532   7.170  18.835  10.579  0.2761 -0.1936 -0.0119
20686W        W37533  13.369  19.656   2.050 -0.0005 -0.1080 -0.0585
20687W        W37534   4.581  19.441  10.323  0.0770 -0.2702  0.1312
20688W        W37535  18.942  12.908   2.586  0.0289  0.1935  0.0619
20689W        W37536   5.310   6.382   1.573 -0.1928  0.1052  0.2354
20690W        W37537   5.565  19.182   1.456  0.1953 -0.0026  0.2679
20691W        W37538  15.709   7.794  14.297 -0.2221  0.0578  0.2449
20692W        W37539   8.893   8.079  11.832  0.0386 -0.1457 -0.0231
20693W        W37540   6.549  12.593   1.636 -0.0409 -0.3516  0.0387
20694W        W37541  12.220   8.246   8.277 -0.2338 -0.0955 -0.2132
20695W        W37542   3.967  14.069   3.344 -0.0714  0.3016  0.0498
20696W        W37543  18.398   0.178  13.750  0.1728  0.4172  0.0682
20697W        W37544  16.386  14.073  10.258 -0.0684  0.3893 -0.0195
20698W        W37545   1.583   3.033  11.198 -0.2833 -0.0040 -0.2173
20699W        W37546   9.461  10.311   3.298  0.0963 -0.0418 -0.1275
20700W        W37547   3.232  16.203   1.879  0.1242  0.0316 -0.0840
20701W        W37548   0.484  11.080  11.185 -0.1215  0.2159  0.0639
20702W        W37549   6.848  13.134  11.997  0.0915  0.4463 -0.2704
20703W        W37550   0.719  10.189   1.205  0.0856  0.3119  0.0663
20704W        W37551  12.095  10.433   0.913 -0.1856  0.2314  0.1599
20705W        W37552   5.917  15.463   4.876  0.2022 -0.0051 -0.2012
20706W        W37553   3.365   2.407  12.603 -0.0126 -0.0011 -0.2697
20707W        W37554   2.785   2.892   1.537  0.0093 -0.1833 -0.2080
20708W        W37555   8.762   0.261  12.622 -0.2019 -0.0364 -0.1608
20709W        W37556   7.205  17.199  10.978  0.1784  0.2124  0.0737
20710W        W37557   7.744  16.088   1.650  0.2560  0.0028 -0.2956
20711W        W37558   1.567   7.400  14.229  0.0225  0.2246  0.2767
20712W        W37559   9.229   9.726  10.468  0.2214  0.0650  0.1275
20713W        W37560  16.612  14.104  13.470 -0.1197 -0.0419  0.2723
20714W        W37561   6.248  14.699  10.351 -0.1708  0.4962 -0.1563
20715W        W37562  15.784   2.962   2.467  0.1591 -0.3100 -0.0013
20716W        W37563  13.640  11.536   9.946 -0.6515 -0.0812  0.0891
20717W        W37564   0.948  15.680   1.638  0.2425 -0.1032  0.1872
20718W        W37565  12.860   6.495  10.471  0.2886  0.3189  0.4372
20719W        W37566  10.443  12.303  10.117 -0.0728  0.0315  0.2149
20720W        W37567   1.644  13.700   1.382  0.6692 -0.1264  0.0664
20721W        W37568  15.886  12.859   2.728 -0.1179  0.0265 -0.2638
20722W        W37569   0.518  16.528  13.519 -0.1725  0.0263  0.0405
20723W        W37570  14.140  15.775  11.553  0.0604  0.4088  0.2711
20724W        W37571   2.449  15.472  13.058 -0.2278 -0.0869 -0.2531
20725W        W37572   9.367  12.062   9.837  0.0136 -0.3232 -0.2465
20726W        W37573  11.888   3.017   0.005  0.0018  0.0990  0.2213
20727W        W37574  16.146  13.577  10.490  0.1768  0.1242 -0.3009
20728W        W37575  13.275   5.921   4.510  0.0506 -0.0292 -0.3802
20729W        W37576   2.106  18.966   2.989  0.1747  0.0564  0.1473
20730W        W37577  12.392   4.991   4.030  0.4487  0.4166  0.3067
20731W        W37578  14.645  14.791   1.895  0.0645 -0.0036 -0.2081
20732W        W37579   9.132  17.572   2.084  0.1162  0.3715 -0.1048
20733W        W37580   9.258   6.828  14.141 -0.1285 -0.1242  0.0320
20734W        W37581  10.079   5.457   1.999  0.2772 -0.0298  0.1560
20735W        W37582  18.498   2.063   0.462 -0.2761 -0.1878 -0.0314
20736W        W37583   3.111   4.787  10.697 -0.1559  0.0391  0.1587
20737W        W37584  14.381   1.879  14.172 -0.0559  0.0198 -0.1093
20738W        W37585  13.709   9.746   0.155 -0.0632 -0.1577 -0.1129
20739W        W37586  17.260  19.202   3.460  0.0745 -0.4081  0.2592
20740W        W37587   2.680  16.088  10.346 -0.1497  0.0503 -0.0081
20741W        W37588   8.205   2.322   0.203 -0.0553 -0.1655  0.0660
20742W        W37589  16.982  16.858  10.776 -0.0513  0.4776  0.0611
20743W        W37590   6.274  14.631  12.429 -0.1099  0.1350  0.0425
20744W        W37591   9.194   3.174  12.296 -0.1242 -0.2104 -0.3512
20745W        W37592  13.310   7.729   2.125 -0.1360 -0.0299 -0.0363
20746W        W37593  11.188  10.959  13.639 -0.4882 -0.0571 -0.1272
20747W        W37594  11.283  14.219   1.842  0.0764 -0.1475  0.2403
20748W        W37595  17.980  12.817   0.351 -0.0143  0.1145 -0.0534
20749W        W37596  16.942  12.725  10.487  0.0735 -0.0551 -0.0257
20750W        W37597  19.444  18.097  13.403  0.2007  0.3760 -0.4249
20751W        W37598   1.073  16.958  10.857  0.1232  0.1537 -0.2158
20752W        W37599   2.744  18.372  13.127 -0.1157  0.2351  0.0345
20753W        W37600  12.376  19.081  10.080 -0.1795  0.0897 -0.4059
20754W        W37601   9.159  12.513  11.677 -0.0997  0.1527  0.0755
20755W        W37602  16.895   6.647  11.397 -0.2684  0.3597 -0.3190
20756W        W37603  14.729   2.205  10.474 -0.2022  0.0373  0.2617
20757W        W37604   0.167   2.676  11.468 -0.1463  0.0449  0.1829
20758W        W37605   7.634  18.612   4.668  0.0632 -0.3231  0.1047
20759W        W37606   7.960  10.913  10.913  0.3520 -0.2964  0.0014
20760W        W37607  13.294   5.682   2.076  0.0735 -0.0946  0.0534
20761W        W37608  11.704   1.484  13.673  0.1792 -0.2303  0.0144
20762W        W37609   4.380   1.683   9.599  0.0260  0.0585 -0.0996
20763W        W37610   1.577  19.075  11.367  0.1689  0.0502 -0.2213
20764W        W37611   5.532  11.157   1.230 -0.1642 -0.2317 -0.2946
20765W        W37612   1.673  10.680   4.271  0.0681 -0.3148 -0.1438
20766W        W37613   9.900  13.047  11.719 -0.0348  0.1824  0.0820
20767W        W37614  13.938   9.189  10.013  0.3357 -0.3429 -0.2652
20768W        W37615   1.335  13.628   3.765 -0.0059  0.1285  0.3091
20769W        W37616   7.933   4.650   2.543  0.0085  0.0398 -0.1098
20770W        W37617   3.008   0.334  13.441 -0.0348  0.1736 -0.1273
20771W        W37618  14.499  18.440  11.511 -0.2343  0.2219 -0.1477
20772W        W37619   0.398   1.265  11.226 -0.3024 -0.2526  0.2129
20773W        W37620  11.161  19.568   9.753  0.0875  0.0871 -0.2032
20774W        W37621  13.564  11.935   9.511  0.2173 -0.2053  0.2085
20775W        W37622   6.478  13.598   4.482  0.2468  0.0369 -0.0288
20776W        W37623   5.259  16.087  13.215 -0.1084 -0.1530 -0.1601
20777W        W37624   3.918  19.045  13.880 -0.1699 -0.1998 -0.2353
20778W        W37625  19.191   4.816  12.162  0.0209 -0.0177  0.0626
20779W        W37626  18.480  18.116  10.340  0.2080  0.2046 -0.0438
20780W        W37627   7.146   0.187  11.519  0.2528  0.0833  0.1364
20781W        W37628  12.837  13.113   9.874  0.1551 -0.1020 -0.0223
20782W        W37629   0.360  17.361   2.456 -0.0496  0.1127 -0.0778
20783W        W37630  15.184  10.658  10.381  0.0882  0.0550  0.1592
20784W        W37631  11.887  14.808   2.510  0.2555  0.0924  0.1127
20785W        W37632  13.392   9.649  10.634 -0.0169  0.0377 -0.0404
20786W        W37633   8.685   2.809  10.425 -0.1263 -0.1576  0.0790
20787W        W37634  16.936   4.091  11.992 -0.0987  0.0990 -0.0709
20788W        W37635   1.518  12.117   4.516  0.0013 -0.0673 -0.1137
20789W        W37636  12.730  19.875  11.477 -0.1288  0.0555 -0.2086
20790W        W37637  18.626  15.974   2.846  0.0400  0.0183 -0.1504
20791W        W37638  10.098   5.970  10.690 -0.0273 -0.1400 -0.2248
20792W        W37639   9.325  16.496   3.405 -0.0078  0.0502  0.0760
20793W        W37640  10.944   2.973   4.268 -0.4948  0.3393 -0.0762
20794W        W37641   8.404  12.422   3.014 -0.0589  0.1187 -0.0347
20795W        W37642   7.815   4.001  13.916 -0.2140  0.0509  0.3023
20796W        W37643   8.613   1.943   0.140 -0.2480 -0.1769  0.2005
20797W        W37644  15.909   6.791   4.113  0.1509 -0.0757  0.1347
20798W        W37645   3.449  13.058   3.349 -0.0622  0.2063 -0.3174
20799W        W37646  13.115   8.401   1.934  0.3449  0.0176 -0.2323
20800W        W37647  18.072   1.161   2.054 -0.0415  0.3791 -0.1181
20801W        W37648  19.470  12.607   1.957  0.2610 -0.2414 -0.0398
20802W        W37649   6.819  10.283   0.541  0.0704  0.1383  0.1517
20803W        W37650   1.447   2.069   4.431  0.4506 -0.0762  0.0371
20804W        W37651  11.377   2.380  10.162  0.2768 -0.2014  0.1197
20805W        W37652   9.268   7.579  13.367 -0.2001  0.0671  0.2252
20806W        W37653   3.428   9.068  10.087  0.1055 -0.1708  0.1488
20807W        W37654  12.022  15.031  10.547 -0.0723  0.2042  0.1750
20808W        W37655   0.531   1.124  11.958 -0.0308 -0.0575  0.0162
20809W        W37656  18.868  12.187  11.819 -0.0757  0.1356  0.2248
20810W        W37657   0.105   8.715  10.118 -0.3284  0.0117  0.2441
20811W        W37658  16.737   8.702   0.057 -0.0131 -0.1754  0.1208
20812W        W37659   2.792   6.574   0.720 -0.0775 -0.0281  0.2851
20813W        W37660   2.315   7.821  10.817  0.1562  0.1518  0.2388
20814W        W37661  12.794   4.841  12.612  0.3107 -0.0842  0.1521
20815W        W37662  11.634  13.216  12.901  0.0925 -0.0090  0.1363
20816W        W37663   4.781  16.166   4.287  0.2218  0.0390  0.0746
20817W        W37664   7.720   1.616  13.014  0.2430  0.0282  0.1807
20818W        W37665   7.160  19.124   0.353 -0.2224 -0.1021 -0.1886
20819W        W37666  14.717   8.479  13.966 -0.1243 -0.5775  0.1225
20820W        W37667  18.565   8.386   4.135 -0.1155  0.2204 -0.0151
20821W        W37668   6.403  15.708   2.638  0.3011  0.1735 -0.0220
20822W        W37669  12.442  16.729   1.661  0.1383  0.0021  0.0601
20823W        W37670   1.704  10.054   0.870  0.0250 -0.0242 -0.0979
20824W        W37671  10.642   2.056  13.441  0.3823  0.0103 -0.1152
20825W        W37672  19.805  10.575  13.008  0.0609  0.1613  0.0832
20826W        W37673  15.931  14.040   0.747 -0.3256 -0.2352 -0.1367
20827W        W37674   7.121   6.407  13.055  0.2395 -0.2016  0.3460
20828W        W37675   6.049   1.741  13.709  0.1319  0.0580 -0.1191
20829W        W37676   3.922  14.608   9.536 -0.1689 -0.0946 -0.0445
20830W        W37677   0.575  11.238   2.756  0.2123 -0.1799 -0.0451
20831W        W37678  18.140   0.668   2.937  0.0841 -0.0225  0.1061
20832W        W37679  18.522   7.956   1.448 -0.1092 -0.1789 -0.0494
20833W        W37680  10.965  17.830  13.503 -0.0795  0.0218  0.2427
20834W        W37681  11.668  17.955   3.220 -0.2197  0.0804  0.3859
20835W        W37682   1.906   0.190  13.627 -0.3657  0.3089 -0.1372
20836W        W37683   2.681  12.507  12.250  0.0167  0.0327 -0.3624
20837W        W37684   4.566  10.959  11.387  0.1063 -0.0177 -0.2569
20838W        W37685  12.731   7.407  14.318  0.1110  0.0207  0.0865
20839W        W37686   8.687  18.092   9.402 -0.3122  0.3059  0.0712
20840W        W37687   6.086   9.655   3.954 -0.1849 -0.3397 -0.0336
20841W        W37688   4.031  18.391   1.918 -0.3152 -0.0689 -0.4693
20842W        W37689  17.117  18.270   1.340 -0.0952 -0.0742 -0.0313
20843W        W37690   6.938  17.078  13.888  0.0083  0.0203 -0.2013
20844W        W37691  15.921  10.117  10.265 -0.1601 -0.0318  0.0093
20845W        W37692   9.577   7.212  11.507  0.2590  0.1656  0.3016
20846W        W37693  11.777   8.294  10.120  0.4444 -0.2043 -0.1302
20847W        W37694  19.830   6.346   1.689  0.2034 -0.2417  0.2646
20848W        W37695   3.435  14.156   2.196  0.2650  0.2872 -0.0255
20849W        W37696  18.627  17.130   1.502  0.1300  0.1415  0.2273
20850W        W37697   3.320   6.518  11.772 -0.3123 -0.1590  0.0947
20851W        W37698   7.359   4.632   1.838  0.0605  0.0372 -0.0823
20852W        W37699  17.903   3.978  13.821  0.0350 -0.1321  0.2711
20853W        W37700  16.919  13.228  10.812 -0.0431 -0.0208  0.0021
20854W        W37701   2.300   1.026   4.799  0.0904 -0.1461  0.0368
20855W        W37702   2.269   0.478   4.065  0.2206 -0.1699  0.2412
20856W        W37703   9.265  17.510  11.321 -0.1049 -0.0923 -0.1779
20857W        W37704   1.889  12.674  10.571  0.2478 -0.0352 -0.1509
20858W        W37705   2.168   8.343  10.753 -0.0957  0.0994  0.1272
20859W        W37706  17.420  10.108   1.254  0.1444  0.0125 -0.1330
20860W        W37707   9.967   6.394  10.938 -0.1229  0.1117  0.0267
20861W        W37708  18.606   3.510  13.875 -0.0339  0.1480  0.0800
20862W        W37709   2.380  18.702   2.219  0.0363  0.2183 -0.3052
20863W        W37710  10.972   3.974   0.528 -0.1354 -0.0075 -0.1334
20864W        W37711  10.371   4.932   1.945 -0.0638  0.1232  0.0294
20865W        W37712  18.413  19.374  12.505  0.2342  0.1109  0.3816
20866W        W37713   7.633  17.451  13.138  0.0984  0.1345 -0.0632
20867W        W37714  15.410   8.272   2.955  0.2099  0.1397 -0.0675
20868W        W37715  18.847   6.092   0.625  0.2455 -0.0149  0.0385
20869W        W37716   6.298   6.987  10.879  0.0169 -0.4779  0.3770
20870W        W37717  10.422   8.871   0.157  0.0227  0.2909 -0.1502
20871W        W37718   9.041  14.414  11.841 -0.2303 -0.1573  0.0345
20872W        W37719  13.483   9.608   1.378 -0.1481 -0.1755 -0.0959
20873W        W37720   5.871  14.330  10.486  0.2098  0.4992  0.3211
20874W        W37721  18.255   8.101   3.726 -0.2123  0.3544 -0.2137
20875W        W37722   7.678  16.954  12.355  0.3696 -0.2844  0.1881
20876W        W37723   6.773  17.475  13.560  0.0378  0.1940 -0.0597
20877W        W37724  12.684  11.767  12.247  0.0985 -0.0541 -0.0180
20878W        W37725   2.802   8.872   1.418 -0.2044 -0.1225 -0.1611
20879W        W37726  13.021  11.335   1.388 -0.0556 -0.0146 -0.1634
20880W        W37727  11.300   3.152  11.319 -0.2263 -0.0632  0.0780
20881W        W37728   5.243   8.069   2.611  0.1392  0.0217 -0.1193
20882W        W37729  18.857   2.758  13.578 -0.0589 -0.1060  0.0204
20883W        W37730   9.219   1.587   1.603 -0.1483 -0.2457 -0.0579
20884W        W37731  18.346  16.896   1.062 -0.0439  0.2607  0.0690
20885W        W37732  18.257   7.893   2.768 -0.1292 -0.0684 -0.2354
20886W        W37733   3.548  19.640   4.774  0.1187  0.2078 -0.0458
20887W        W37734   6.926   9.221   3.879 -0.0487  0.0796 -0.2800
20888W        W37735  19.111   6.716  11.305 -0.0177  0.0607  0.0712
20889W        W37736   2.061   0.421   9.966  0.1172 -0.2525  0.1773
20890W        W37737   6.836  14.855   3.342 -0.0181  0.0240  0.2209
20891W        W37738  16.134  17.728   1.207 -0.0014  0.1553  0.0357
20892W        W37739   1.650   6.418   2.461  0.3410  0.2097 -0.0431
20893W        W37740   2.728   1.175   0.502  0.0028 -0.0174 -0.2581
20894W        W37741  10.750   4.073   2.919  0.0306 -0.0983 -0.0825
20895W        W37742  18.096  18.955   5.125 -0.0818 -0.1325  0.3668
20896W        W37743  19.442   0.923   2.255 -0.2550  0.0434 -0.0417
20897W        W37744   6.251  16.313   4.158 -0.2491  0.3515 -0.1248
20898W        W37745  15.013  17.390  12.709  0.0409 -0.3815  0.0929
20899W        W37746  15.948  19.173   3.822 -0.2118 -0.2454 -0.1609
20900W        W37747  19.680  15.679   1.002  0.3967 -0.0390  0.0269
20901W        W37748   9.743   8.917  14.131 -0.0220  0.0196  0.0365
20902W        W37749   5.901   1.423  12.839 -0.0359 -0.0142 -0.0041
20903W        W37750   4.562   8.505   2.011 -0.1628 -0.0553  0.1058
20904W        W37751  18.534  13.783   3.185  0.2326 -0.6086 -0.0629
20905W        W37752  12.546   3.168   1.558 -0.1127 -0.2922 -0.2014
20906W        W37753  15.387  17.190   9.818  0.1534  0.0839 -0.2389
20907W        W37754   1.027  10.164  13.331  0.2508 -0.2057 -0.1421
20908W        W37755  13.105   8.205  10.161 -0.1818  0.1270 -0.0889
20909W        W37756   8.706  12.485  13.529 -0.1367  0.3013 -0.0761
20910W        W37757  19.409  14.399   0.504  0.3957  0.1117 -0.0281
20911W        W37758  12.882   2.277  12.597  0.0220  0.0089 -0.0187
20912W        W37759  14.949  14.819   0.628  0.1369  0.0535 -0.0750
20913W        W37760  11.387  19.436  12.823  0.1884  0.2148  0.0774
20914W        W37761  14.451   6.728   4.736  0.2180  0.1330  0.1025
20915W        W37762   4.931  19.838  10.216 -0.0733  0.1411  0.2529
20916W        W37763  15.145   1.987  13.174  0.0684  0.0152  0.1933
20917W        W37764  12.522  13.143  11.174  0.1485  0.0358  0.0671
20918W        W37765  18.370   2.448  13.401 -0.1560  0.0357 -0.1075
20919W        W37766  11.384  19.687   5.178 -0.3063  0.1808  0.2381
20920W        W37767   1.421   2.937   2.578 -0.0860  0.1552  0.1469
20921W        W37768  16.589  11.167  10.413 -0.2991 -0.0329 -0.1176
20922W        W37769  12.469   6.954  12.510  0.3231  0.2127  0.1414
20923W        W37770   1.730  11.098  13.924  0.2085  0.1080 -0.0404
20924W        W37771  19.489   2.494   1.228 -0.0848 -0.0534  0.0036
20925W        W37772  19.119   2.552  13.954  0.0227 -0.0717 -0.1562
20926W        W37773   2.238  10.988   5.178  0.1560 -0.1875  0.0988
20927W        W37774  12.240  19.181  10.695  0.0625 -0.1874  0.0365
20928W        W37775   8.827   9.430  11.226 -0.0759  0.0602 -0.1056
20929W        W37776   6.088  19.009   4.731  0.0623  0.3131 -0.1004
20930W        W37777   7.452   5.983   1.424 -0.2324 -0.0953 -0.0517
20931W        W37778  16.930  16.150  13.857  0.3126 -0.0635  0.0200
20932W        W37779   4.052  15.450   0.573 -0.1395  0.1098 -0.0215
20933W        W37780   4.668   0.384  11.896  0.3431 -0.3250  0.0545
20934W        W37781   1.439   1.171   4.274  0.1518  0.2546  0.5316
20935W        W37782  14.682   6.154  14.246 -0.0667 -0.1656 -0.0552
20936W        W37783  14.461   4.197   2.039 -0.2313 -0.1155  0.1133
20937W        W37784  16.053  19.215   2.297  0.0307 -0.1012  0.0114
20938W        W37785   1.193  19.455  12.588  0.1770  0.1230 -0.2854
20939W        W37786   5.258  11.582   2.628 -0.0520 -0.0246 -0.0464
20940W        W37787  16.717   4.969   0.268  0.2325  0.2731  0.1259
20941W        W37788  18.405   1.110   3.185  0.0311  0.2069 -0.2496
20942W        W37789  17.207  14.908   3.089 -0.3854  0.4240 -0.1795
20943W        W37790   9.712   6.091   9.981  0.2277  0.3808  0.0883
20944W        W37791  13.764   6.282  10.005  0.1450 -0.1325 -0.1253
20945W        W37792   0.012   3.449   1.510  0.0665 -0.2875 -0.6225
20946W        W37793   0.026   5.504   1.393 -0.0087  0.2150 -0.1438
20947W        W37794   4.808  19.586  11.477 -0.1405 -0.2129  0.1977
20948W        W37795   9.048  17.508   4.710 -0.0584 -0.2006 -0.1284
20949W        W37796   6.507   1.879  12.477 -0.1220 -0.1168 -0.0524
20950W        W37797   2.016  11.867  10.411 -0.1276 -0.1934 -0.1950
20951W        W37798  18.605   4.088   4.332 -0.1848 -0.1276  0.1349
20952W        W37799   1.897  10.649   3.757 -0.1488 -0.1156  0.3527
20953W        W37800  17.810   0.073   0.871 -0.2792 -0.0230  0.2241
20954W        W37801   2.535   1.414  13.067  0.0936  0.0031 -0.0775
20955W        W37802  14.662   8.688   9.947 -0.0571  0.0496 -0.2616
20956W        W37803   3.270   5.509   0.935 -0.1510  0.2856  0.0471
20957W        W37804  10.255   3.740  13.619  0.4265  0.0137 -0.0192
20958W        W37805   2.506   0.980   2.998 -0.3888  0.0052 -0.0218
20959W        W37806  17.525  11.479   4.991 -0.3521  0.0582  0.0574
20960W        W37807  17.037  15.048   9.964 -0.2495 -0.1829  0.1106
20961W        W37808   5.655   2.629  12.184  0.4704  0.0153  0.1607
20962W        W37809  16.881   2.012   3.126 -0.1775  0.1082 -0.0922
20963W        W37810   2.127  13.423  13.132  0.2502  0.0013 -0.1617
20964W        W37811  13.474  10.574   1.548  0.1129  0.0926 -0.1645
20965W        W37812  15.181  14.288  14.123  0.1505 -0.0286  0.2039
20966W        W37813   2.807  16.363  11.681  0.0399  0.4699 -0.0769
20967W        W37814  18.822   1.693  12.339 -0.0402  0.1152 -0.1095
20968W        W37815   1.910  13.118  11.538 -0.0937 -0.0745 -0.1529
20969W        W37816   1.379   9.951   3.368 -0.0317  0.1830  0.4325
20970W        W37817  10.105  12.501  12.316 -0.1930 -0.1103  0.5381
20971W        W37818  11.518   6.597  12.528  0.2522 -0.1554 -0.1722
20972W        W37819   8.188  19.252   4.434  0.1795 -0.4250  0.2183
20973W        W37820  14.060   8.562   2.667  0.0019 -0.1554 -0.1633
20974W        W37821   6.800   0.077  14.288  0.0380  0.1757 -0.1130
20975W        W37822  16.886  12.189  14.276 -0.0538 -0.1620  0.2194
20976W        W37823  16.532   9.200  10.625  0.1977 -0.4754 -0.1376
20977W        W37824  14.567  15.387  14.111 -0.1688 -0.0043  0.1537
20978W        W37825  13.467  15.236   0.023 -0.4078  0.0676 -0.0859
20979W        W37826  18.398  18.415   2.852 -0.0350 -0.1408  0.1221
20980W        W37827  11.992   1.266  12.051  0.0277  0.2154  0.1687
20981W        W37828   5.473  13.583   1.910 -0.4894 -0.1262  0.1542
20982W        W37829   4.048   0.077   3.363  0.0415 -0.0383  0.1935
20983W        W37830   2.508   3.913   2.722  0.4260  0.0601  0.2929
20984W        W37831  10.215   7.307   3.688  0.3070 -0.1900  0.1003
20985W        W37832   3.961   8.156   3.162 -0.1212  0.2217  0.1666
20986W        W37833  10.739   7.257   1.971 -0.0078 -0.1418 -0.5460
20987W        W37834   2.613   7.371  13.983  0.4251  0.0758  0.0998
20988W        W37835  10.697   4.206  11.779  0.0794 -0.1839 -0.0382
20989W        W37836  11.074   4.361  10.125 -0.0787  0.3967 -0.2552
20990W        W37837   4.653  15.764  10.347  0.1429 -0.0151 -0.2804
20991W        W37838   5.785  10.264  12.863  0.1132 -0.2531  0.0367
20992W        W37839  12.282  19.686   2.095 -0.0052  0.0366 -0.3168
20993W        W37840   6.027  15.378   2.978 -0.2406 -0.0961  0.0420
20994W        W37841   7.821   5.072   2.878  0.0069  0.2282 -0.3134
20995W        W37842  13.948   4.990  13.870  0.0855 -0.1352  0.2205
20996W        W37843  19.645   9.810  11.227  0.4881  0.1988 -0.1094
20997W        W37844  13.396   6.985   4.047 -0.0162  0.0895 -0.0103
20998W        W37845   1.484   2.955   0.868 -0.0319  0.0242 -0.0085
20999W        W37846   6.754   7.530   4.593  0.1151 -0.1388 -0.0212
21000W        W37847  10.503   7.336  14.048  0.1503  0.0170  0.0770
21001W        W37848  14.178  18.274  10.339 -0.0108 -0.2031 -0.0153
21002W        W37849  15.624   2.513  11.948 -0.0254  0.3558  0.3571
21003W        W37850  11.463   0.805   0.666 -0.0099 -0.3512 -0.2278
21004W        W37851  16.357   3.762   3.950  0.1213  0.0091  0.4157
21005W        W37852   0.014  13.229   2.981 -0.3083  0.1063  0.0883
21006W        W37853  14.659  19.322  11.255 -0.1862 -0.3162  0.1970
21007W        W37854   3.894  15.481   4.206  0.1534 -0.2329 -0.2074
21008W        W37855  18.539   1.440  12.658 -0.2311 -0.0661 -0.0434
21009W        W37856   7.896  13.572  11.891 -0.2298 -0.2734 -0.2354
21010W        W37857  18.466   4.574   1.058  0.0212  0.2408  0.0512
21011W        W37858   5.176   1.125  11.043  0.0105  0.2018  0.0237
21012W        W37859   7.375  14.971   3.233  0.0735  0.1130 -0.0539
21013W        W37860  11.616  15.898  11.540  0.4148  0.2760 -0.0551
21014W        W37861  19.235   6.842  13.092 -0.0207 -0.0284 -0.0388
21015W        W37862   7.660   2.422  10.328  0.0969  0.2758  0.2072
21016W        W37863   1.570   1.510  13.842  0.2201 -0.1877  0.2892
21017W        W37864  16.086   9.289  14.060 -0.4140  0.0389  0.1014
21018W        W37865   2.642   8.528   2.182 -0.1409  0.0294 -0.1129
21019W        W37866   9.082   7.515  11.626 -0.2155 -0.1396  0.0212
21020W        W37867  18.838  11.620  10.462  0.1058  0.3206 -0.2883
21021W        W37868  12.842  13.614  13.449 -0.0985  0.3691  0.1644
21022W        W37869   0.115  13.199   4.336 -0.0414 -0.1438  0.2794
21023W        W37870  15.105   1.917  10.606  0.1787 -0.2698  0.2753
21024W        W37871  16.281   0.741   5.111 -0.1588  0.0635 -0.0879
21025W        W37872  16.406   5.153   8.882  0.0657  0.0608 -0.0940
21026W        W37873  18.216  16.778  14.080  0.2144  0.0815 -0.1920
21027W        W37874   3.193   5.922   0.124 -0.1207  0.2396  0.1359
21028W        W37875   2.542  14.975   0.832  0.0381  0.0690  0.2388
21029W        W37876   0.462   9.574   0.129  0.3379  0.3557  0.1716
21030W        W37877  14.433   8.236  11.569 -0.2148 -0.0825 -0.1108
21031W        W37878   8.920   6.500   3.145 -0.2450 -0.3982  0.0992
21032W        W37879  18.724  10.598  11.810  0.2359 -0.1093  0.0140
21033W        W37880  17.710   5.939   4.306  0.3876 -0.0522 -0.0061
21034W        W37881  18.719  16.817   9.502  0.3408 -0.0653 -0.1030
21035W        W37882   1.579  15.296   3.913  0.0745 -0.0176 -0.2359
21036W        W37883   5.738  14.023   0.786 -0.1685  0.3495 -0.2434
21037W        W37884   1.646   5.772   0.535  0.0593  0.1350 -0.2745
21038W        W37885  11.276   4.928   0.756  0.0955  0.1546 -0.3087
21039W        W37886  18.913  13.515   2.844  0.0939  0.0138 -0.2089
21040W        W37887   8.814  12.342  12.524  0.0836  0.0345  0.2656
21041W        W37888  14.485  13.174   3.624  0.4796 -0.0372 -0.0307
21042W        W37889  10.497  12.841   1.166  0.2688 -0.2545 -0.2626
21043W        W37890   0.081  19.653   5.410  0.0624 -0.1311 -0.1972
21044W        W37891  10.579   1.737   3.713 -0.0819 -0.0207  0.1568
21045W        W37892   8.319  18.023  13.811 -0.0008 -0.3279  0.4086
21046W        W37893   5.999   5.302   0.943 -0.1088  0.0538  0.1663
21047W        W37894   6.541   3.650   3.736  0.0556  0.2323  0.2035
21048W        W37895   6.108  13.951   2.688  0.0439 -0.1929  0.1031
21049W        W37896  11.210   9.470   4.197  0.0196  0.0415 -0.1658
21050W        W37897   8.280  19.848  11.268 -0.3064  0.0347 -0.0750
21051W        W37898   9.629   4.343  11.420 -0.0157 -0.0962  0.2355
21052W        W37899  19.404   9.571   0.924 -0.3142  0.0617  0.1307
21053W        W37900   0.201   9.634   1.560 -0.0045 -0.3572  0.2269
21054W        W37901  15.727   9.621   0.049 -0.2050  0.3673 -0.1101
21055W        W37902  18.048   2.157  13.046 -0.3073  0.1295 -0.1470
21056W        W37903   8.016  18.610   2.354  0.0015 -0.0218  0.0218
21057W        W37904   2.574  12.461   2.167 -0.0066  0.0881 -0.2476
21058W        W37905   8.728   7.791   5.072 -0.1538 -0.0042 -0.0119
21059W        W37906   1.887  12.911   3.749 -0.1200 -0.3445  0.1789
21060W        W37907   1.274  11.418  12.364 -0.0901  0.0431 -0.1487
21061W        W37908   7.169  13.694   0.365  0.0099 -0.2074 -0.2024
21062W        W37909   4.012   2.094   2.576 -0.0954 -0.0711 -0.1565
21063W        W37910  11.488  17.966  11.768 -0.2253 -0.2115  0.0628
21064W        W37911  17.946   7.229  10.165  0.0498 -0.1362 -0.0610
21065W        W37912  16.912  15.055   0.483 -0.0452  0.1756  0.0046
21066W        W37913   7.807  10.606   4.610  0.2192  0.0550 -0.0374
21067W        W37914   4.525  19.151  13.040  0.0014  0.0725 -0.1337
21068W        W37915   8.562   3.232   1.509  0.1041 -0.0166 -0.0824
21069W        W37916  16.802  10.164   0.367  0.3151  0.2276  0.0179
21070W        W37917  10.813   5.952  13.547 -0.1400 -0.0012  0.1215
21071W        W37918  12.773  16.640   9.578 -0.2185  0.0064 -0.0263
21072W        W37919  13.744   1.461  11.809  0.1045 -0.3951 -0.2887
21073W        W37920  14.417   6.838  10.536 -0.2669 -0.2671 -0.1080
21074W        W37921   2.524   9.741  13.205  0.1489 -0.0431  0.0617
21075W        W37922   1.851  12.196  13.078  0.2951  0.2936  0.0513
21076W        W37923   7.601  15.184  14.201  0.4782  0.0427 -0.0458
21077W        W37924  15.138   6.391  14.195  0.1003  0.3932 -0.1342
21078W        W37925   0.100   2.631   1.240 -0.2852 -0.0516 -0.1738
21079W        W37926   5.402   4.104  13.376 -0.3838  0.1908  0.3619
21080W        W37927   7.828  16.593  13.699 -0.0747 -0.1479 -0.5022
21081W        W37928   3.356  16.700   0.033  0.0010  0.0372  0.1388
21082W        W37929   4.962  19.356   5.488  0.0610 -0.1122  0.5964
21083W        W37930  10.872   4.705   2.129  0.0985  0.0982  0.0843
21084W        W37931   6.432  17.986   3.678 -0.0085  0.1115 -0.1142
21085W        W37932   6.287   3.852   3.367  0.2673 -0.0034  0.1687
21086W        W37933   8.679  10.764  11.845 -0.1176 -0.1227  0.0296
21087W        W37934  19.379  16.488   0.735  0.3783 -0.0023 -0.0790
21088W        W37935   9.467  17.493  13.090  0.3261 -0.2002 -0.0253
21089W        W37936  15.880  16.565   3.206  0.0068  0.2359 -0.0808
21090W        W37937  13.683   8.241  10.474 -0.1212 -0.3413  0.2601
21091W        W37938   4.558   6.108   2.015  0.0450  0.2097 -0.0645
21092W        W37939  18.038   9.526   3.782 -0.0775 -0.1153  0.2105
21093W        W37940  19.608   5.239  12.405 -0.1386 -0.0450  0.1145
21094W        W37941  10.078   7.213   9.704  0.2200 -0.0653  0.2853
21095W        W37942  18.233  16.727  12.735  0.0661  0.0512  0.0322
21096W        W37943   0.491  14.974   2.466  0.1167  0.0538  0.1077
21097W        W37944   8.594   3.791   1.139  0.1953 -0.0449 -0.0401
21098W        W37945  11.076   0.210   4.207  0.2141 -0.1668  0.1705
21099W        W37946  16.850  19.606   1.538  0.1402 -0.0893 -0.2082
21100W        W37947   3.456   1.398  11.706 -0.1872 -0.1382  0.2190
21101W        W37948   9.177   8.060  13.139 -0.1314 -0.2585  0.2421
21102W        W37949   4.285  15.476   4.814  0.1908 -0.2293 -0.1900
21103W        W37950  18.109  16.113   2.858 -0.0423 -0.0201 -0.2159
21104W        W37951  14.653  18.868   1.940 -0.3956 -0.3288  0.1153
21105W        W37952  12.941   6.870   4.209  0.2405 -0.2518  0.1559
21106W        W37953   4.201   3.718   1.400  0.0257 -0.0171 -0.2922
21107W        W37954   7.338   4.386  11.010 -0.1535  0.1940 -0.1821
21108W        W37955  16.986   5.624   2.341 -0.0580  0.2358  0.0094
21109W        W37956   6.477  19.471  13.597  0.0260  0.0440  0.1200
21110W        W37957  16.282   0.472  14.328  0.0368 -0.1877  0.1888
21111W        W37958   9.180  10.724   3.333  0.0557  0.2192  0.1547
21112W        W37959   9.017   8.811   1.288  0.2880  0.2423 -0.3517
21113W        W37960   6.320   8.676  10.045 -0.1228 -0.3505  0.2415
21114W        W37961   4.672   7.384   2.402 -0.3204 -0.1316  0.3267
21115W        W37962  15.047  19.799  13.745 -0.1477 -0.2041 -0.0839
21116W        W37963  10.014  17.767  12.017  0.0455  0.1145  0.0026
21117W        W37964   5.248   4.355  13.880  0.2314 -0.1482 -0.2377
21118W        W37965  16.835   5.054   0.792  0.0663 -0.1929  0.4673
21119W        W37966   9.570   6.135   0.076  0.1862  0.0880 -0.3933
21120W        W37967   0.302   4.932   0.612 -0.3304 -0.0381  0.0681
21121W        W37968   8.262   5.738  13.213 -0.1246  0.1381  0.0767
21122W        W37969  12.357  16.955  12.998  0.1678 -0.1496  0.1445
21123W        W37970  16.325  13.366   0.747 -0.2909 -0.1360  0.1593
21124W        W37971   7.102  17.067  11.511 -0.0342  0.1107  0.1570
21125W        W37972   2.176   1.448   4.490 -0.1224  0.0719 -0.2098
21126W        W37973   5.771   9.635  13.977 -0.1222 -0.0222 -0.0979
21127W        W37974   7.028  12.529   2.580 -0.1332  0.1145 -0.3263
21128W        W37975   7.628   9.775   3.671 -0.1284 -0.0217  0.0029
21129W        W37976  13.586   3.656   2.459 -0.0338  0.2438 -0.3414
21130W        W37977  10.763  18.595   0.752 -0.1336  0.0406  0.1660
21131W        W37978  14.875   3.007   2.468  0.0952  0.1446  0.0238
21132W        W37979  12.405   7.136   2.788 -0.0056  0.0245 -0.3540
21133W        W37980  17.557  19.656   3.629  0.0969 -0.3976  0.0636
21134W        W37981   1.512  14.437  11.509  0.0453  0.4311 -0.0559
21135W        W37982  12.062  10.479  10.510 -0.1109  0.0401  0.1416
21136W        W37983  16.781  16.696   3.150  0.0353 -0.3737 -0.0649
21137W        W37984  14.398   0.059   1.058 -0.1941  0.0059 -0.0362
21138W        W37985   9.583   4.256  12.832 -0.0784 -0.2707 -0.2624
21139W        W37986   6.378   0.238   3.171  0.0409 -0.0387 -0.1241
21140W        W37987   9.817   1.379   0.697 -0.1092 -0.4201 -0.2291
21141W        W37988  11.108  18.518  13.744 -0.2169 -0.0852  0.2001
21142W        W37989   5.781  12.058  12.882  0.0037 -0.0828  0.0740
21143W        W37990   2.409   1.876   4.505  0.1309 -0.1220  0.3153
21144W        W37991   4.031  15.754  13.682  0.3324  0.1751 -0.0987
21145W        W37992   4.463  10.727  13.391  0.0789 -0.2082 -0.0539
21146W        W37993   1.561   1.120  13.278 -0.0588 -0.0515 -0.0920
21147W        W37994  18.567   8.260   2.790 -0.1467  0.1196 -0.0199
21148W        W37995  13.589   5.407   3.039  0.1231  0.2936 -0.0300
21149W        W37996   2.061  17.621   1.743 -0.0681 -0.1376  0.0960
21150W        W37997  15.823   8.339   3.763 -0.1962 -0.2575 -0.1097
21151W        W37998  13.483   1.705   2.436  0.0672  0.2248  0.2032
21152W        W37999  10.599   6.175  12.720  0.1185 -0.1177 -0.0924
21153W        W38000   2.474  10.628   0.234  0.2747 -0.3203 -0.1353
21154W        W38001   9.061   6.324   1.710 -0.0088 -0.0061 -0.1586
21155W        W38002   2.822  16.562   5.190 -0.3779  0.0477  0.1547
21156W        W38003  18.169  15.953   2.007  0.0263  0.0857 -0.1855
21157W        W38004   5.604   2.329  12.705 -0.1273 -0.1295  0.2258
21158W        W38005   8.674   2.986   4.580 -0.0806 -0.1796 -0.0252
21159W        W38006   8.568  15.230   0.201 -0.0462  0.1734  0.1349
21160W        W38007   4.041   4.787  14.087 -0.1270 -0.0491 -0.0275
21161W        W38008   7.387  17.205  12.677  0.1621  0.1710 -0.2599
21162W        W38009   8.771   6.427   0.386  0.0355  0.0517 -0.2294
21163W        W38010  13.090   6.887   2.599 -0.0454  0.1527 -0.1193
21164W        W38011   2.809  10.899   1.045 -0.0449 -0.1095  0.0826
21165W        W38012  15.068   6.424   0.328 -0.1999 -0.0147 -0.0750
21166W        W38013   6.567   7.715   2.708  0.0989  0.0157 -0.1243
21167W        W38014   2.183  12.516   3.488 -0.2612  0.0385 -0.2248
21168W        W38015   6.549  16.215  11.992 -0.0586  0.2004 -0.2916
21169W        W38016   3.646  16.888   3.180  0.1354  0.0103  0.1365
21170W        W38017   8.454  13.360   0.288  0.1983  0.0109  0.0784
21171W        W38018   2.110  14.574  12.460 -0.0908  0.0307 -0.1523
21172W        W38019  18.258  15.865   3.301  0.4594 -0.0965 -0.0801
21173W        W38020  17.434  13.660   3.233  0.2876 -0.0132 -0.0936
21174W        W38021   2.450   9.142  12.528 -0.2017 -0.0001 -0.0957
21175W        W38022   8.217  10.376  12.095 -0.1397  0.1707 -0.1063
21176W        W38023  14.518  15.905   0.096 -0.2192  0.0937 -0.1299
21177W        W38024  11.734  10.823  10.334 -0.1424 -0.1504 -0.2401
21178W        W38025  19.653  15.326  13.963 -0.0999  0.0277  0.1028
21179W        W38026  14.048   2.046   9.806 -0.0132  0.1050  0.1925
21180W        W38027  17.722  17.662  11.414 -0.2797  0.0699  0.1383
21181W        W38028   6.831   7.157   2.817 -0.3020 -0.1005  0.1166
21182W        W38029   0.218  15.346  12.809  0.5157  0.2491 -0.2862
21183W        W38030   7.328   8.751   0.474  0.0690  0.1962 -0.1594
21184W        W38031  11.302  14.804  11.608 -0.2817  0.1797 -0.0525
21185W        W38032  10.826   0.890  10.523 -0.1676 -0.1661  0.0231
21186W        W38033   2.139  10.858   4.237  0.1073  0.0409 -0.1250
21187W        W38034   7.292  18.115  14.097 -0.1290  0.0640 -0.5039
21188W        W38035  12.675   6.918   2.321  0.3580  0.4239  0.0702
21189W        W38036   8.446  13.423   4.618  0.0799 -0.0423 -0.1677
21190W        W38037  12.148  19.490  13.411  0.1117  0.1417 -0.0819
21191W        W38038  16.212   6.454  13.680 -0.2225 -0.0831 -0.1523
21192W        W38039   5.503   2.662   3.647 -0.0275  0.1284  0.1743
21193W        W38040  17.593  13.312   1.970 -0.1660 -0.2100  0.0002
21194W        W38041   2.029  16.776  10.541  0.0846  0.3287 -0.0140
21195W        W38042   4.965  12.879   9.433  0.3090  0.3116  0.2082
21196W        W38043  19.149  12.562   2.904  0.0397 -0.1988 -0.3521
21197W        W38044   5.224  13.700   9.834 -0.1203  0.2238  0.1424
21198W        W38045  13.591  12.169  12.212  0.3324  0.2471  0.3666
21199W        W38046  18.709  16.063  10.890  0.1043  0.0217 -0.2147
21200W        W38047  10.513   3.684   1.502 -0.0109 -0.4941  0.0073
21201W        W38048   0.157  19.668   9.914  0.3573  0.1790  0.2555
21202W        W38049   4.735   9.527   2.608  0.0060 -0.1258 -0.1658
21203W        W38050   1.523  10.224   4.654 -0.1209 -0.1974 -0.3589
21204W        W38051  12.536   1.388   2.140 -0.0302 -0.1449 -0.0839
21205W        W38052   8.261  14.066  12.703  0.0886 -0.4076  0.3379
21206W        W38053  10.811  16.517   1.359 -0.1803 -0.4472 -0.2289
21207W        W38054   2.788  12.086  11.078 -0.3986  0.5577 -0.0476
21208W        W38055   4.630   8.445   4.768  0.0919 -0.2687 -0.1531
21209W        W38056   7.709  17.892   3.192  0.0515 -0.0671 -0.1742
21210W        W38057  13.815   1.980   2.688  0.1493  0.1650  0.4420
21211W        W38058  17.025  16.642   1.575 -0.0589  0.0508 -0.0760
21212W        W38059  15.459   2.874   0.075 -0.2331  0.0192  0.2483
21213W        W38060  11.628  17.203   1.426 -0.1617 -0.2225 -0.1219
21214W        W38061   0.226  16.538  12.029  0.2022 -0.1272  0.0854
21215W        W38062   0.467   0.850   1.134  0.0448  0.3735  0.0103
21216W        W38063   2.748  14.764   3.832  0.1420  0.1799  0.0500
21217W        W38064  18.279   3.078   9.717 -0.1088 -0.0192 -0.0941
21218W        W38065  14.572  17.948   4.901 -0.1877  0.2523 -0.0989
21219W        W38066  10.781  11.648   2.151 -0.0867  0.3307 -0.2075
21220W        W38067  10.490  10.660   1.286  0.0903  0.1365 -0.2212
21221W        W38068  13.073   8.041  12.293 -0.1169  0.1597 -0.2247
21222W        W38069  14.841  11.318   4.157  0.0002  0.0469  0.2575
21223W        W38070  19.816  18.875  13.538 -0.0805 -0.0385  0.0975
21224W        W38071   4.992  15.725   2.221 -0.1984 -0.3804 -0.0364
21225W        W38072  14.024   8.703   0.820 -0.0665 -0.1677  0.1908
21226W        W38073   7.411   5.308   3.888 -0.1974  0.0238  0.0758
21227W        W38074   3.232   3.105   1.203  0.0125  0.2978  0.0845
21228W        W38075  19.202  18.391   4.811  0.4551 -0.0131  0.1456
21229W        W38076  16.071  19.403  13.183 -0.1125  0.2038  0.0780
21230W        W38077   3.188  17.161   4.418  0.0412 -0.2630 -0.3362
21231W        W38078  15.317  12.644  10.953 -0.2336  0.0883  0.1115
21232W        W38079   1.270   7.368   2.355 -0.0262 -0.1401  0.1671
21233W        W38080   2.085  15.536   1.815 -0.1856 -0.4307  0.2088
21234W        W38081   3.456  13.458   5.532  0.2195  0.2305  0.1296
21235W        W38082  10.281   0.291   0.832 -0.0030  0.0711 -0.0308
21236W        W38083  10.460   0.190   9.027  0.0850  0.0444  0.1886
21237W        W38084   0.394   6.515  12.576 -0.1246  0.2727  0.1096
21238W        W38085  17.189   4.752  13.932 -0.0974 -0.2366  0.1213
21239W        W38086   6.430   9.224  10.090  0.1296 -0.0411  0.1203
21240W        W38087  19.615  13.754   0.292 -0.0614  0.4125  0.1005
21241W        W38088   7.944  14.354   9.815 -0.1667  0.0613  0.4201
21242W        W38089  15.073  12.534   0.071  0.1179 -0.0867  0.3680
21243W        W38090   0.782   7.499   1.376 -0.0141 -0.4008  0.1043
21244W        W38091  19.066  13.484  13.913 -0.2521 -0.1800 -0.0463
21245W        W38092   2.946   0.747  13.034  0.0465 -0.3153 -0.0105
21246W        W38093   2.117  13.651  12.319  0.0295 -0.4062  0.0215
21247W        W38094   0.190   4.940   3.354  0.1917 -0.0745 -0.3537
21248W        W38095   8.231   8.872   4.197  0.4365 -0.1124  0.5337
21249W        W38096  14.717  16.833  10.286  0.5205  0.0126 -0.1661
21250W        W38097   6.528   5.806  12.347 -0.0537 -0.2868  0.1974
21251W        W38098   3.653  11.735  10.769 -0.3061  0.0726  0.2753
21252W        W38099  15.396   9.182  14.322 -0.1815  0.0102  0.0899
21253W        W38100   8.513  18.510  12.002  0.4294  0.0698  0.0866
21254W        W38101   6.480   0.681   3.481 -0.1536 -0.0126 -0.2937
21255W        W38102   1.396  15.637   5.087 -0.1791 -0.0631  0.0670
21256W        W38103   7.760   5.214   4.353  0.0851  0.2296 -0.0231
21257W        W38104   5.354   5.320  14.003 -0.0192  0.0675 -0.4680
21258W        W38105   3.871   5.864   4.513 -0.0613  0.1087  0.0852
21259W        W38106  15.416   5.814  10.266 -0.0659  0.3851 -0.3188
21260W        W38107   7.960  10.940  14.028  0.0347 -0.0930  0.0858
21261W        W38108  14.637   9.345   4.621  0.1963 -0.2289 -0.0894
21262W        W38109   2.087  11.954  11.708  0.4220  0.0965 -0.2386
21263W        W38110   9.897  16.441   1.082 -0.0887 -0.1282 -0.1741
21264W        W38111  12.910  10.493   4.293 -0.1108 -0.0867 -0.0746
21265W        W38112   4.915   3.184   1.829  0.1025  0.1990  0.3216
21266W        W38113  14.841   9.022  12.019  0.1446 -0.4203 -0.0620
21267W        W38114  17.503  12.719  10.715  0.0713  0.1280  0.1061
21268W        W38115   2.725   4.103   0.002 -0.1423  0.1407 -0.0597
21269W        W38116   8.049  15.625  10.442 -0.2037  0.0919  0.1991
21270W        W38117   1.921   4.993  11.009 -0.3640 -0.0424  0.1043
21271W        W38118   2.831   2.775  11.078 -0.1400 -0.2316  0.2203
21272W        W38119  18.651   5.003   5.630  0.2173 -0.0029 -0.1559
21273W        W38120   7.077   5.599   1.898  0.1083 -0.0892  0.0253
21274W        W38121   5.429   3.671   0.247  0.0944 -0.0692 -0.2748
21275W        W38122   1.075  13.626  11.388 -0.1137 -0.2710  0.2584
21276W        W38123  17.620   6.891   1.081  0.0309 -0.2438 -0.3826
21277W        W38124   1.341  11.571   9.933 -0.3064 -0.0033 -0.1010
21278W        W38125   8.893   6.085  11.071 -0.0637  0.1099 -0.0050
21279W        W38126   6.178   4.035   3.793 -0.0517 -0.2591  0.0594
21280W        W38127   7.524   2.369  12.641 -0.1558 -0.0988  0.1200
21281W        W38128   9.679   2.509   2.107  0.3868 -0.1346  0.5130
21282W        W38129  16.797  15.661   1.366 -0.0966  0.3754  0.0968
21283W        W38130   4.443  18.849  11.076  0.0285 -0.3168 -0.2003
21284W        W38131  12.477  13.516  11.770 -0.2228  0.0692 -0.2549
21285W        W38132  10.199   2.234  13.877  0.1538  0.2882  0.0273
21286W        W38133  16.033   6.750  11.177 -0.1099 -0.1057  0.2696
21287W        W38134   9.056   3.440  11.021 -0.1337 -0.1602  0.1256
21288W        W38135   2.412  19.452  11.662  0.1531 -0.1042  0.0035
21289W        W38136   9.998  16.838  11.041  0.1353  0.0599  0.0192
21290W        W38137   6.395  15.045   1.944 -0.4157  0.3078  0.1030
21291W        W38138  19.815  17.019   1.180  0.0666  0.0158  0.0258
21292W        W38139  19.767  15.061  11.347  0.0640 -0.2378  0.1833
21293W        W38140   3.375  10.215   1.182  0.2279  0.2033  0.3335
21294W        W38141   4.232  17.705  14.177 -0.1683  0.0164  0.1834
21295W        W38142  13.827   1.992   2.023  0.3367  0.0618 -0.1847
21296W        W38143   0.593  17.966  11.051 -0.0277  0.2070 -0.1264
21297W        W38144   0.565  14.217  10.429  0.0753  0.0456  0.0690
21298W        W38145   8.884  11.512  13.437 -0.1976 -0.1260 -0.1701
21299W        W38146   9.781   3.069  12.146 -0.1348  0.1681 -0.0048
21300W        W38147  16.186   0.011   2.698  0.0031  0.1667  0.1088
21301W        W38148  14.260  12.968  10.838 -0.2465  0.2271  0.0128
21302W        W38149  10.305  14.720   3.585 -0.0893 -0.0880  0.2205
21303W        W38150  18.206   2.387   2.921  0.3499  0.1900  0.0638
21304W        W38151   9.163   3.060  11.785 -0.0437 -0.1639  0.5316
21305W        W38152  18.299   3.366   2.868  0.0482  0.1292 -0.1617
21306W        W38153   4.330  19.382   2.147 -0.0319  0.2827  0.1225
21307W        W38154   8.543  18.751   4.053  0.1415 -0.0097  0.2012
21308W        W38155  15.007  10.985   9.908 -0.2196 -0.2102  0.1414
21309W        W38156   3.317   5.219   4.514  0.4014  0.1218  0.0731
21310W        W38157   8.250  17.785   0.130  0.0513  0.0521  0.1638
21311W        W38158  15.919  18.123   1.103  0.0040 -0.1254 -0.5668
21312W        W38159   5.975  13.626   5.772  0.0294  0.0242 -0.2488
21313W        W38160  17.427  18.207   0.064 -0.1833  0.1246  0.1514
21314W        W38161  18.305  17.933  11.667  0.0215  0.1294  0.0334
21315W        W38162  18.489   0.796  11.464 -0.1525 -0.1775 -0.0503
21316W        W38163  18.981   2.005   3.378 -0.0475  0.1313 -0.0639
21317W        W38164   2.683   2.026   9.101  0.1589 -0.1414 -0.2258
21318W        W38165   2.010   1.028   3.426  0.4281 -0.1926 -0.0375
21319W        W38166  14.348  13.117   2.600  0.0716  0.1248 -0.0524
21320W        W38167   8.254   2.109   2.269 -0.1068 -0.0088  0.1502
21321W        W38168  18.309  11.768   9.915  0.1430  0.0128 -0.0209
21322W        W38169  15.245   3.957   0.884  0.0594  0.2523 -0.0269
21323W        W38170  17.247   6.436   2.488  0.0644 -0.0390 -0.0331
21324W        W38171  19.757   4.668  11.262  0.0851 -0.3325 -0.3248
21325W        W38172  17.988   0.164   5.000 -0.2752  0.0480  0.1786
21326W        W38173   1.637  13.232   2.483  0.1768  0.0199  0.1818
21327W        W38174  18.223  10.638   1.128  0.1134  0.1252  0.0106
21328W        W38175  12.429  10.550   1.331 -0.1929 -0.0990 -0.4011
21329W        W38176  11.454  14.305   0.919 -0.0483 -0.0353  0.3203
21330W        W38177  18.625  18.153   1.789  0.1084  0.0466 -0.2176
21331W        W38178  18.584  17.956  11.240  0.0213 -0.0632 -0.0273
21332W        W38179   4.751   4.176  14.046  0.0028 -0.0590  0.0722
21333W        W38180  15.665  18.320   2.032  0.4346  0.0762  0.1329
21334W        W38181   4.187  18.015   0.238  0.1634 -0.0818 -0.1957
21335W        W38182  11.276  12.463  13.375 -0.0913 -0.4546 -0.4457
21336W        W38183   0.567  15.875   0.282 -0.2259 -0.0789  0.0334
21337W        W38184   6.038   6.573  11.185  0.2141 -0.2140  0.3161
21338W        W38185   8.146  11.913   0.823  0.3989  0.2310  0.1966
21339W        W38186  18.118  15.828   0.031  0.1941  0.2016 -0.1164
21340W        W38187  17.889  18.725  12.848  0.1180 -0.1015  0.2447
21341W        W38188  17.664  19.500  14.144  0.3887 -0.1917  0.0973
21342W        W38189   9.209  15.375  10.457 -0.2057 -0.2380 -0.2089
21343W        W38190   8.146  17.902   4.465  0.0037 -0.1397 -0.2973
21344W        W38191   7.834   0.537   1.720  0.0839 -0.1169  0.1395
21345W        W38192  19.536   9.281   4.205 -0.0605 -0.0183  0.0935
21346W        W38193  16.183  11.778  12.493  0.1315  0.2414  0.1260
21347W        W38194   1.414  11.939  13.160  0.0037 -0.1123 -0.1108
21348W        W38195   7.270  14.782  13.775 -0.0152  0.0858  0.2444
21349W        W38196  16.182   0.460   1.468  0.1292  0.1129 -0.1763
21350W        W38197   5.645   7.133   9.687 -0.0821 -0.0288  0.0101
21351W        W38198   2.636   1.439   1.811 -0.0355  0.0950  0.3762
21352W        W38199  10.393   5.579  13.508  0.1697  0.0986 -0.0734
21353W        W38200   5.961  16.106  12.089  0.1830 -0.0343 -0.0707
21354W        W38201  10.087  16.034  12.983 -0.0199  0.1155 -0.2420
21355W        W38202  17.294   1.431  10.222  0.0607 -0.1761  0.0238
21356W        W38203  11.282   4.967   1.892 -0.0357  0.0477 -0.3988
21357W        W38204   5.005   2.250  10.726 -0.0076 -0.0309  0.1056
21358W        W38205   1.796  13.457   2.954 -0.2178  0.0126  0.0340
21359W        W38206  17.369   3.338  11.698 -0.0259 -0.0614 -0.0201
21360W        W38207   9.180  10.249   1.933  0.1022 -0.2772 -0.0803
21361W        W38208  10.927  14.959   2.275 -0.0677 -0.0171 -0.3182
21362W        W38209   5.712  12.737   1.100  0.0100 -0.0012 -0.0982
21363W        W38210   1.070  12.108   2.830  0.2235  0.0609 -0.2880
21364W        W38211   2.394  13.805   4.659 -0.2664 -0.4600  0.0152
21365W        W38212  13.488   7.962  13.952  0.1678  0.1073  0.0540
21366W        W38213  11.348   5.714  14.028  0.1133  0.1911 -0.1601
21367W        W38214  19.219  12.883   8.867  0.2462 -0.2878  0.0483
21368W        W38215   8.649   7.972   2.304 -0.0736  0.1225 -0.2678
21369W        W38216   4.968   4.305  13.006 -0.1691  0.1308 -0.0401
21370W        W38217   2.184  10.536   3.019 -0.0589  0.0918  0.1007
21371W        W38218  13.591  12.248  13.532 -0.1764 -0.2135  0.0075
21372W        W38219   3.994   8.144   9.462  0.4384  0.0874  0.0108
21373W        W38220  11.015   4.012   8.794  0.1733  0.2403  0.1102
21374W        W38221   1.841  12.628  12.759 -0.1127  0.1996 -0.1601
21375W        W38222   6.362   3.911   4.417  0.1330  0.1654 -0.3165
21376W        W38223  17.238   0.208  12.370  0.1613  0.2351 -0.3814
21377W        W38224  18.849  18.994   2.156 -0.1280  0.1715  0.3063
21378W        W38225   3.733   7.747  12.425  0.2821  0.2072  0.2666
21379W        W38226   6.710   9.805  11.154  0.0428 -0.4781 -0.2859
21380W        W38227  11.620   4.688   2.574  0.0353  0.2835  0.1176
21381W        W38228   9.775  16.670  14.061  0.1095  0.0333 -0.0877
21382W        W38229   8.041   6.941   5.200  0.0330  0.1391 -0.7308
21383W        W38230   3.728   2.747  13.401 -0.1008  0.1997  0.0737
21384W        W38231   7.461   9.560  11.548  0.0508 -0.0712  0.1299
21385W        W38232   7.496  12.177   5.817  0.0249 -0.0949 -0.0386
21386W        W38233  13.724  19.713  11.639 -0.4378 -0.0384  0.0981
21387W        W38234  15.779  10.012   4.290 -0.1579 -0.0416  0.0123
21388W        W38235   0.804   5.457  12.389 -0.3118  0.0214 -0.3912
21389W        W38236   9.167   4.252   4.770  0.0451  0.1236  0.1515
21390W        W38237  14.553  11.234  13.633  0.0523  0.1037  0.1952
21391W        W38238  15.967  13.474   1.876 -0.1319 -0.1142 -0.0610
21392W        W38239   5.632   9.470   5.231 -0.1326 -0.2530 -0.1665
21393W        W38240   5.316   0.011   0.808 -0.1683  0.0865  0.0284
21394W        W38241   7.495  18.735  10.919 -0.1065 -0.1659  0.2053
21395W        W38242  15.941   4.797  11.488 -0.3496 -0.1706 -0.1033
21396W        W38243   0.714  12.527  13.110  0.1954  0.1555  0.0825
21397W        W38244  18.213  14.664   4.775  0.2271 -0.2802  0.0788
21398W        W38245   6.784   4.082  12.776 -0.0745  0.1334  0.0398
21399W        W38246   5.144  16.210  14.064 -0.0406  0.1386 -0.0211
21400W        W38247  11.319  10.523  11.210  0.1171  0.1819 -0.5820
21401W        W38248  19.700  10.853   0.303  0.0623  0.0238  0.3085
21402W        W38249   0.918   3.291   1.083  0.1805  0.0459 -0.0353
21403W        W38250  18.694   0.219   3.506  0.0243 -0.0287 -0.3294
21404W        W38251  11.599  18.525   3.142 -0.1210 -0.0759  0.0235
21405W        W38252  10.431  10.799  10.862 -0.1337 -0.2089  0.0188
21406W        W38253   1.751  15.345   4.911 -0.1886 -0.0438 -0.0076
21407W        W38254   9.731  19.570  13.206 -0.3026 -0.1026 -0.0735
21408W        W38255   7.931   6.504   2.933  0.5225 -0.0401 -0.0987
21409W        W38256   3.323  19.579  14.192  0.0189  0.0025 -0.0335
21410W        W38257   5.349   4.418  11.574 -0.0358  0.1431 -0.1238
21411W        W38258  15.930  17.156   3.674 -0.4253  0.0913 -0.2866
21412W        W38259   2.754   3.344  13.988  0.2694  0.2148  0.1325
21413W        W38260  15.804  14.688   5.274  0.0468 -0.2588  0.2982
21414W        W38261  16.284  14.550   4.235  0.3387  0.0647  0.1951
21415W        W38262   0.467  19.708  13.853 -0.1312 -0.1218 -0.1181
21416W        W38263   0.598  13.068  12.030 -0.0353  0.0941 -0.1383
21417W        W38264  16.967   3.379   2.846  0.1075 -0.1807  0.0370
21418W        W38265  12.357  13.703   1.267  0.0169 -0.2919  0.3456
21419W        W38266   3.795   1.447   9.732 -0.3096  0.0185 -0.3257
21420W        W38267   7.439  12.377   4.049 -0.0640  0.4595  0.1126
21421W        W38268   8.746   9.162  13.452 -0.2701  0.1679  0.1072
21422W        W38269  17.698  16.643  13.480 -0.3311  0.5668  0.0158
21423W        W38270  19.080  12.751   1.605 -0.1172 -0.8004 -0.2473
21424W        W38271  15.817   2.810  12.423 -0.1367  0.3393 -0.1578
21425W        W38272   5.631  19.181   4.690 -0.0682  0.0578  0.0405
21426W        W38273  19.201  13.939   0.531 -0.1990 -0.3562 -0.2581
21427W        W38274   3.670  16.182   0.840 -0.2365 -0.1394  0.0403
21428W        W38275   7.747  19.654  13.306 -0.1475 -0.1056  0.4998
21429W        W38276   1.892  13.751  12.806 -0.4025 -0.0788 -0.0217
21430W        W38277   6.095   8.001   0.009  0.2373  0.1372  0.0249
21431W        W38278  11.351   6.360   3.933  0.2244 -0.2192 -0.3226
21432W        W38279  11.868  18.579  13.167  0.2578 -0.2582 -0.1195
21433W        W38280  11.858   2.860   1.473  0.0098 -0.1172 -0.0807
21434W        W38281   6.987  15.125  12.476 -0.0590  0.4465 -0.1180
21435W        W38282  17.266   8.101  13.478 -0.3305 -0.2079 -0.5592
21436W        W38283   1.402   8.421  14.292  0.2178 -0.1062 -0.1087
21437W        W38284   5.620  10.857  11.658 -0.3612 -0.4417 -0.1362
21438W        W38285   4.207   5.186  12.868 -0.3208 -0.1493  0.0121
21439W        W38286  13.111   4.026   9.845 -0.1158  0.1242 -0.2590
21440W        W38287  10.307   8.141   5.341  0.2193 -0.0385 -0.2057
21441W        W38288   5.353  17.868   2.870  0.1295  0.0293  0.4514
21442W        W38289  16.739   9.161  11.161 -0.0041 -0.3136  0.0282
21443W        W38290  18.871   7.629   4.830 -0.0729 -0.0010  0.4046
21444W        W38291   1.873   9.053   3.582  0.0566 -0.0412 -0.3223
21445W        W38292  13.714  15.141  12.650 -0.0116  0.1074  0.2103
21446W        W38293  14.389   4.360   4.569  0.0370 -0.0159  0.2812
21447W        W38294   0.494   6.336   0.309  0.0485 -0.2883 -0.1858
21448W        W38295   3.213  13.785  11.795 -0.1695  0.2531  0.1304
21449W        W38296   3.490  13.656   3.999  0.0072 -0.1526  0.2132
21450W        W38297   8.311  12.215   1.269 -0.0854 -0.0268  0.0453
21451W        W38298   6.306  13.468   3.246 -0.1828  0.2005 -0.2834
21452W        W38299   1.518  18.301  12.458 -0.3245 -0.3949 -0.2787
21453W        W38300   9.361   4.623  13.830 -0.3321  0.1165  0.0577
21454W        W38301   7.815  10.999   3.074  0.7281 -0.0541 -0.1403
21455W        W38302  18.965  15.900  13.434  0.2888  0.1336 -0.0107
21456W        W38303   6.775   3.220  10.857  0.2455  0.1335  0.2284
21457W        W38304  14.314  15.506  13.546 -0.1258 -0.0313 -0.0819
21458W        W38305  17.176   5.421   4.457  0.0460 -0.0756 -0.0837
21459W        W38306  16.266  10.211   4.292 -0.0330 -0.3616  0.3476
21460W        W38307  10.650  16.361   3.821  0.0795  0.4537 -0.1561
21461W        W38308   4.651   1.717   1.843 -0.1296 -0.1826 -0.2283
21462W        W38309   1.219   3.651   0.342  0.0781  0.1720 -0.1019
21463W        W38310   2.977   5.196  10.974  0.0381 -0.0703 -0.4166
21464W        W38311  17.654   4.132   2.787 -0.0281  0.2028 -0.0211
21465W        W38312   3.105  13.391   3.606  0.2138  0.4070  0.4058
21466W        W38313   3.850  10.217   1.876 -0.2858  0.0958  0.1903
21467W        W38314  11.130  15.139  10.384  0.0094 -0.0566 -0.0352
21468W        W38315  19.155   7.512  11.161  0.1488 -0.4396  0.2395
21469W        W38316   5.435   9.871  12.754  0.0833  0.1556 -0.1457
21470W        W38317  12.581  10.054  10.163  0.1356  0.2448  0.0033
21471W        W38318  11.290   4.017   2.584  0.0816 -0.2875 -0.1173
21472W        W38319   6.780  11.560   3.988  0.1216 -0.0776  0.0311
21473W        W38320  18.031   2.639  13.897  0.0674 -0.0391 -0.0389
21474W        W38321   1.292  18.754   1.946 -0.0880 -0.1392 -0.1705
21475W        W38322  18.407  11.563   2.639  0.1666 -0.2519 -0.1272
21476W        W38323   1.424   3.774  13.735 -0.1745 -0.0771 -0.0425
21477W        W38324  10.833  10.314  11.308  0.3446  0.1816 -0.0032
21478W        W38325  11.465   0.285   0.743 -0.2527 -0.0801 -0.1042
21479W        W38326  17.381  14.185   3.002  0.2312 -0.2945  0.1139
21480W        W38327  16.559   1.888   2.626 -0.2521  0.1795 -0.4959
21481W        W38328  15.607  16.992  12.033 -0.0837  0.3524  0.1456
21482W        W38329  13.010  16.300   0.311 -0.0325  0.0233  0.1875
21483W        W38330  17.824   2.177  13.773 -0.0308 -0.2345  0.2570
21484W        W38331  16.813  13.848   0.011 -0.0720 -0.1030  0.1452
21485W        W38332   4.747   0.429  12.429 -0.1946  0.2174 -0.3047
21486W        W38333   3.969   7.865   2.723 -0.0838 -0.0377 -0.2994
21487W        W38334   8.306   7.114  11.505  0.1047  0.0835 -0.1818
21488W        W38335   9.705   2.376   4.832 -0.3686  0.2193  0.0118
21489W        W38336   5.351  16.754  10.808  0.0983 -0.4699 -0.1526
21490W        W38337   3.276   2.622  13.589 -0.3150  0.1879 -0.1194
21491W        W38338  16.168   5.024  13.857 -0.1642 -0.1088  0.2216
21492W        W38339   1.668   0.639  13.467 -0.1164 -0.3153  0.0529
21493W        W38340  19.629  16.690  10.597  0.3362 -0.1551 -0.1360
21494W        W38341   1.866   0.713  12.315  0.2190  0.0075 -0.2109
21495W        W38342  19.025   2.845  12.300  0.3696 -0.0573 -0.0455
21496W        W38343   9.515   0.196   2.152  0.0394  0.0125 -0.1700
21497W        W38344  16.670  13.755   0.918  0.1421 -0.2113  0.0022
21498W        W38345   0.150   1.078  11.687 -0.1175 -0.1662  0.2085
21499W        W38346   3.827  18.679   3.929 -0.4183 -0.1352  0.0155
21500W        W38347  16.576   9.051   9.258  0.2501 -0.2692 -0.0323
21501W        W38348   7.648  12.735  12.017  0.1989 -0.3003 -0.1895
21502W        W38349  12.029   2.499   2.332  0.1063 -0.0503 -0.2475
21503W        W38350   8.536  11.638  13.768  0.1668 -0.1583 -0.1653
21504W        W38351   4.729   9.406   3.526  0.0056 -0.0014 -0.0908
21505W        W38352   1.951   5.362  11.386  0.4236 -0.2710 -0.3662
21506W        W38353   7.173   2.544   0.760 -0.2168 -0.3885 -0.0052
21507W        W38354   8.598  14.543   4.593  0.0949  0.3000  0.0628
21508W        W38355   9.788   1.500   1.588  0.2828 -0.0236  0.1089
21509W        W38356   8.862  13.217  13.649 -0.3544 -0.0495 -0.2594
21510W        W38357  11.582  18.954  13.402  0.5319  0.0685 -0.1594
21511W        W38358  19.134   5.857   4.298  0.0814 -0.2227 -0.1821
21512W        W38359   8.256  10.433   1.592 -0.0083 -0.2022  0.1577
21513W        W38360   5.493   5.372  13.151 -0.3244 -0.0037  0.2728
21514W        W38361  18.045  19.820  11.806  0.0292  0.2211 -0.0895
21515W        W38362   1.975  15.310  13.195  0.0548  0.0211  0.2180
21516W        W38363   2.781   4.996   1.245 -0.2113  0.1394  0.7353
21517W        W38364   9.291   7.020   3.939  0.2009  0.2352  0.0962
21518W        W38365   3.948   0.988   2.152  0.0748 -0.1256 -0.2584
21519W        W38366  19.326   0.119   1.222  0.0583  0.1071 -0.0321
21520W        W38367  14.749  12.999  13.492  0.0793  0.0008 -0.1282
21521W        W38368   5.902  10.880   4.185  0.1264 -0.3970  0.0009
21522W        W38369   0.878   8.365   9.855  0.1222 -0.2889  0.4008
21523W        W38370   3.859   6.121  10.801  0.0578  0.0152  0.1043
21524W        W38371   5.151  19.746  13.147 -0.3044  0.2190 -0.1035
21525W        W38372   5.795   8.342   1.868  0.3064 -0.5902 -0.1013
21526W        W38373   6.311  10.516  11.869 -0.1817 -0.0663 -0.1257
21527W        W38374  13.319  10.655  10.358  0.0465  0.1191  0.2512
21528W        W38375   6.487   4.663  14.344  0.1725  0.2854  0.0322
21529W        W38376  17.027   7.509  10.487 -0.4832  0.1074  0.0635
21530W        W38377   9.105  14.229   2.717 -0.2262  0.3814  0.2746
21531W        W38378   7.315   7.429  12.839  0.1665  0.1494  0.3157
21532W        W38379   5.803   6.971  10.206 -0.0992  0.0301  0.2550
21533W        W38380   9.548  10.731   4.591  0.0794 -0.5382 -0.0113
21534W        W38381   6.721  19.168  14.358 -0.2705  0.2739  0.2101
21535W        W38382  15.332  14.146   0.616 -0.4636  0.1646  0.1533
21536W        W38383   5.403   3.062  14.184 -0.0246  0.1103  0.0134
21537W        W38384   7.366  17.811  12.803 -0.0315  0.0588 -0.0498
21538W        W38385  14.387  15.205   1.867 -0.0124  0.2127  0.0421
21539W        W38386   2.729   7.849  12.248  0.1104 -0.0857 -0.2187
21540W        W38387  12.138   2.329   4.121  0.2978  0.1556 -0.0306
21541W        W38388  17.701   4.417  14.337 -0.2748  0.2838  0.1653
21542W        W38389   1.126  15.400   3.198 -0.2238 -0.3558 -0.3033
21543W        W38390   2.130  17.967   2.170 -0.2199 -0.0507 -0.0692
21544W        W38391  18.219  19.432   0.377  0.1308  0.2258  0.0968
21545W        W38392   5.425  13.565   0.261  0.0876 -0.1748  0.0477
21546W        W38393   7.241  18.384  12.749 -0.1451 -0.3051  0.2064
21547W        W38394   7.579   1.902  13.438 -0.1137 -0.0830  0.2922
21548W        W38395  19.295   2.330   4.693 -0.2441  0.0089 -0.0427
21549W        W38396  13.973   8.386  10.081 -0.2583 -0.0030  0.1982
21550W        W38397  12.219  16.714  13.938  0.1026  0.1772 -0.1003
21551W        W38398  17.576  14.694   2.707 -0.3712 -0.3473  0.2932
21552W        W38399  12.252  14.136  14.191 -0.2273 -0.1417  0.1164
21553W        W38400  12.897  18.090   0.311 -0.0037  0.3339  0.3273
21554W        W38401   2.045   3.759   5.051 -0.2318  0.1518 -0.3084
21555W        W38402   1.669   4.980  14.304  0.0948  0.0077 -0.4242
21556W        W38403   1.920   8.477  14.057 -0.3186 -0.0005  0.0239
21557W        W38404  14.313   6.746   3.874 -0.2442 -0.2420  0.0873
21558W        W38405   4.438  12.445   1.849  0.3669  0.2273 -0.2733
21559W        W38406  14.417  19.865   4.011 -0.2274 -0.2321  0.3808
21560W        W38407  19.108  17.535  12.781 -0.0547 -0.4372 -0.0035
21561W        W38408   2.085  17.639  12.522  0.3647  0.1603 -0.2461
21562W        W38409   8.417  11.398  13.346  0.0535 -0.3868 -0.2173
21563W        W38410  13.185   2.446  12.169  0.0025 -0.1797 -0.1524
21564W        W38411  10.431   8.993  10.432  0.0094  0.0363 -0.0944
21565W        W38412  15.310   6.205   3.190 -0.0744 -0.1080  0.1959
21566W        W38413  17.965   9.072   2.941  0.0711  0.1344 -0.3416
21567W        W38414  10.555  18.720  11.356 -0.0751  0.1632 -0.1765
21568W        W38415  14.519   3.890   2.885  0.0834 -0.0443  0.1315
21569W        W38416   9.275   4.100   0.917 -0.1417 -0.0022 -0.4791
21570W        W38417  19.218  17.039   0.704  0.0103  0.1102  0.3791
21571W        W38418  13.048  13.815  10.856 -0.1692  0.1948  0.1391
21572W        W38419   3.600   0.615  10.237  0.0606 -0.0518 -0.1008
21573W        W38420   4.496  12.579   2.398  0.3993 -0.0220 -0.0685
21574W        W38421  10.701  10.992   0.791 -0.1724 -0.1400  0.3486
21575W        W38422  14.416   1.971   0.773 -0.0979  0.2131  0.1705
21576W        W38423   2.543  19.582   0.338 -0.1359  0.0846 -0.0406
21577W        W38424   4.640  15.352  11.668  0.0179  0.3703  0.2180
21578W        W38425   9.117  16.413  10.587 -0.0519  0.1385  0.0407
21579W        W38426   2.807  14.756   1.727  0.2302  0.0735  0.1314
21580W        W38427   1.960   8.973  12.725 -0.0682 -0.0573  0.0616
21581W        W38428  11.900  15.344  12.594 -0.0830 -0.0067 -0.0686
21582W        W38429   4.218  18.407   4.205 -0.2491  0.0263  0.0078
21583W        W38430   2.182   3.127   3.178  0.1353  0.3268 -0.3062
21584W        W38431  14.671   0.961  11.600 -0.0030 -0.0234 -0.0213
21585W        W38432   3.631   8.106   1.209  0.0562 -0.2867 -0.2256
21586W        W38433  10.310   8.193   1.433  0.0064  0.1263  0.2097
21587W        W38434   2.155  17.091  11.020 -0.0385  0.4903  0.2489
21588W        W38435  13.072   3.790   1.366  0.1502  0.1994 -0.0831
21589W        W38436   0.200   5.011   2.785 -0.1097  0.2237 -0.0912
21590W        W38437   2.984   6.945   2.389 -0.2968  0.2349 -0.1219
21591W        W38438   0.736  15.558   4.493 -0.1138 -0.0192  0.1814
21592W        W38439   7.845   3.792   9.801  0.4640  0.3258  0.0896
21593W        W38440  17.496   0.529  13.840  0.0330 -0.1574  0.0232
21594W        W38441  17.919   6.197  12.594  0.0447 -0.0359  0.1478
21595W        W38442   7.445  19.591   0.393  0.0732  0.1160 -0.0627
21596W        W38443   6.115  14.837   5.589  0.0699 -0.2417  0.3745
21597W        W38444  13.558  10.441  10.003  0.3040 -0.1113 -0.1034
21598W        W38445  16.072  16.843   1.800  0.0884 -0.4187  0.1478
21599W        W38446  17.664  17.684   0.102  0.0734 -0.0100  0.1339
21600W        W38447  19.621  19.470  11.670  0.0674 -0.0798  0.0850
21601W        W38448   4.569  12.160   9.813 -0.0334 -0.1105 -0.4789
21602W        W38449   1.466   9.824  13.233 -0.3942 -0.2135  0.1991
21603W        W38450   1.707  14.605  13.783  0.3587  0.3634  0.0067
21604W        W38451  12.141   9.534  12.327  0.0422  0.2217 -0.1601
21605W        W38452  18.983  15.295  11.251  0.1223  0.1133 -0.0703
21606W        W38453  16.192  13.092   4.350  0.0646  0.0751 -0.0129
21607W        W38454  13.600  17.726   4.718  0.1784  0.1984 -0.0060
21608W        W38455  17.659   7.275   4.587  0.1601  0.2321  0.0120
21609W        W38456   0.097  11.168   0.596 -0.0101  0.0192  0.1383
21610W        W38457   6.135  16.639   2.675  0.0109  0.1566  0.1722
21611W        W38458   1.358   4.577   0.027 -0.2547 -0.3277 -0.2839
21612W        W38459  17.525  12.881   4.523 -0.0089 -0.1706  0.0188
21613W        W38460   3.266   0.012   2.955 -0.2380 -0.2314 -0.0343
21614W        W38461  14.535  13.808   3.515  0.0115 -0.2543  0.1428
21615W        W38462   4.450   3.916  11.431  0.3733  0.2218  0.1712
21616W        W38463  19.343  15.068  12.367 -0.0570  0.3498 -0.0686
21617W        W38464   3.988  18.104  10.400  0.2024  0.0924 -0.1447
21618W        W38465   1.768  19.172  13.597  0.3158 -0.1151  0.0200
21619W        W38466   8.838   1.489   3.197  0.2533 -0.1087 -0.3867
21620W        W38467  11.663  11.610   1.160 -0.0872 -0.1788  0.0254
21621W        W38468  11.061  16.035  13.398  0.1225  0.1880 -0.2049
21622W        W38469   1.454  11.808   0.080 -0.0089 -0.1640  0.2653
21623W        W38470   6.388   7.996  13.921 -0.0686  0.1537 -0.0291
21624W        W38471   5.421  17.129   0.536  0.0923 -0.0166 -0.0313
21625W        W38472  15.045  12.866  12.729  0.0422  0.4085 -0.2280
21626W        W38473  19.144   1.215   3.918 -0.2947 -0.0248  0.2217
21627W        W38474   9.162   6.520   2.163  0.1800  0.3740 -0.0641
21628W        W38475   2.133   7.304   1.773 -0.2753 -0.1647  0.0199
21629W        W38476   0.050   3.786   3.899 -0.0483  0.1322 -0.1760
21630W        W38477   6.370   7.879  12.246  0.1089 -0.3451 -0.0175
21631W        W38478  19.178   3.642  13.377 -0.1262 -0.2629  0.1748
21632W        W38479  13.676   1.766  12.248 -0.1236  0.1702  0.1816
21633W        W38480  14.119   6.835   0.281  0.4212  0.0764  0.1256
21634W        W38481   2.759  18.451   1.896  0.1272 -0.2706 -0.1054
21635W        W38482  16.995   2.373  12.097 -0.0556  0.1438  0.0510
21636W        W38483  18.731   9.732   2.516  0.0472  0.2249 -0.1727
21637W        W38484  19.555   3.289  13.552 -0.0117  0.1609 -0.0253
21638W        W38485  15.623   6.930   3.681 -0.1296 -0.1996  0.0660
21639W        W38486  16.060   7.211   3.800 -0.0567  0.4969 -0.2753
21640W        W38487  16.164   8.049   3.319 -0.1107  0.0117  0.1354
21641W        W38488   9.803   5.187  12.973  0.0704 -0.1536  0.1714
21642W        W38489  10.774  10.790  11.256 -0.0199  0.0069 -0.1248
21643W        W38490  17.185  15.046   4.615 -0.0109  0.3445 -0.0324
21644W        W38491   7.570   3.423  10.601  0.1372 -0.2541  0.4301
21645W        W38492  17.082   9.737   1.133  0.0254 -0.0567 -0.0203
21646W        W38493   9.935  18.483   0.180 -0.0536  0.3365 -0.0524
21647W        W38494   4.249  18.993   3.912 -0.2586 -0.0778 -0.0742
21648W        W38495  14.647  13.368   3.173  0.1619  0.1599 -0.0640
21649W        W38496   5.776  18.309   0.268  0.0880 -0.2902 -0.0171
21650W        W38497  17.611  14.123  12.957  0.1764 -0.1635 -0.1544
21651W        W38498  13.959   8.855   5.050  0.0836  0.0954  0.0371
21652W        W38499   7.856   0.185  12.851  0.0218  0.3943  0.1550
21653W        W38500  10.379  17.077   2.405 -0.0172  0.0075 -0.1635
21654W        W38501   0.733   5.748   4.119 -0.1911  0.2100 -0.2498
21655W        W38502  10.920  15.899  10.115  0.2028  0.0833  0.0383
21656W        W38503  18.021  11.402  13.504 -0.2413 -0.1464  0.2873
21657W        W38504   5.812  14.398   4.065  0.0357  0.2875 -0.1805
21658W        W38505  13.532  18.809  11.975 -0.0053  0.0868 -0.1790
21659W        W38506  18.680  17.529  12.430  0.0121 -0.1299  0.2135
21660W        W38507  13.659   0.167   0.927  0.1759  0.1830 -0.3988
21661W        W38508   7.383  12.970  13.610  0.0488 -0.0015  0.2427
21662W        W38509  16.065   2.666   0.658 -0.2932 -0.3884 -0.2991
21663W        W38510  19.814  16.815  13.008 -0.0585  0.0233 -0.3896
21664W        W38511   9.514  10.139   0.617 -0.2562 -0.0134  0.2756
21665W        W38512  17.345  15.512  11.998 -0.0163 -0.2823 -0.3704
21666W        W38513  19.568   3.099  11.566 -0.0103  0.0113 -0.3460
21667W        W38514   5.381   2.611  11.734 -0.0077 -0.0809  0.3907
21668W        W38515   3.902  10.530  11.869  0.0054 -0.0598  0.0964
21669W        W38516  14.321   4.275   1.330 -0.0730  0.0545 -0.0486
21670W        W38517  13.237  18.458   0.157  0.2113  0.2797 -0.1038
21671W        W38518  12.789   5.456  11.567  0.2106 -0.3512  0.2102
21672W        W38519   0.214   9.279   1.230  0.3130 -0.0142 -0.0122
21673W        W38520  11.807  18.325  10.285 -0.0230  0.1284  0.1056
21674W        W38521   3.037   1.135  11.721 -0.1656  0.0295  0.1272
21675W        W38522  13.837   2.469  11.540 -0.2692  0.3724 -0.2171
21676W        W38523   8.434   1.597  14.116  0.0861  0.0084 -0.0314
21677W        W38524   2.289  17.123   1.979  0.1578  0.0410 -0.1431
21678W        W38525  17.319  17.059  13.673 -0.2601  0.0146  0.1044
21679W        W38526   3.920  14.854  13.194 -0.0302  0.0949 -0.2243
21680W        W38527   7.805   0.874  11.369  0.0806  0.0271  0.0268
21681W        W38528  12.564  19.653   1.230 -0.0104 -0.2901 -0.1751
21682W        W38529  19.689  11.819  13.729 -0.0548  0.1237  0.0261
21683W        W38530   0.244   7.388   0.200  0.1575  0.1912  0.0653
21684W        W38531  17.256  19.833   0.808 -0.0634  0.1274  0.3783
21685W        W38532   3.890   2.275  10.909  0.4828 -0.0952  0.0446
21686W        W38533   8.541  16.789  12.226  0.4208  0.0758 -0.0162
21687W        W38534  15.599  14.293   3.345  0.4792  0.4566  0.1131
21688W        W38535   3.106   2.852  12.145  0.1332 -0.0380 -0.1894
21689W        W38536   2.892   3.948  11.366 -0.0581  0.1914  0.4212
21690W        W38537  17.467   8.997  10.987 -0.1061 -0.2865 -0.1995
21691W        W38538  16.822   2.568   9.410  0.0064  0.0301  0.0416
21692W        W38539  19.530  19.240   2.518 -0.0795  0.0392 -0.0450
21693W        W38540   5.253  10.915   2.257 -0.0992 -0.4935  0.0329
21694W        W38541  11.151   2.398  12.993 -0.1946 -0.0154 -0.0751
21695W        W38542  17.853  12.353   1.384  0.0991 -0.0497  0.0275
21696W        W38543   6.943  11.407   3.175  0.0690  0.2563 -0.0343
21697W        W38544   1.159  19.161   3.105 -0.2051 -0.0403  0.0657
21698W        W38545  16.844   7.963  10.358 -0.2497  0.2999  0.1930
21699W        W38546   0.348   9.423  11.917  0.2444 -0.1261  0.1968
21700W        W38547   0.377   9.951   2.656 -0.2601 -0.2938 -0.0950
21701W        W38548  10.940   2.386   1.535  0.2392 -0.2832 -0.1044
21702W        W38549  15.344   5.604   0.266  0.3820 -0.2097 -0.1168
21703W        W38550  10.445   2.243   1.490  0.0866  0.0255  0.2890
21704W        W38551  13.028  15.111   2.582 -0.1120  0.0542  0.3912
21705W        W38552  10.735   0.708   2.570  0.0849 -0.3234 -0.1031
21706W        W38553  18.041  16.226  12.698 -0.1403  0.0057  0.0550
21707W        W38554  12.281   4.769   4.803 -0.1132  0.2402  0.1556
21708W        W38555  14.299  11.513  11.344  0.1732  0.2165 -0.0101
21709W        W38556  12.538  18.195   4.651 -0.1394 -0.3863 -0.0299
21710W        W38557  17.742  12.448   3.446 -0.0256 -0.1668  0.0958
21711W        W38558  16.750   1.358   4.148 -0.0673 -0.1394 -0.1189
21712W        W38559   4.249  19.280   3.197 -0.3907  0.1183 -0.1584
21713W        W38560   5.807  13.645   1.505 -0.2883  0.1221  0.0389
21714W        W38561  19.810  10.120   2.415  0.1355 -0.1557  0.2515
21715W        W38562   1.859  14.603  10.592  0.0915  0.2942 -0.2082
21716W        W38563  17.266   0.869  11.523  0.1429  0.2528 -0.0693
21717W        W38564   7.504   6.841  13.480 -0.0287 -0.1549 -0.4193
21718W        W38565  16.770   5.719   4.820 -0.0830 -0.0734  0.3261
21719W        W38566   5.666   7.775   3.030 -0.1221  0.2598 -0.2721
21720W        W38567  10.680   1.737   9.652  0.1146 -0.1732 -0.0042
21721W        W38568   3.815   6.076   0.438 -0.2653 -0.1604 -0.0068
21722W        W38569  18.217  15.511  13.838  0.0231 -0.0318 -0.1200
21723W        W38570   9.229  17.240   2.613 -0.2388 -0.2803 -0.2027
21724W        W38571  19.768   9.005   2.008  0.1253  0.1556 -0.1024
21725W        W38572   5.561   0.465  11.791  0.1696  0.1968 -0.1364
21726W        W38573  18.868   0.835   3.952  0.0552 -0.0207  0.0184
21727W        W38574  11.137  15.821   0.316 -0.0835 -0.0014  0.1096
21728W        W38575   1.062   1.806  12.200 -0.1063  0.0600  0.1485
21729W        W38576   8.896  14.935  10.255 -0.1966  0.2592  0.1341
21730W        W38577  14.986   3.651  12.025 -0.0850 -0.3249  0.0172
21731W        W38578  17.738   9.673   2.949 -0.0808  0.0455  0.1349
21732W        W38579   6.264  12.274  10.054  0.0818  0.3177  0.0906
21733W        W38580  18.123   7.246  12.372 -0.4364  0.0138  0.1249
21734W        W38581   4.235  13.974  13.972  0.1174  0.1153  0.2173
21735W        W38582   1.991  14.597  11.404 -0.0866  0.2342  0.2328
21736W        W38583   7.483  19.765   2.292  0.1185 -0.0256 -0.3757
21737W        W38584   2.450  14.976   1.463  0.0757  0.1339 -0.1892
21738W        W38585  12.284  12.641   3.694  0.0625 -0.1231 -0.0622
21739W        W38586   2.554  14.117  13.940  0.2432 -0.3239 -0.1961
21740W        W38587  16.432  10.662  13.078 -0.4114 -0.1241  0.0689
21741W        W38588  12.920   5.297  12.805 -0.1100  0.3484 -0.0215
21742W        W38589   1.928   0.443  10.450  0.1108 -0.1955 -0.2026
21743W        W38590  15.865   0.660  12.167  0.1869  0.0798 -0.1196
21744W        W38591  15.558  11.967   1.736  0.0937  0.0431  0.0110
21745W        W38592   2.915  17.389   0.037 -0.1865 -0.2337 -0.1788
21746W        W38593   3.900   2.080  11.430  0.1511  0.2280 -0.1117
21747W        W38594   5.770  16.922  11.012  0.3102  0.1785 -0.2128
21748W        W38595  18.848  18.036   4.972 -0.3906  0.1563  0.1411
21749W        W38596  16.528   4.059  13.034  0.1372 -0.2678  0.0366
21750W        W38597  16.674   2.855  12.152  0.3754 -0.4291  0.1171
21751W        W38598  13.081  11.376  12.386 -0.0778 -0.0006  0.1708
21752W        W38599   9.990   7.439   4.096  0.0033  0.0362 -0.1935
21753W        W38600  17.111   3.722   3.988  0.1392 -0.2688  0.2056
21754W        W38601  10.030  16.925  12.640 -0.0045 -0.1704 -0.1488
21755W        W38602   8.962   9.528   4.517  0.1290 -0.0296 -0.0068
21756W        W38603  12.786  15.879  12.301  0.2982 -0.0334  0.0952
21757W        W38604   6.287   8.627  11.829 -0.0407 -0.1938  0.2236
21758W        W38605  13.366  19.864   9.770 -0.1544 -0.1385 -0.1609
21759W        W38606   0.086  14.378   3.471 -0.2908 -0.2404  0.0070
21760W        W38607  18.005   5.987   2.817 -0.1920  0.4843  0.2259
21761W        W38608  18.440  15.293   0.302 -0.3887  0.0545  0.2431
21762W        W38609  16.595   5.496   0.983 -0.0931 -0.1484  0.1312
21763W        W38610   6.919   1.505   1.998  0.4552  0.1006 -0.1291
21764W        W38611   5.373   8.155  12.265  0.1692 -0.4205 -0.0130
21765W        W38612  12.890   3.052   3.931 -0.2192  0.3643  0.1354
21766W        W38613  14.863   5.328   0.340  0.2193 -0.0455 -0.4451
21767W        W38614  15.213   0.264   0.646  0.0090  0.4959  0.0935
21768W        W38615  19.280   3.358   2.718  0.0806 -0.1110 -0.0444
21769W        W38616  10.183   6.459  11.468 -0.6402 -0.1658 -0.2107
21770W        W38617  16.335   6.523   3.210  0.2777 -0.3223  0.1683
21771W        W38618  14.019   4.196  10.438  0.1789 -0.0228 -0.0545
21772W        W38619  16.505   3.863  13.766 -0.1103 -0.1391  0.1196
21773W        W38620   4.764   5.188  13.720 -0.2146 -0.1253 -0.2250
21774W        W38621  12.229  13.482   4.771  0.2736 -0.2979 -0.0306
21775W        W38622   8.497  14.393   1.882 -0.0915  0.0177 -0.0106
21776W        W38623   6.217  16.874  12.472 -0.1507  0.6355  0.1032
21777W        W38624  18.868  16.636  12.205 -0.1055 -0.0309 -0.2362
21778W        W38625  14.943  10.102   4.138  0.0699 -0.2036  0.2499
21779W        W38626   2.639  17.624  12.736  0.0300 -0.1155  0.0979
21780W        W38627  14.960  12.801   4.788 -0.3250  0.0434  0.0520
21781W        W38628   3.386  17.189  12.351  0.0349  0.2522  0.3243
21782W        W38629   6.745  10.389   4.935 -0.0091  0.0068  0.0506
21783W        W38630  14.312  19.392   0.304 -0.1721 -0.2406 -0.3669
21784W        W38631  15.663   5.882   4.410 -0.4033 -0.0611  0.1774
21785W        W38632  19.196   8.280   3.533 -0.2193  0.0652 -0.1008
21786W        W38633   3.295  17.976  10.829 -0.1891 -0.2511  0.2722
21787W        W38634   4.854  10.684   5.039 -0.0138 -0.0527 -0.0329
21788W        W38635  14.252   7.932  11.904  0.1386 -0.1629  0.0407
21789W        W38636   6.679   9.470  10.779  0.0336  0.2288 -0.1983
21790W        W38637   2.755   2.695   0.605  0.3048  0.0353 -0.0924
21791W        W38638  13.602   0.441   3.384  0.0344  0.1322  0.0035
21792W        W38639   7.875  12.984   2.534 -0.2926 -0.1244 -0.2350
21793W        W38640  14.690   3.716  10.828 -0.1059 -0.3073  0.1071
21794W        W38641  16.964  10.232   2.106 -0.0705 -0.0099 -0.0337
21795W        W38642   1.878   2.127  12.594  0.2948 -0.0309 -0.2088
21796W        W38643  13.757   5.069   4.061  0.0779  0.2255  0.1542
21797W        W38644  12.076   5.193  11.011 -0.1668  0.1384 -0.4151
21798W        W38645  16.329   2.907  10.410  0.2593  0.0192  0.0647
21799W        W38646   0.961  14.915   2.560  0.1359  0.0042  0.0126
21800W        W38647   0.268  16.588   1.469 -0.0904 -0.3317 -0.0190
21801W        W38648   9.741  13.589   1.220 -0.2361 -0.1212  0.1723
21802W        W38649   5.262  10.341  13.610  0.0257  0.1356 -0.0798
21803W        W38650  12.354  10.492   2.360  0.0045  0.0717 -0.0652
21804W        W38651  16.877  12.660   1.721  0.1398 -0.1187 -0.1326
21805W        W38652   8.930   0.014  13.118 -0.1484 -0.0880  0.0569
21806W        W38653  18.707   3.343  13.266  0.1556 -0.2996  0.1127
21807W        W38654  13.936  12.516  11.359 -0.0504  0.0584  0.4433
21808W        W38655   3.178  13.070   0.724  0.0238  0.2404 -0.0963
21809W        W38656   1.017  12.829  11.912  0.0815  0.0378  0.4401
21810W        W38657   9.745  10.237   2.762  0.2904 -0.1526 -0.1221
21811W        W38658   2.532  13.283   5.355  0.1576 -0.0409  0.1913
21812W        W38659   2.433  11.084   0.180 -0.0552  0.0407  0.3266
21813W        W38660   0.129  16.078   1.247 -0.3857 -0.3520 -0.0419
21814W        W38661  17.903  18.578   4.278  0.3712  0.2035  0.1351
21815W        W38662  18.647   0.728  12.884  0.1277  0.0831 -0.0604
21816W        W38663  13.163  17.916  12.177  0.1069 -0.0630  0.0778
21817W        W38664   5.862   6.120  11.115 -0.1699 -0.2021  0.1838
21818W        W38665  13.456   9.963   3.584  0.1771  0.3849  0.0020
21819W        W38666   8.949   7.131  12.207  0.1128  0.1804  0.0824
21820W        W38667   5.079   8.370   3.928 -0.1704  0.1512  0.0743
21821W        W38668  16.039   1.535   3.536  0.3305  0.2905 -0.1289
21822W        W38669  19.530  19.864   4.675  0.1221  0.2171 -0.0155
21823W        W38670   9.949   0.057   1.329  0.0804 -0.0132  0.2403
21824W        W38671  10.982  17.300   4.625  0.0256 -0.0487 -0.3013
21825W        W38672   0.657   5.160  14.206 -0.2170 -0.2456  0.1242
21826W        W38673   9.613   1.496  10.121  0.1111 -0.0460  0.2368
21827W        W38674  17.756  10.451   1.288  0.2514  0.0875 -0.0835
21828W        W38675  13.528   4.699  11.811 -0.0023  0.3038 -0.1158
21829W        W38676   6.685   4.327  13.960  0.0318 -0.3988 -0.0126
21830W        W38677   7.742   4.060   1.121 -0.0433  0.3439 -0.0316
21831W        W38678  12.908   2.711   0.676  0.1339  0.1012 -0.0520
21832W        W38679  14.276   8.010   4.164  0.3739  0.0264  0.0273
21833W        W38680   4.089   3.431  11.223 -0.1333 -0.1574  0.1109
21834W        W38681   0.748   5.890   1.665  0.0028 -0.1699 -0.2494
21835W        W38682   5.591  17.659   4.740  0.2467 -0.0979  0.0495
21836W        W38683   5.088   8.518  13.991 -0.0744  0.1734 -0.1112
21837W        W38684   7.788  14.690  10.210 -0.2415  0.3026 -0.0214
21838W        W38685  17.024   8.931   2.441 -0.1358 -0.0057  0.1125
21839W        W38686   3.586  14.252  13.174  0.2583  0.0470 -0.2269
21840W        W38687   0.415  13.285   0.720 -0.1888 -0.4842 -0.1749
21841W        W38688  19.512  19.396  10.594 -0.2377  0.0319  0.2773
21842W        W38689  17.079   5.572  13.564 -0.5896 -0.2976  0.0283
21843W        W38690  10.840   6.090   1.300  0.0032 -0.1765 -0.0507
21844W        W38691   1.807  17.272   3.585  0.1477 -0.0737 -0.0659
21845W        W38692   7.727  13.510   2.494  0.1085  0.0211 -0.0155
21846W        W38693  16.804  17.432   3.732 -0.0601 -0.0246 -0.4688
21847W        W38694  19.658  19.724   9.592 -0.0961  0.2497 -0.0886
21848W        W38695  18.141   3.239  12.092  0.3695 -0.2363 -0.0570
21849W        W38696  13.906   8.841  12.492  0.1366 -0.3833  0.1937
21850W        W38697  19.632  14.682  13.374 -0.0944 -0.3432  0.0658
21851W        W38698   4.642   7.248   1.555  0.0481 -0.0835  0.2666
21852W        W38699  10.790  12.476   2.661  0.1113  0.0088  0.2196
21853W        W38700   3.134  14.161  14.109 -0.1727 -0.2689  0.0552
21854W        W38701  12.360   2.586  13.119  0.2026  0.1198  0.2174
21855W        W38702   5.864   3.548   1.022 -0.1226 -0.0400  0.0143
21856W        W38703  16.713  10.101  10.744  0.0504  0.1518  0.0965
21857W        W38704  10.676  11.507   4.667 -0.1525  0.0243 -0.2349
21858W        W38705  14.389   7.254   1.282  0.2915  0.0786  0.1197
21859W        W38706   2.324   1.058   2.213  0.0358 -0.1300  0.2455
21860W        W38707   3.979  19.236  12.242 -0.0417 -0.3124 -0.0607
21861W        W38708   9.225   1.401   2.794  0.0874 -0.0901 -0.1159
21862W        W38709  16.587   1.105  12.276  0.0850 -0.0272  0.0092
21863W        W38710  17.975   0.135  11.296 -0.1916  0.1782  0.2121
21864W        W38711  17.144  17.359   1.915 -0.3613 -0.1379 -0.0501
21865W        W38712   5.265  10.128   2.283 -0.1416  0.0356 -0.3587
21866W        W38713   8.793   7.124  11.641  0.1012  0.0488  0.1297
21867W        W38714   4.252  14.330  11.465 -0.0116 -0.2470  0.0278
21868W        W38715  16.133   8.111   2.519  0.1963  0.2874 -0.0389
21869W        W38716   0.360  13.220   2.010 -0.0765  0.1515  0.0525
21870W        W38717  11.548  19.402  14.029 -0.0760  0.2659  0.0575
21871W        W38718  14.287  10.491   0.392  0.0849 -0.0797  0.1372
21872W        W38719   5.219   2.681   0.117  0.2446 -0.0874  0.0789
21873W        W38720   8.639  14.159   1.256  0.1496  0.1198 -0.1379
21874W        W38721  11.438   6.026   0.571 -0.3222  0.0757 -0.0088
21875W        W38722   3.367   5.064   3.882 -0.0782  0.0240 -0.1670
21876W        W38723  17.835  11.719  14.358 -0.1969 -0.1773  0.0012
21877W        W38724  18.297   1.714   3.622 -0.1762  0.0148 -0.0439
21878W        W38725   0.235   6.668   1.216  0.3818 -0.1980  0.0513
21879W        W38726  18.918  16.741   0.165  0.2001  0.5135  0.0377
21880W        W38727   5.135  12.436   5.580  0.0870  0.1056 -0.1864
21881W        W38728  18.216   2.931   1.966 -0.2840 -0.3087 -0.3653
21882W        W38729   8.469   7.021  12.027 -0.1268  0.0781 -0.0756
21883W        W38730   8.444   3.993  12.044  0.1541 -0.1610 -0.2062
21884W        W38731  17.590   1.919   9.524  0.2143 -0.0480  0.1326
21885W        W38732  15.281   0.210   1.727 -0.0588  0.1899 -0.0950
21886W        W38733  10.391  15.909   3.756 -0.1662  0.0778 -0.0509
21887W        W38734  10.044   4.473  11.108 -0.0374 -0.1747  0.0477
21888W        W38735   8.759  15.673  13.225 -0.1274 -0.1695 -0.1052
21889W        W38736   7.134  14.126  11.333 -0.2210  0.1641  0.1354
21890W        W38737   8.545  18.191   0.448  0.0276  0.0583 -0.2676
21891W        W38738   2.504   4.481  10.582 -0.2108  0.0359 -0.3643
21892W        W38739   5.687  18.337  14.138 -0.0896 -0.3224 -0.1000
21893W        W38740  18.965   6.306  10.448  0.0677 -0.2515  0.1266
21894W        W38741   8.174  12.509  11.964  0.1553 -0.2097 -0.2471
21895W        W38742   0.099  19.425   2.370  0.0822  0.0773  0.3049
21896W        W38743   7.172  12.140   2.801 -0.2015  0.1556 -0.0207
21897W        W38744   4.390  14.087  13.496 -0.2182 -0.1995  0.1170
21898W        W38745   3.930  12.590   2.295 -0.2871  0.0145  0.1941
21899W        W38746   4.046  17.653  12.717 -0.0088 -0.4084  0.3575
21900W        W38747   0.236  15.327   9.202 -0.1132 -0.1911  0.0435
21901W        W38748  18.267   2.877  11.579  0.0230  0.1194 -0.1430
21902W        W38749  11.514  14.955   1.415  0.1335  0.2854 -0.0873
21903W        W38750   8.666  14.467  13.620  0.1414  0.0364  0.4273
21904W        W38751   9.137   0.711   1.231  0.0430  0.1016 -0.0060
21905W        W38752  12.714  12.368   3.881  0.0083  0.0347  0.0930
21906W        W38753  12.527   2.763   1.223 -0.0210 -0.2229 -0.0528
21907W        W38754  19.158  18.337   5.426 -0.4202 -0.1737  0.1853
21908W        W38755   8.472   7.717  12.723  0.1576 -0.3255  0.2652
21909W        W38756   9.035  16.161   3.588 -0.2638 -0.0815 -0.1833
21910W        W38757   1.781  10.867   1.376  0.2123 -0.0845  0.1744
21911W        W38758   6.068   8.553   3.594  0.0185  0.5577 -0.0071
21912W        W38759  16.553  15.099  13.877  0.1745  0.3540 -0.0410
21913W        W38760   5.159   9.724   5.326 -0.2592 -0.2361 -0.0656
21914W        W38761  11.104   5.222   5.358 -0.2226  0.0021  0.1751
21915W        W38762   1.269  14.230  14.294  0.0507 -0.3858 -0.1362
21916W        W38763   3.547  18.520  10.672  0.0495  0.3572  0.0159
21917W        W38764  14.214   5.737  11.702  0.0841  0.0800  0.0304
21918W        W38765  13.353   9.625   4.038 -0.1837 -0.1789 -0.1094
21919W        W38766   0.227   5.328   2.331 -0.1237  0.1226 -0.2399
21920W        W38767   9.024  14.422   1.472 -0.0432  0.1269  0.1753
21921W        W38768   4.906  17.574   3.441  0.0321 -0.2030 -0.0420
21922W        W38769  16.739   3.101   9.211 -0.0156 -0.1725  0.1479
21923W        W38770   6.134  11.827  13.725  0.4172 -0.0728 -0.1114
21924W        W38771  10.617   1.717  12.846  0.0045  0.1918  0.4036
21925W        W38772   4.845   3.261  12.057 -0.1497 -0.3720  0.0795
21926W        W38773   6.752  19.597  11.439  0.0391 -0.1080  0.0460
21927W        W38774  12.714   7.077  12.858 -0.3700 -0.2147 -0.1656
21928W        W38775  19.284  11.897   2.042  0.0746  0.0108 -0.0061
21929W        W38776  12.313   3.560   4.254  0.0743  0.0714  0.0144
21930W        W38777  10.215   5.538  13.015  0.1876  0.0886  0.2598
21931W        W38778  18.120   0.427   3.466 -0.0743  0.1556 -0.0952
21932W        W38779  15.997   8.318   9.995  0.3086  0.2869  0.5137
21933W        W38780   6.262   7.407   9.940 -0.0226  0.3379  0.1144
21934W        W38781   3.773   0.153   4.199 -0.0317 -0.1640  0.3518
21935W        W38782  18.631   8.004  12.301 -0.2660 -0.1539 -0.1339
21936W        W38783  14.424  17.521   2.250  0.1508  0.2501  0.0947
21937W        W38784  17.054  14.296  12.896 -0.1143 -0.1233 -0.1484
21938W        W38785   0.058  12.127  10.599 -0.3544  0.3938 -0.1417
21939W        W38786   8.512   7.780  10.473  0.0257  0.0693 -0.0111
21940W        W38787   0.921  16.062   2.081 -0.1655 -0.0262  0.0868
21941W        W38788  15.394  12.979  10.562  0.0330  0.1798 -0.0361
21942W        W38789   1.815   5.195   4.552  0.1196 -0.0093  0.0841
21943W        W38790   4.313  17.851   1.130  0.3712 -0.1285 -0.1893
21944W        W38791   9.318   8.983  13.327 -0.0370  0.2347  0.0672
21945W        W38792   7.245  13.602   2.472 -0.2449  0.0372  0.0733
21946W        W38793  14.629  15.102   1.335 -0.3756 -0.0645  0.2561
21947W        W38794   7.419   1.433   4.538  0.3397  0.1330 -0.0459
21948W        W38795  11.609  11.028   4.364 -0.1645  0.0524  0.1880
21949W        W38796   5.997  13.363   2.714 -0.2019  0.2440  0.2870
21950W        W38797   2.076   1.843   4.096 -0.0889  0.0163 -0.4323
21951W        W38798   1.755  13.280   1.593 -0.1897 -0.0660  0.1759
21952W        W38799   5.570   1.634   0.052  0.1734 -0.0946  0.1559
21953W        W38800   8.698  13.384  11.126 -0.2791 -0.3677 -0.2552
21954W        W38801   6.121  10.654   5.449 -0.2350  0.2439 -0.1175
21955W        W38802   9.695  13.303  13.316 -0.5363 -0.1189  0.2700
21956W        W38803   8.985  17.534  13.333 -0.0168  0.0412 -0.0064
21957W        W38804   5.080   0.123   4.223  0.0634  0.1392  0.1057
21958W        W38805  11.109  11.803   4.609 -0.0559  0.2317 -0.2590
21959W        W38806  15.848  12.417   1.874  0.4574  0.0142  0.3322
21960W        W38807   7.629   6.664   5.290 -0.0105  0.2395 -0.1808
21961W        W38808  19.759  16.912   0.719  0.1485 -0.2800  0.1300
21962W        W38809   0.272   6.316  12.149  0.2156 -0.1866 -0.0544
21963W        W38810   5.464  17.627   3.678  0.2165 -0.0657  0.2746
21964W        W38811  19.252  14.799  11.927 -0.0786  0.2885 -0.1032
21965W        W38812  15.356   2.821   2.683 -0.2004  0.0522 -0.2455
21966W        W38813  14.766   6.339   4.660 -0.0634  0.0739  0.0524
21967W        W38814   3.555   9.672  12.775 -0.0967  0.2338 -0.0572
21968W        W38815   4.393   8.262   2.879  0.1097  0.0329  0.0059
21969W        W38816   7.205   0.338   0.956 -0.0697  0.5942 -0.2201
21970W        W38817  17.089   8.885  11.376  0.2046  0.0363  0.0864
21971W        W38818  15.880   5.101  10.657  0.2280  0.1381  0.2325
21972W        W38819  16.086   7.251  13.278 -0.1896 -0.0216  0.1585
21973W        W38820   7.149  16.188   3.687  0.0156  0.0506 -0.2424
21974W        W38821   6.423  17.662  11.122  0.1882  0.3434 -0.0103
21975W        W38822   9.028  15.543   3.843  0.0328 -0.0808  0.0756
21976W        W38823   5.101  16.750   1.775 -0.1864 -0.4897 -0.0119
21977W        W38824  11.528   1.640   1.852  0.3255 -0.0436 -0.2298
21978W        W38825  14.171  14.501  11.389  0.4427  0.2520 -0.0207
21979W        W38826  11.828   1.917   1.457  0.5499  0.3452 -0.1081
21980W        W38827  11.087  19.218  14.189  0.3181 -0.0734 -0.3733
21981W        W38828  14.820  12.187  13.891 -0.1834 -0.1113  0.0926
21982W        W38829  16.823  16.624  11.524 -0.1819 -0.0705 -0.0924
21983W        W38830  11.878   9.261  13.080  0.0016  0.0266 -0.1421
21984W        W38831  12.121   0.558  11.699 -0.0072 -0.0098 -0.0627
21985W        W38832  12.452  16.168   0.993 -0.0851  0.3490  0.1963
21986W        W38833   1.083  14.069   0.876 -0.1464  0.0337 -0.1225
21987W        W38834  17.156   2.753   1.548  0.1087  0.1250  0.2987
21988W        W38835   4.491   6.245   3.783  0.0941  0.1414 -0.4286
21989W        W38836   4.676   2.621  10.523  0.2219 -0.0511  0.1145
21990W        W38837   8.010   6.245  11.557  0.0666  0.4016  0.2124
21991W        W38838  13.263   9.785   2.531  0.1957 -0.2024  0.1773
21992W        W38839  12.543  13.935   3.898  0.0315 -0.0500 -0.1997
21993W        W38840   5.522   0.908   4.701  0.0836 -0.0480  0.0532
21994W        W38841   5.527   4.472  12.944 -0.0336  0.0537 -0.0368
21995W        W38842  18.010   7.092   2.330 -0.2535 -0.0851 -0.1838
21996W        W38843   2.708  11.461   3.687  0.1031  0.0993  0.2738
21997W        W38844   5.793   3.417  14.318  0.3493  0.0468 -0.2627
21998W        W38845   2.770   6.159  13.031 -0.1889 -0.2648  0.1491
21999W        W38846  11.940   2.516  10.242 -0.1945 -0.2990 -0.1970
22000W        W38847  18.820   4.111   3.410  0.3984 -0.1981 -0.3851
22001W        W38848   7.579  14.802   3.706 -0.3776  0.2114 -0.1502
22002W        W38849  15.834   7.591   3.596 -0.1294  0.2011 -0.0990
22003W        W38850   4.686   3.795   0.641  0.3345 -0.0948 -0.1246
22004W        W38851  16.162   2.719  13.543 -0.1478 -0.2379  0.1039
22005W        W38852   8.455  15.657   9.513  0.1507 -0.0049 -0.1628
22006W        W38853  16.621  15.671  13.003  0.2773  0.0505  0.2166
22007W        W38854   0.261   8.967   1.594  0.1721 -0.0805 -0.0437
22008W        W38855   3.633   0.065  11.065  0.3075 -0.2059 -0.0516
22009W        W38856  17.340  19.107  13.751  0.0165  0.1813 -0.1788
22010W        W38857   7.583   8.087  10.843 -0.0832  0.1973  0.0677
22011W        W38858   1.437  10.356  12.459 -0.3636 -0.1655 -0.1032
22012W        W38859  10.184  13.452  12.403 -0.1070  0.0253 -0.3173
22013W        W38860  17.446  12.186   0.959  0.1202 -0.0975 -0.3780
22014W        W38861  10.226   0.056  10.276 -0.1760  0.2278  0.0828
22015W        W38862  11.709   4.835  10.926  0.0662 -0.0288 -0.3803
22016W        W38863   2.403  15.895  13.815  0.3566 -0.1778 -0.0233
22017W        W38864   4.069  17.543   2.723  0.3181  0.1599  0.1177
22018W        W38865  16.381  18.323   9.923 -0.2374  0.1216 -0.0884
22019W        W38866  18.643  14.465   2.771 -0.2028  0.2481 -0.0691
22020W        W38867   0.531  18.267   5.261 -0.1668  0.0513  0.1230
22021W        W38868  15.252   7.750  11.853 -0.0496 -0.0139 -0.0065
22022W        W38869   1.303  17.087  14.221  0.0035  0.0977  0.1823
22023W        W38870   0.686   0.068   1.604 -0.0661 -0.0513  0.0887
22024W        W38871   5.755   4.608   1.088  0.4759 -0.3509  0.1334
22025W        W38872  11.586   4.538  10.536 -0.0195  0.1043 -0.2765
22026W        W38873   8.213   6.018   9.986  0.0668 -0.1886 -0.0476
22027W        W38874   5.902   5.218  12.937 -0.3234  0.1788  0.2438
22028W        W38875   5.477  14.673  12.003  0.0224 -0.1692 -0.0565
22029W        W38876   1.149  10.192   1.766 -0.1410  0.3034  0.1193
22030W        W38877  11.816  13.757  13.673 -0.3101 -0.0498 -0.1471
22031W        W38878  17.151  13.987   4.078  0.0310 -0.0389  0.0209
22032W        W38879  16.546   2.572  13.800  0.0563  0.0405 -0.0906
22033W        W38880   1.884  15.953   3.531 -0.2382 -0.1569 -0.0856
22034W        W38881   5.269  15.119  13.169 -0.0377  0.1003 -0.2142
22035W        W38882   5.925   5.211   3.046  0.1988 -0.0418 -0.0435
22036W        W38883  14.102  14.459  14.348  0.2308  0.0917 -0.2136
22037W        W38884  15.432   2.452   2.048 -0.0976 -0.4519  0.1944
22038W        W38885  19.084   3.911  12.058  0.0152 -0.1647 -0.0232
22039W        W38886  17.356  12.442   1.650  0.1670 -0.0780 -0.2292
22040W        W38887   7.780  14.470  13.611 -0.4265  0.0490 -0.2086
22041W        W38888   5.059  13.031  13.569 -0.2435 -0.1621 -0.1702
22042W        W38889  12.110  13.263   5.262 -0.1587  0.0894  0.0114
22043W        W38890   3.799   5.149  11.429 -0.4436  0.1163  0.3745
22044W        W38891  14.240   9.516   3.758 -0.0985  0.1768 -0.0304
22045W        W38892   4.889   9.568   4.036 -0.0049 -0.2340  0.0694
22046W        W38893  19.140   3.075   8.957 -0.2958 -0.0061  0.2207
22047W        W38894   3.333   7.920  11.086 -0.1535  0.1775 -0.0577
22048W        W38895  16.255   7.524   0.324  0.1119 -0.0997  0.2069
22049W        W38896  19.761   3.068   2.676 -0.0005 -0.0844 -0.3184
22050W        W38897  10.457  12.124   9.676 -0.2437 -0.2463  0.2144
22051W        W38898  15.648  18.552  13.175 -0.1362 -0.1362 -0.1905
22052W        W38899   9.658  17.645  12.620  0.0785  0.2415 -0.0687
22053W        W38900   4.021  16.862  10.163 -0.2255  0.0695  0.2537
22054W        W38901   2.963  15.734   1.812 -0.2126 -0.0924  0.1782
22055W        W38902  16.665   6.764  11.842 -0.1190  0.2774  0.3763
22056W        W38903   3.955   2.669   0.608  0.3305  0.0097 -0.0718
22057W        W38904   5.029   9.317   4.870  0.0837 -0.0577  0.0746
22058W        W38905   1.307  18.034  13.100  0.0262 -0.2612 -0.1300
22059W        W38906  11.770  10.855  11.429 -0.2500  0.0716  0.0102
22060W        W38907  16.922   9.407  13.175 -0.3738  0.3869 -0.2205
22061W        W38908   9.177  16.843   2.844 -0.2151 -0.1972  0.0734
22062W        W38909   9.206  14.712   4.445 -0.0346 -0.1660 -0.4269
22063W        W38910  17.045  18.752   3.450  0.2035  0.2347 -0.0980
22064W        W38911   4.805   4.896  12.457  0.1501  0.0798  0.0834
22065W        W38912  17.219   3.142  10.219  0.2468 -0.0507 -0.0890
22066W        W38913  19.792   8.030  13.955 -0.0047 -0.0286 -0.1081
22067W        W38914  12.557  13.185   1.486  0.2371  0.0037  0.2709
22068W        W38915   8.898   4.718  13.416  0.0770 -0.0030  0.4241
22069W        W38916   8.875   2.364  11.249 -0.2615 -0.1833  0.0370
22070W        W38917   4.000  18.895   4.412 -0.0140 -0.1752 -0.0164
22071W        W38918   2.933  19.083   3.550 -0.1744  0.0920 -0.2005
22072W        W38919  16.784   6.136  12.442  0.1664  0.4033 -0.0571
22073W        W38920   4.938   7.256   2.969 -0.2231 -0.2209 -0.1018
22074W        W38921  14.366  17.571   1.696  0.2135 -0.0883 -0.0071
22075W        W38922   7.990   5.308   3.555  0.1113 -0.3373  0.4602
22076W        W38923   1.579   3.111   2.122 -0.0523  0.1931  0.0626
22077W        W38924   9.049  17.000  13.048  0.0706 -0.1540 -0.0160
22078W        W38925  18.538   6.067  11.348  0.1529 -0.6511 -0.2099
22079W        W38926  17.773   3.622  10.949 -0.1105 -0.0541  0.1351
22080W        W38927  12.867   4.264  10.677 -0.2040 -0.5057 -0.0337
22081W        W38928   2.689   1.017  10.538  0.1303  0.0275  0.1877
22082W        W38929  10.255  16.881   3.330  0.2139 -0.2560  0.0676
22083W        W38930   1.756   0.224  11.428 -0.0335 -0.0897  0.1741
22084W        W38931   7.451   9.397   3.983 -0.1970  0.2873 -0.1594
22085W        W38932  16.732   1.475  11.789 -0.1331 -0.1208 -0.0110
22086W        W38933  16.489  10.568   1.584 -0.1863 -0.1211  0.1490
22087W        W38934  18.511   2.499   4.169 -0.0050 -0.1165 -0.0557
22088W        W38935   4.570  18.695   0.446 -0.2674  0.3480  0.0850
22089W        W38936   1.294  13.994   1.729  0.2361 -0.0798 -0.1222
22090W        W38937  15.771  13.231  10.391 -0.1861 -0.2773 -0.0783
22091W        W38938   9.250   4.316   4.252  0.1255  0.0468  0.1626
22092W        W38939  10.626  12.037   4.361  0.2320  0.0893  0.3330
22093W        W38940  17.277  19.766   4.447  0.0517 -0.1686 -0.1493
22094W        W38941   4.875   4.625   0.527  0.0682 -0.3282 -0.0352
22095W        W38942  14.895  19.822  10.202  0.1334 -0.1104 -0.0637
22096W        W38943  19.855  12.400   2.182 -0.0933 -0.0213  0.0354
22097W        W38944  16.527   6.612  10.963  0.2159 -0.0765 -0.3036
22098W        W38945   8.121   8.735   0.229  0.2459  0.0967 -0.3420
22099W        W38946   2.712  13.355  13.305  0.0448 -0.1781 -0.5761
22100W        W38947  19.411  11.523  10.500  0.0848  0.0548  0.0983
22101W        W38948   8.285  15.488  11.203  0.1611  0.4070 -0.2248
22102W        W38949   6.305  11.672   3.732  0.1167 -0.1027  0.1695
22103W        W38950   2.078   7.193  11.361 -0.2333  0.1972 -0.1305
22104W        W38951   9.714  17.639   0.397  0.0377  0.1373  0.1535
22105W        W38952  16.853   6.034  13.705  0.1169 -0.1587 -0.0833
22106W        W38953  11.210  15.534   1.242 -0.1126  0.0754  0.2598
22107W        W38954   4.507  17.560   0.302  0.1932 -0.1269 -0.0612
22108W        W38955   2.423  18.503   4.321 -0.2589 -0.3026  0.3548
22109W        W38956  18.451  17.614   3.865  0.0352  0.1210  0.1020
22110W        W38957  13.529  12.636   2.640 -0.1627  0.3349  0.0004
22111W        W38958  13.787   1.589   4.821 -0.0088 -0.2297 -0.0506
22112W        W38959  13.039   4.329   4.026 -0.0185  0.1393 -0.1945
22113W        W38960  13.035   1.468   0.078 -0.0768  0.1726  0.1532
22114W        W38961   5.695  17.211  10.604 -0.1374 -0.1984 -0.2218
22115W        W38962   8.620   0.815   1.267 -0.0938  0.0137  0.1830
22116W        W38963   6.509  14.141  12.545 -0.3662 -0.2709  0.1696
22117W        W38964  17.418   5.606   2.645 -0.0370 -0.2364 -0.1017
22118W        W38965   2.571  18.526  10.366 -0.2912  0.2291  0.0819
22119W        W38966  17.741  10.227  14.055  0.1007  0.2865  0.3354
22120W        W38967   4.862   1.577  13.082 -0.1206 -0.2668  0.0252
22121W        W38968  15.194  11.849   9.138 -0.0056 -0.0010  0.3360
22122W        W38969  12.324   0.843  12.005 -0.2698 -0.0393  0.0527
22123W        W38970   3.558  14.562  10.890 -0.5411 -0.0565 -0.1848
22124W        W38971   0.610  11.318   0.405 -0.2925  0.0167 -0.0425
22125W        W38972   2.159   3.095  13.050 -0.1620 -0.2804 -0.0554
22126W        W38973  14.002  16.999   3.558  0.1633  0.0704  0.3780
22127W        W38974  11.987   2.043   1.001  0.1655 -0.1061  0.3938
22128W        W38975   7.043   9.510  11.320 -0.0253 -0.2681 -0.0301
22129W        W38976  19.383  17.039   1.962 -0.2052  0.0883  0.0653
22130W        W38977   7.922  17.334  12.650 -0.2216 -0.3162  0.1350
22131W        W38978  18.841   8.900  11.866  0.1944  0.2087 -0.2095
22132W        W38979  13.225   8.043  11.139 -0.0622 -0.0806  0.0694
22133W        W38980   9.955  12.370  13.527 -0.3288 -0.2563 -0.0614
22134W        W38981   4.727   0.408  11.399  0.2236  0.0480 -0.0393
22135W        W38982  10.643   7.881  10.909  0.2427  0.0318 -0.0202
22136W        W38983   9.107  14.096  10.521 -0.2978 -0.0692 -0.2066
22137W        W38984  11.692   4.788   9.778  0.0321 -0.1469 -0.0381
22138W        W38985  14.094   6.435  10.368  0.1066  0.1799  0.1842
22139W        W38986   7.773  14.427   2.591  0.1645  0.3420 -0.1577
22140W        W38987   3.607  17.582   4.476  0.1525  0.5188  0.3385
22141W        W38988  18.910   3.768  12.505 -0.1928 -0.3716 -0.0969
22142W        W38989  13.984   1.041  10.216 -0.0476  0.1521 -0.0389
22143W        W38990   0.982  12.891   4.038  0.2690 -0.0707 -0.1462
22144W        W38991  11.047   4.626   9.222 -0.1285  0.0256 -0.0387
22145W        W38992   3.444   4.556   4.971 -0.4270  0.2206  0.1080
22146W        W38993  17.358   1.674   0.320  0.0906  0.0395  0.3467
22147W        W38994  15.590  10.970   9.844 -0.1016  0.0545 -0.0904
22148W        W38995  14.267  19.256   2.157  0.1743  0.4729  0.0017
22149W        W38996   0.338   4.279  13.269  0.2149 -0.1151  0.1841
22150W        W38997  15.830  12.954  14.302 -0.0570  0.1476 -0.0883
22151W        W38998   0.314   1.890  13.286 -0.1409 -0.0982  0.2366
22152W        W38999  16.117   5.316   0.961 -0.0979  0.0635 -0.2329
22153W        W39000   7.327   2.238   2.559  0.0079 -0.0889 -0.1731
22154W        W39001  12.302   2.773   1.665  0.2734  0.1318 -0.1234
22155W        W39002   7.295   1.998  10.811  0.0722 -0.2453  0.0986
22156W        W39003  16.274   0.891   2.953  0.0223  0.1495 -0.1560
22157W        W39004  14.908  12.922   1.497  0.1204  0.0344  0.0785
22158W        W39005   5.778  10.419   3.954  0.0018  0.1556  0.0475
22159W        W39006  10.578   4.034   0.798  0.0743  0.0247  0.1543
22160W        W39007  19.830  16.520   0.455 -0.1435  0.1106  0.0702
22161W        W39008  13.479  17.562  10.447 -0.1665  0.0316 -0.0354
22162W        W39009  12.474   6.866   0.891 -0.1166 -0.1873 -0.3568
22163W        W39010  14.141   3.311  11.688  0.3792 -0.0984  0.2147
22164W        W39011   6.526  14.632  10.973 -0.0178  0.0244  0.1932
22165W        W39012  13.461  17.058  12.347  0.4529 -0.0357  0.0515
22166W        W39013  19.320   8.539  13.162 -0.1811  0.1613  0.2602
22167W        W39014  15.525   0.601  13.226 -0.0236 -0.0054 -0.0795
22168W        W39015   6.015  17.254   0.455  0.0438 -0.3901 -0.0987
22169W        W39016  12.063   5.951  12.778  0.0606  0.0070 -0.0673
22170W        W39017   5.703   8.737   3.896  0.3617 -0.0468 -0.1540
22171W        W39018   2.376  12.764  12.604  0.0585  0.0104  0.1889
22172W        W39019  11.312  14.043   3.547 -0.0951  0.1615  0.2758
22173W        W39020  14.109  10.818   2.687 -0.2495 -0.0060 -0.0028
22174W        W39021  10.092  11.357  12.930 -0.0207  0.0572 -0.1301
22175W        W39022  14.422  13.403   1.689  0.2647  0.1386  0.0040
22176W        W39023   6.711   8.782   1.970 -0.1785  0.1680  0.2172
22177W        W39024   5.328  18.061   0.899 -0.1786 -0.0721  0.2974
22178W        W39025  16.267   7.618  12.218  0.2586  0.0008  0.3372
22179W        W39026   5.807  12.143   4.403 -0.1984  0.2838 -0.1599
22180W        W39027  13.255   0.755  12.255  0.1029 -0.3808  0.1580
22181W        W39028   8.772   5.270   9.116 -0.0141 -0.2426  0.1035
22182W        W39029   4.303   5.818   0.968  0.3222 -0.0190 -0.1517
22183W        W39030   2.695   0.350   1.621  0.1380 -0.1293 -0.3388
22184W        W39031   5.035  16.225   2.124  0.0346 -0.2194  0.1191
22185W        W39032  10.728   2.705  12.016  0.5819 -0.0987 -0.3486
22186W        W39033   4.686  19.058   1.926  0.2036 -0.1106 -0.1167
22187W        W39034   4.992  18.572  11.001 -0.1763 -0.3014 -0.1531
22188W        W39035  13.816  17.291  10.206 -0.3430  0.0208  0.0974
22189W        W39036  14.220   7.182  13.028 -0.2830 -0.0592  0.0226
22190W        W39037   7.781   7.653  13.625  0.0861  0.1552  0.0472
22191W        W39038   2.392  14.856   2.717  0.0445 -0.1737  0.1449
22192W        W39039   6.149  14.892  11.316 -0.2990 -0.0170 -0.1839
22193W        W39040  10.425   5.274  11.073 -0.3335 -0.2569 -0.1389
22194W        W39041   1.947  10.157  10.868 -0.0910  0.1504  0.0548
22195W        W39042  16.121  18.570  13.479  0.2885 -0.0108  0.0990
22196W        W39043   1.431  14.955   4.423 -0.0440 -0.0358 -0.2355
22197W        W39044  18.791  13.811   1.688  0.2287  0.0429 -0.1072
22198W        W39045   3.108   8.828  12.083 -0.2318  0.1080  0.2621
22199W        W39046   0.292  18.698  11.903 -0.0394 -0.0486  0.1702
22200W        W39047   4.472   2.943  14.179  0.1657  0.3626  0.1213
22201W        W39048   6.440   6.273  11.059 -0.0429  0.0493  0.1682
22202W        W39049  11.377  10.853   5.011 -0.0971  0.1631 -0.1867
22203W        W39050   3.926   0.087  13.750  0.0398  0.0862  0.0580
22204W        W39051   1.736   1.506   4.875 -0.1028  0.1986 -0.1745
22205W        W39052  19.786   7.255  10.720 -0.0047 -0.0274  0.1405
22206W        W39053  11.039  14.523  12.790 -0.0232 -0.0580  0.0942
22207W        W39054   1.415  16.121   2.353 -0.1880 -0.0335 -0.1396
22208W        W39055   8.547   7.018   3.628 -0.4006  0.1613 -0.3309
22209W        W39056  13.897  15.141  12.105  0.1181  0.1587  0.1312
22210W        W39057   4.170  15.090  11.494  0.0938  0.1439  0.4114
22211W        W39058  16.696   3.137  11.686 -0.1884 -0.0082  0.2094
22212W        W39059  14.241   8.254   0.619 -0.2049  0.1871 -0.4169
22213W        W39060  16.131  18.886  12.564 -0.3453 -0.0907  0.0901
22214W        W39061   6.842  13.836   1.161  0.2556  0.1883 -0.5187
22215W        W39062   3.333  14.884  13.835  0.0693 -0.1342 -0.0777
22216W        W39063   1.749   1.106   3.907 -0.0621 -0.1188  0.0816
22217W        W39064   5.033  15.530  10.699  0.1268  0.1899 -0.1981
22218W        W39065   2.768   3.858   0.517 -0.1398 -0.1752 -0.1871
22219W        W39066   0.285   7.576  12.690  0.1153 -0.2420  0.0287
22220W        W39067   4.972  11.162   5.147 -0.3220 -0.0151  0.2920
22221W        W39068  15.428  16.114   5.427 -0.1751 -0.0264 -0.1965
22222W        W39069   5.170  19.341   3.620 -0.3561 -0.1345  0.1294
22223W        W39070  19.659  18.622   0.022 -0.1212  0.0599  0.0606
22224W        W39071   0.617  18.568   4.275 -0.0804 -0.0565  0.3406
22225W        W39072   0.462  14.952   4.397 -0.1679 -0.1702 -0.3249
22226W        W39073   3.716  17.498  14.081 -0.1392  0.0009 -0.2389
22227W        W39074   3.721  14.692   1.437 -0.0858  0.3888  0.2005
22228W        W39075  18.602   7.676   2.380 -0.2137 -0.2091 -0.2261
22229W        W39076  19.466  13.266   0.328  0.4248 -0.0285 -0.0398
22230W        W39077   3.227   7.045   1.540  0.3524  0.0293  0.1736
22231W        W39078  16.665  11.399  11.932  0.1530 -0.0264  0.0597
22232W        W39079   4.082  10.187   2.811  0.0028  0.1525  0.0048
22233W        W39080  15.201   1.003   2.764  0.1294  0.1471 -0.5488
22234W        W39081  13.851  17.433   1.468  0.0307 -0.3636 -0.0044
22235W        W39082   3.064  10.273   4.198 -0.2906 -0.1039  0.1555
22236W        W39083  11.788   5.748  11.971 -0.0477 -0.2226 -0.1115
22237W        W39084   1.239  17.312  13.655  0.0143 -0.3650 -0.0911
22238W        W39085   4.269   5.712   3.781 -0.1325  0.0765 -0.0218
22239W        W39086   7.293   3.347   4.847  0.0711  0.0449  0.0616
22240W        W39087   8.415  12.055  11.828  0.1278 -0.3332  0.0993
22241W        W39088  19.705   8.422   3.744 -0.2728 -0.0537 -0.0164
22242W        W39089  12.315   6.080  12.343  0.0335 -0.3566  0.0579
22243W        W39090  16.246   8.994  11.241 -0.1158 -0.0292 -0.1117
22244W        W39091   1.739  18.767   1.161 -0.1325  0.0580 -0.2617
22245W        W39092   5.901   5.373   0.390  0.3568 -0.1415 -0.1971
22246W        W39093  19.823  10.653  13.515  0.0367 -0.2218 -0.0144
22247W        W39094   7.965   2.182  11.388  0.1082  0.2029  0.2968
22248W        W39095   0.890   9.213   3.125 -0.1790  0.0018  0.0029
22249W        W39096   9.713   3.756   1.621 -0.2064  0.0654  0.4775
22250W        W39097   4.985  11.426   0.494 -0.0527  0.3489 -0.0134
22251W        W39098   0.816   4.213  12.892  0.0438  0.1052 -0.0703
22252W        W39099  11.882   0.681   0.408  0.0258  0.0326  0.3129
22253W        W39100   2.469  10.070  12.854 -0.2968  0.0715 -0.1758
22254W        W39101  17.873   6.572   2.564  0.2451  0.1294  0.0142
22255W        W39102   9.690  14.414  12.436 -0.4363 -0.2231  0.0690
22256W        W39103   3.087   2.241  10.868 -0.0314  0.0955  0.0476
22257W        W39104   8.930   8.195   2.688  0.0716  0.0815  0.0341
22258W        W39105   9.463   5.956  10.601 -0.2347 -0.2950 -0.0921
22259W        W39106   0.093   7.244   5.040 -0.0736 -0.1360  0.1386
22260W        W39107  14.561   8.429   4.390 -0.0218  0.0543 -0.2478
22261W        W39108  11.665  17.991   1.906 -0.0188  0.1357 -0.2590
22262W        W39109  16.668   0.592   0.920  0.1585  0.0610 -0.1038
22263W        W39110   4.758   1.505  11.083 -0.2303 -0.1161 -0.5351
22264W        W39111  13.743   6.572   5.276  0.2237  0.0778  0.4236
22265W        W39112   6.625  13.599  10.255 -0.1159  0.0475  0.0181
22266W        W39113  18.461   5.568   2.884  0.1939  0.0071  0.0378
22267W        W39114  18.311   7.664  12.637  0.1828 -0.0097 -0.4458
22268W        W39115   8.809  12.682   0.054  0.0566 -0.2344  0.0126
22269W        W39116   0.387  11.878   3.315 -0.2062  0.1810 -0.0782
22270W        W39117   2.450   5.245   2.602 -0.1886  0.1026  0.1215
22271W        W39118  16.558   0.101   1.694  0.1748  0.0525  0.0101
22272W        W39119  13.973  13.496  12.782  0.1038  0.1150  0.3122
22273W        W39120   7.826  14.404   4.450 -0.0977  0.2776 -0.0592
22274W        W39121   5.666  12.909   4.412 -0.0859  0.0547  0.2206
22275W        W39122  13.167   8.522  12.527 -0.3294  0.0035  0.2605
22276W        W39123   8.758  13.636   5.035  0.3938  0.3655 -0.1451
22277W        W39124   4.657   4.825   9.963 -0.2535 -0.0456 -0.1537
22278W        W39125   6.830  17.494  10.361 -0.2393 -0.2590  0.1928
22279W        W39126  13.433  17.778  13.403 -0.0332  0.0540 -0.1721
22280W        W39127  15.149   5.888  11.866 -0.0408  0.0463  0.3831
22281W        W39128  13.564  11.332  13.439  0.2118  0.0585 -0.2963
22282W        W39129  11.533   9.022   4.235 -0.2897  0.3093  0.0634
22283W        W39130   2.819  11.531  12.849  0.1815  0.1019 -0.2159
22284W        W39131   0.129  13.530   1.182  0.0967 -0.5750 -0.2394
22285W        W39132   9.641  11.329  13.110  0.1229 -0.3112  0.1479
22286W        W39133  10.560  12.815   1.650 -0.0606 -0.1397 -0.2407
22287W        W39134   7.914   8.443  14.122  0.0798 -0.3043  0.1189
22288W        W39135   0.052   7.951   0.457  0.1403  0.1144 -0.3278
22289W        W39136  19.618   7.586   4.855  0.0006  0.1299  0.0426
22290W        W39137  19.371   7.124   3.226 -0.0665 -0.0607 -0.0633
22291W        W39138   0.618   9.538  10.737  0.1079  0.0430  0.1057
22292W        W39139   6.261  19.536  12.601 -0.0549 -0.1045  0.1032
22293W        W39140   7.701  11.619  10.761  0.0330  0.0425  0.2434
22294W        W39141   7.959   9.454   3.003  0.0216  0.1387 -0.1710
22295W        W39142  18.731   0.631   2.379  0.0457  0.0230  0.0693
22296W        W39143   7.053   3.115  12.251 -0.1300 -0.0861 -0.1529
22297W        W39144  10.304  19.147  10.684 -0.0572 -0.0669 -0.0421
22298W        W39145  16.773   0.000  12.171 -0.0124 -0.0775 -0.2549
22299W        W39146  19.014  16.276  14.273  0.1588 -0.0457  0.0805
22300W        W39147  18.860   1.062   3.458  0.0590  0.0583  0.0856
22301W        W39148   1.614  19.389  10.353 -0.0208 -0.0942 -0.4213
22302W        W39149  17.896   0.910  10.739 -0.1704 -0.0088 -0.2013
22303W        W39150   4.678   3.526   1.492 -0.2196  0.0132  0.0528
22304W        W39151   9.585  14.293  13.755  0.1716 -0.0176 -0.0543
22305W        W39152   4.140   2.525  12.364  0.4274  0.0667  0.0478
22306W        W39153   2.488  11.599   0.216 -0.0734 -0.2151  0.0086
22307W        W39154   9.386  14.481  13.304  0.1509  0.0355  0.2670
22308W        W39155   5.878  15.792   2.686  0.0841  0.0352 -0.0131
22309W        W39156  12.522   0.993  13.235 -0.0203  0.2751  0.1142
22310W        W39157  19.571  17.635  12.890 -0.0131 -0.2129  0.1696
22311W        W39158  11.195  11.968   1.855 -0.1043 -0.0672  0.1873
22312W        W39159  19.114  10.903  10.998 -0.0809 -0.3754  0.1089
22313W        W39160  18.878   4.690   0.708 -0.0528 -0.0335 -0.0548
22314W        W39161  11.010  10.393   4.680  0.1283  0.1103  0.0299
22315W        W39162  16.899  12.842   1.246 -0.1270  0.0150  0.1491
22316W        W39163   2.429  13.534  13.707 -0.0646  0.1017 -0.0866
22317W        W39164   4.144   4.557   4.332  0.2507 -0.4252 -0.1153
22318W        W39165  18.732   1.315   0.195  0.1635 -0.0754  0.2326
22319W        W39166  12.434   3.513  12.612 -0.3647 -0.1110 -0.1034
22320W        W39167   5.260  12.701   1.888 -0.0686  0.1916 -0.0681
22321W        W39168  13.427  13.177  11.611  0.1629  0.0118 -0.0405
22322W        W39169   3.293   7.055   2.829 -0.2568 -0.2564 -0.0618
22323W        W39170  19.055   6.643   3.870  0.0925 -0.1743  0.0781
22324W        W39171  15.613   7.374   2.268  0.1776  0.4706  0.1564
22325W        W39172   7.448   4.605  12.294  0.4790 -0.1581 -0.2432
22326W        W39173   3.385   9.626   1.085  0.1280  0.0971 -0.0616
22327W        W39174   9.950   8.147   4.875 -0.2580 -0.0373  0.0784
22328W        W39175   1.976  16.430   3.319  0.1201  0.1196  0.1786
22329W        W39176   3.404  17.897   3.140  0.0111  0.0224  0.0513
22330W        W39177   3.521   3.735   1.932  0.1177  0.1305 -0.0521
22331W        W39178  11.552  14.398   3.935 -0.2000  0.1181  0.1972
22332W        W39179  15.096   8.608  11.816  0.0530 -0.1068 -0.1189
22333W        W39180  17.376   0.598   2.264  0.0375 -0.0659 -0.1846
22334W        W39181  14.310   7.112   4.241 -0.0465 -0.0799 -0.0577
22335W        W39182   0.359   5.966   4.325  0.3198 -0.1124 -0.2264
22336W        W39183  19.016   0.666   3.021  0.0454  0.0055  0.0925
22337W        W39184   9.481   4.346   1.992  0.0525 -0.1684  0.0109
22338W        W39185   0.204  19.201  10.616  0.1894 -0.1113 -0.4528
22339W        W39186   5.685   1.747   2.900 -0.2469  0.0181  0.5856
22340W        W39187  14.907   4.527  13.094  0.2776  0.0973 -0.0988
22341W        W39188  10.575  19.782   2.040  0.2553 -0.1293 -0.1942
22342W        W39189  10.153   0.645   3.078 -0.1815  0.0639  0.2263
22343W        W39190   7.673  14.403   3.476  0.0227  0.2728 -0.2645
22344W        W39191   3.811  17.729   0.142  0.0542 -0.0161 -0.3087
22345W        W39192   3.462   1.918   1.707  0.2035  0.1847  0.0256
22346W        W39193  10.103   2.572   8.813 -0.1452 -0.3111  0.2865
22347W        W39194   0.959   0.941   1.439  0.3209 -0.0462  0.0359
22348W        W39195  18.077  16.954   9.030  0.0047  0.0408  0.0960
22349W        W39196  11.124  19.643  10.697 -0.2635  0.1242 -0.4135
22350W        W39197   6.435   5.396   1.282 -0.0516 -0.0011  0.0588
22351W        W39198  14.114   3.775  11.470  0.2559 -0.1694  0.0101
22352W        W39199  17.003   0.693  10.322 -0.2374 -0.0097  0.1768
22353W        W39200   6.161   0.146   2.324  0.0247 -0.2856  0.2594
22354W        W39201  19.096  15.782  14.344  0.1158 -0.0228  0.1585
22355W        W39202  19.107  19.579  13.435  0.0051  0.0780 -0.0389
22356W        W39203  18.896  16.508   2.904  0.0657 -0.0552 -0.0733
22357W        W39204   0.407  17.961   0.993 -0.2021  0.0598 -0.3166
22358W        W39205   7.401  10.013  10.595  0.0957 -0.3609  0.1244
22359W        W39206  16.213  19.818   0.705 -0.3135  0.0191 -0.3325
22360W        W39207  11.761   5.570  11.412 -0.3016 -0.1337  0.1853
22361W        W39208   1.708  11.798   0.577  0.3606  0.0546 -0.0996
22362W        W39209  12.015  16.854  13.381 -0.1120 -0.3711 -0.1751
22363W        W39210  15.778  11.014   4.264  0.1132  0.3899  0.4465
22364W        W39211  11.514   0.104  14.251  0.0176 -0.1257  0.0094
22365W        W39212   6.476  15.206   0.427 -0.0186  0.0189  0.0376
22366W        W39213  15.253   0.045   4.697  0.1383  0.0694  0.2254
22367W        W39214   3.116   6.469   2.290  0.1835  0.4345  0.4598
22368W        W39215   4.138  11.668   2.302 -0.0999  0.4002 -0.0683
22369W        W39216  15.954  18.488   0.380  0.0701 -0.0222  0.1475
22370W        W39217   1.730   5.516   3.688  0.1648 -0.0216 -0.0227
22371W        W39218  17.668  13.577  10.957  0.0626 -0.0215  0.1440
22372W        W39219  17.661  18.016  11.759 -0.4165  0.1256 -0.0019
22373W        W39220  16.782   3.302  10.591  0.5967  0.5191 -0.0794
22374W        W39221   1.309  19.228   2.042 -0.1484  0.0305 -0.3685
22375W        W39222  10.870   4.593  11.499 -0.0812 -0.2747  0.1901
22376W        W39223  14.467  10.548  13.489 -0.0916  0.0287  0.0816
22377W        W39224  13.714  15.418   9.984 -0.0081 -0.0510 -0.0236
22378W        W39225   7.115  10.984   2.834  0.0895 -0.1254 -0.1117
22379W        W39226  18.248   2.143  10.292  0.1290  0.0561  0.1003
22380W        W39227   5.262   6.598   5.561 -0.0328 -0.1869  0.3410
22381W        W39228   9.624  11.428  13.643  0.1264  0.3857 -0.1714
22382W        W39229   1.161   4.078  12.577  0.1020 -0.2232 -0.1289
22383W        W39230  10.696  19.612   0.175  0.0983 -0.0984 -0.2438
22384W        W39231  13.714   2.241  10.744  0.2565 -0.0959  0.0783
22385W        W39232   1.131   1.511  12.680  0.0011  0.1152  0.3885
22386W        W39233   5.204  13.814  12.230  0.0514  0.0198  0.2188
22387W        W39234  19.190  17.557   9.385  0.0459 -0.0069  0.2059
22388W        W39235  18.298  10.925   0.646  0.2335  0.1814 -0.0026
22389W        W39236   1.700  17.560   2.371  0.0921  0.1920 -0.3511
22390W        W39237   9.994  14.162  12.791 -0.0332  0.0337 -0.1147
22391W        W39238  11.495   9.494  13.205  0.0655 -0.0289  0.1483
22392W        W39239   3.394  10.311   0.250 -0.0861  0.2251 -0.0354
22393W        W39240  18.159  12.314  13.836 -0.4251  0.0803 -0.3101
22394W        W39241   9.262  11.018  12.190  0.1965 -0.0212  0.2585
22395W        W39242   2.130  10.579  10.981 -0.3202 -0.0718  0.0661
22396W        W39243  14.421  12.732  11.316  0.0007 -0.2305 -0.2010
22397W        W39244  17.547   8.941  12.271  0.1171  0.0531  0.0826
22398W        W39245   5.825  18.876   2.381  0.1957  0.1593 -0.2662
22399W        W39246   4.209  17.355   1.070 -0.0980  0.4183 -0.0848
22400W        W39247   3.941   2.253  13.234  0.0222  0.0942  0.0651
22401W        W39248  16.393   2.289  10.633 -0.2556 -0.1662  0.0267
22402W        W39249   6.386  13.374   9.830 -0.0873  0.0098  0.4018
22403W        W39250   8.991   1.606   0.813  0.1642  0.0286  0.2739
22404W        W39251   8.637   0.686  13.512 -0.1355 -0.1046 -0.1575
22405W        W39252   6.839   0.862   1.715 -0.0122  0.3165  0.1602
22406W        W39253  19.262   3.327   3.684 -0.0668  0.0365  0.0465
22407W        W39254  11.758   6.559   9.927  0.2308  0.0036 -0.2596
22408W        W39255   4.480   1.943   3.631  0.0478  0.0913  0.0213
22409W        W39256  10.441   6.000  13.188 -0.2993  0.2277  0.0173
22410W        W39257  11.927  14.610  12.096 -0.1076 -0.3181  0.1901
22411W        W39258  14.449   5.102   1.402 -0.3167  0.0670 -0.1758
22412W        W39259  13.203   3.494  12.032 -0.0898  0.0879  0.2779
22413W        W39260  17.524   9.846   0.793 -0.3819 -0.0625 -0.0351
22414W        W39261  18.081   9.538   9.679  0.0134 -0.1146 -0.0173
22415W        W39262  13.483   9.188   0.345 -0.3028 -0.0332  0.0830
22416W        W39263  15.545  10.934  10.879  0.1277 -0.0077  0.1498
22417W        W39264  19.397   8.194   4.127  0.0341 -0.0003 -0.1633
22418W        W39265   5.071   1.250   4.816  0.0340 -0.1349 -0.0650
22419W        W39266   2.391  19.501   4.309 -0.3508 -0.2023 -0.2462
22420W        W39267  12.721   6.532  12.511  0.1913 -0.1287  0.0170
22421W        W39268   4.244   2.779   3.539  0.0828 -0.2809  0.3907
22422W        W39269  11.913  17.046   4.934  0.3127  0.2016 -0.1432
22423W        W39270  13.045   1.803   0.946  0.0136  0.2621 -0.0950
22424W        W39271  11.593   0.157   1.353 -0.0320 -0.0461  0.2508
22425W        W39272   4.661   2.996   3.930  0.2475  0.0419 -0.2261
22426W        W39273  18.823  17.933   0.351 -0.0317  0.0063 -0.1395
22427W        W39274  13.686  16.423  13.494  0.0276 -0.0106  0.0232
22428W        W39275  15.350   7.474   3.722 -0.1909  0.0299  0.0916
22429W        W39276  10.994   1.992   0.488  0.1477 -0.0152 -0.0872
22430W        W39277  19.197   6.106   1.643  0.1241  0.2654 -0.1849
22431W        W39278   5.500   6.510   8.884 -0.2379 -0.0702  0.0292
22432W        W39279   2.243   6.600  11.103 -0.1455 -0.1387  0.1236
22433W        W39280  18.533  19.312   3.902 -0.3583  0.2716 -0.1355
22434W        W39281  17.262  19.036  10.114 -0.3415  0.0046 -0.0686
22435W        W39282  17.521  14.865  13.854 -0.0954  0.2483 -0.0276
22436W        W39283  13.717   6.094  10.472  0.2146  0.1947  0.0092
22437W        W39284   8.085  13.250   4.977 -0.2769 -0.1745  0.2238
22438W        W39285  18.848   8.373  14.327  0.0724 -0.1375 -0.0141
22439W        W39286  15.975  10.710  10.957  0.1582 -0.1233 -0.2883
22440W        W39287   8.127   3.763   4.528 -0.0616  0.2720 -0.0491
22441W        W39288  11.279  17.384  13.721 -0.2160 -0.1608  0.0925
22442W        W39289   4.761   5.215  12.864  0.0183 -0.2381 -0.4988
22443W        W39290  15.648  19.119   1.634  0.0812 -0.2923 -0.0363
22444W        W39291   8.901   9.920  10.809  0.0926  0.0691 -0.2122
22445W        W39292   8.582   3.088  11.728  0.2921  0.0913 -0.2007
22446W        W39293  16.668   9.880   9.871  0.4292  0.0603  0.1485
22447W        W39294  16.673   8.119  13.521  0.4669  0.0841 -0.1220
22448W        W39295  13.879  19.579  12.151  0.1923  0.0473  0.0703
22449W        W39296  18.396   0.122   1.142  0.1634  0.1176 -0.0581
22450W        W39297   2.917   9.837   2.254  0.2117 -0.4584  0.1176
22451W        W39298   8.133   2.063   3.656 -0.1117 -0.0997  0.3285
22452W        W39299   0.232  19.214   2.859  0.1184 -0.1494 -0.0283
22453W        W39300  19.255  13.747  12.356 -0.1310  0.0225 -0.0468
22454W        W39301   4.413   9.943   4.597  0.0398 -0.0213  0.0113
22455W        W39302   9.949  11.610   2.564  0.0221  0.0514 -0.0257
22456W        W39303   7.225   2.845  11.671 -0.7499  0.1096 -0.0940
22457W        W39304  18.567   1.627  13.778 -0.0179  0.1445  0.1132
22458W        W39305   3.126   4.411   4.590 -0.7028 -0.0572  0.0754
22459W        W39306  18.651   8.348   3.520 -0.1040 -0.1225 -0.1157
22460W        W39307   7.046   5.447   9.793 -0.3727  0.1231 -0.0075
22461W        W39308  11.242   1.403  13.478 -0.0843  0.0935 -0.0157
22462W        W39309   9.334  11.452  11.327 -0.0595 -0.3631 -0.3381
22463W        W39310   5.754   5.111   2.071  0.0093 -0.0076  0.0205
22464W        W39311  15.166  11.063  13.070 -0.0976  0.1414  0.0210
22465W        W39312   3.766   2.196  14.178 -0.0572 -0.2695  0.1719
22466W        W39313   1.062  18.153  12.117  0.0743 -0.0535 -0.2922
22467W        W39314  13.839   5.058  10.850 -0.1512 -0.4006  0.4867
22468W        W39315   7.044  12.581   3.206  0.0467  0.0828  0.1448
22469W        W39316   3.632  11.134   3.370 -0.0694  0.1537 -0.0046
22470W        W39317  15.343   7.190  10.323  0.4281 -0.1364  0.0767
22471W        W39318   2.637   1.296  11.983  0.1055  0.1607  0.2513
22472W        W39319  19.690  14.084  12.254  0.0284 -0.0766 -0.0607
22473W        W39320   7.980  19.071  13.534  0.1786  0.3660 -0.4353
22474W        W39321   6.537  12.278  10.467  0.1414 -0.0136  0.0411
22475W        W39322  16.358   5.513   4.067  0.1442 -0.1484  0.1562
22476W        W39323  11.310   7.782  11.924  0.2063  0.1430 -0.3139
22477W        W39324  15.590  19.484  13.331  0.1029  0.0619 -0.0309
22478W        W39325   3.853  10.644  11.019  0.0962 -0.0413  0.2104
22479W        W39326   3.014   7.580  11.850  0.1811 -0.1841 -0.1625
22480W        W39327   5.747   4.341  14.309 -0.1369 -0.3022 -0.0404
22481W        W39328  19.829   1.960   0.442 -0.0282 -0.2775  0.1343
22482W        W39329  11.315   7.472   1.928 -0.0488 -0.1455  0.1093
22483W        W39330  19.673   1.659   4.217 -0.1552 -0.1211  0.0284
22484W        W39331   8.097  15.875   4.235 -0.3567 -0.1038  0.1843
22485W        W39332   1.740   7.445  11.031  0.0755  0.0135 -0.2525
22486W        W39333   9.188  10.000  12.224 -0.2518 -0.4707 -0.0977
22487W        W39334  11.102  15.691  13.019  0.3227 -0.1337 -0.0131
22488W        W39335   9.430   1.108   1.379  0.3076  0.0722  0.1157
22489W        W39336   6.853   6.739   3.172  0.0080 -0.0281 -0.3962
22490W        W39337   7.919   4.846  11.156  0.0457 -0.2225  0.2091
22491W        W39338   9.822  16.342  10.939  0.1332  0.0111  0.0864
22492W        W39339  10.990   5.930   3.974 -0.0603  0.0686 -0.2517
22493W        W39340   9.471   1.483  11.100 -0.0663 -0.2440 -0.0935
22494W        W39341  17.238   7.360   4.969  0.2481  0.2559 -0.0184
22495W        W39342   5.869  17.898   4.440 -0.1803 -0.1691 -0.2760
22496W        W39343   0.800   6.826   1.546 -0.2443  0.0745  0.0025
22497W        W39344  13.669   9.292  12.777 -0.0282  0.1141  0.1832
22498W        W39345   6.690   5.904   0.699  0.1491  0.0775 -0.1196
22499W        W39346   7.031   0.502  13.371  0.0884  0.0138 -0.0947
22500W        W39347   8.435  16.928   1.060 -0.2011  0.0181  0.2907
22501W        W39348  18.133  11.318   0.140 -0.1370  0.1730  0.1326
22502W        W39349  13.155  13.242  12.517  0.0309  0.3781  0.1486
22503W        W39350   7.970   9.467  11.220  0.2956 -0.1307  0.0598
22504W        W39351  15.071   1.671  11.963  0.2576  0.2913 -0.1348
22505W        W39352  11.049   1.745   9.295  0.0205 -0.3011  0.0180
22506W        W39353   0.213   4.577  13.703 -0.0689 -0.0471  0.5637
22507W        W39354  17.333  19.098   2.408 -0.0476 -0.0605 -0.2944
22508W        W39355   7.823   3.396  13.882 -0.0799 -0.1716  0.2538
22509W        W39356   9.590  16.950   3.937  0.1998  0.0957  0.0467
22510W        W39357  12.279   8.745   0.131  0.4124  0.0231  0.0052
22511W        W39358  13.501   0.373   4.019 -0.4244 -0.0567  0.1924
22512W        W39359   0.068   9.739   4.837 -0.1038 -0.1899 -0.1223
22513W        W39360   2.163  10.921  12.607  0.1719 -0.1590  0.0328
22514W        W39361  10.249  15.502  13.244  0.0323 -0.1423 -0.4302
22515W        W39362   9.895   6.513  13.391 -0.0474 -0.0045 -0.2666
22516W        W39363  12.075  11.288  13.653 -0.0369  0.0295  0.0967
22517W        W39364  14.701  19.495   3.967 -0.2632 -0.1969  0.1619
22518W        W39365  15.101   6.159  12.701 -0.0242  0.0032 -0.1264
22519W        W39366  18.174  19.164   1.203 -0.3454  0.1250 -0.1385
22520W        W39367   5.529  17.573  14.002  0.3843 -0.2349  0.1294
22521W        W39368   0.000   4.509  11.756 -0.0676  0.0851 -0.0737
22522W        W39369   9.194   5.068  12.404 -0.0122 -0.2219  0.2485
22523W        W39370  18.569   9.769  10.928  0.0645 -0.1972 -0.1204
22524W        W39371   0.804   6.089   0.576 -0.0153  0.0141  0.3656
22525W        W39372   9.585   4.526   0.727 -0.0671 -0.1131  0.1044
22526W        W39373   9.542  18.936   4.390  0.2213 -0.1813 -0.1163
22527W        W39374  12.904  19.068  13.717  0.1064  0.3519 -0.5043
22528W        W39375   9.442   6.286  12.796 -0.1864 -0.1068 -0.2993
22529W        W39376  18.872   9.372   0.211 -0.1331 -0.0734 -0.1415
22530W        W39377   1.942   9.951  13.931  0.1098 -0.5229  0.3644
22531W        W39378   2.290   8.045  10.357  0.1160 -0.1524 -0.1344
22532W        W39379  15.087  16.588  12.829 -0.2483 -0.0024  0.0952
22533W        W39380  15.105   2.497  10.618  0.0629  0.2274 -0.3348
22534W        W39381   5.822   8.682  12.463  0.0009  0.0173  0.1757
22535W        W39382  10.755  15.727   4.204 -0.0560  0.0834  0.1887
22536W        W39383  14.020   2.326   4.226 -0.1183  0.0479  0.0832
22537W        W39384  11.917   9.770   1.058  0.1813 -0.0729 -0.2041
22538W        W39385   7.310   9.513  12.764  0.1070  0.1106  0.2372
22539W        W39386   9.603  16.610   1.934  0.1247 -0.0961  0.0398
22540W        W39387  17.998  17.536  11.841  0.0857 -0.1676  0.0465
22541W        W39388  19.534   3.718   4.767 -0.1697  0.4393 -0.0097
22542W        W39389   0.920  16.958   4.961 -0.0699 -0.0670 -0.2165
22543W        W39390   4.364   2.280  10.765 -0.1253 -0.3167  0.5455
22544W        W39391  13.641   6.801  12.187 -0.0519  0.0385  0.0829
22545W        W39392   8.596  11.144  12.688  0.2460 -0.0420 -0.2325
22546W        W39393   5.760   9.936   1.474 -0.2547 -0.0443 -0.0377
22547W        W39394  16.039   8.096   0.969 -0.5169 -0.0070  0.2272
22548W        W39395  18.008  14.737  11.322  0.0179  0.2905 -0.0454
22549W        W39396   0.723   4.589  10.978  0.1595  0.0826  0.1206
22550W        W39397  10.156   9.731  10.049 -0.2487 -0.0181 -0.3682
22551W        W39398   3.722  18.590  13.167  0.0705  0.0397 -0.0203
22552W        W39399   1.551  10.638   0.776 -0.3699  0.3892 -0.1538
22553W        W39400  18.416   6.570   3.466  0.0775  0.1613 -0.0946
22554W        W39401  18.267   2.846   4.605  0.1087 -0.1237 -0.2268
22555W        W39402   6.890   9.271  12.866  0.1232 -0.0861  0.0046
22556W        W39403   3.384  17.157   2.875  0.0282 -0.3070 -0.2829
22557W        W39404   0.590  10.589   3.697  0.1126  0.2813  0.3459
22558W        W39405   8.129  11.115   2.651 -0.1027 -0.1554 -0.3806
22559W        W39406  11.401   0.272   5.060  0.2843 -0.1185 -0.1870
22560W        W39407   5.759  12.982  13.995 -0.2757 -0.3312 -0.1997
22561W        W39408  17.913   4.480   3.593 -0.1181  0.0210 -0.0058
22562W        W39409   9.147  12.623  13.755  0.0816  0.1525 -0.3109
22563W        W39410  16.520  16.862   0.744 -0.1817 -0.2648  0.1095
22564W        W39411   6.378   3.501   4.162 -0.2546 -0.0449  0.3874
22565W        W39412  12.696  13.160  13.396 -0.0434 -0.4032 -0.0195
22566W        W39413  10.150   6.018   2.042 -0.0312 -0.0466  0.5236
22567W        W39414   8.799  15.330  12.408  0.0473 -0.1474  0.1415
22568W        W39415   3.960  18.972  11.113  0.1017 -0.3398 -0.0698
22569W        W39416   3.290  17.733  14.235  0.0487 -0.0918  0.0239
22570W        W39417  14.683   7.532   2.057  0.1936 -0.4363  0.0552
22571W        W39418  17.028   3.310   1.452 -0.0902 -0.1779  0.1298
22572W        W39419  14.827   0.821  12.316 -0.0423 -0.0526 -0.0606
22573W        W39420  10.925   3.413  11.528 -0.1023  0.0373 -0.1713
22574W        W39421   1.135   4.193   1.326  0.0463 -0.1951 -0.0059
22575W        W39422  19.830  13.298  11.761  0.1973 -0.1089 -0.1506
22576W        W39423   0.920   8.745  13.838 -0.2311 -0.1346  0.2013
22577W        W39424  17.245   3.760   1.903  0.2466 -0.0804 -0.1686
22578W        W39425   3.147   6.213  14.068  0.0740  0.0102  0.3188
22579W        W39426   9.476  12.658  13.307 -0.2852 -0.0299  0.3279
22580W        W39427  11.438  19.808  13.221 -0.0711  0.1143 -0.2253
22581W        W39428  14.126  14.813  12.433  0.1036 -0.0021  0.0029
22582W        W39429  15.137   0.863   0.160  0.0926 -0.4590 -0.2113
22583W        W39430   7.785  15.257  11.632  0.2863  0.0163  0.2420
22584W        W39431   0.265  15.784  13.103 -0.0577 -0.0333 -0.1130
22585W        W39432   6.447   4.698   9.658  0.4180  0.0765 -0.3527
22586W        W39433  11.445  17.306   3.277 -0.4489  0.3963 -0.3853
22587W        W39434   3.753  10.055   0.914 -0.2549  0.0533 -0.1099
22588W        W39435   2.076  17.803   4.759  0.2381  0.0508 -0.3588
22589W        W39436  13.962  15.446   4.084 -0.0187 -0.0968 -0.0711
22590W        W39437  18.530  14.772   3.778 -0.2517 -0.3629 -0.1925
22591W        W39438   6.864  18.531   2.287 -0.1477  0.0631 -0.0452
22592W        W39439   5.170   4.381   4.858  0.1822  0.0473  0.2709
22593W        W39440  15.974   0.247  11.833  0.0633  0.2609  0.1105
22594W        W39441   0.108  12.225   1.367 -0.0820 -0.4840  0.2593
22595W        W39442  17.048   0.162   1.850  0.1876  0.0604 -0.0068
22596W        W39443   8.041   8.282   4.648  0.2747  0.2079 -0.3076
22597W        W39444   5.017  13.458  12.583 -0.0873  0.0444 -0.2896
22598W        W39445  10.401   3.629   3.710 -0.0132 -0.1019  0.1333
22599W        W39446  19.220   9.108  13.801 -0.3591 -0.3647 -0.0007
22600W        W39447  17.375  11.114  11.571 -0.2142 -0.2016  0.1735
22601W        W39448   0.406   8.401  13.110  0.0577  0.4762  0.0038
22602W        W39449   9.992   1.439   1.194 -0.3474 -0.1148  0.0652
22603W        W39450   0.464   4.234  11.831  0.1142 -0.1024 -0.2193
22604W        W39451   5.123  16.730   2.284 -0.2238 -0.1121  0.1640
22605W        W39452   3.460   8.882   1.298  0.0360  0.1310  0.1727
22606W        W39453   5.467  17.867   1.307  0.0189 -0.0183 -0.1197
22607W        W39454  10.815   3.940   0.032  0.0212 -0.2825 -0.0786
22608W        W39455   7.130   7.799   3.651  0.0290 -0.4372 -0.0643
22609W        W39456   7.189   7.274   9.855 -0.0137  0.0255  0.2246
22610W        W39457  12.588  13.753  10.562 -0.1351 -0.0150 -0.0082
22611W        W39458   0.912  16.676   3.978  0.2527 -0.0520  0.1398
22612W        W39459  11.817  10.620  10.975 -0.3401  0.0501 -0.1194
22613W        W39460   1.553   2.082  11.105  0.0269  0.0918  0.2541
22614W        W39461  13.561  19.453  10.872 -0.1144  0.0922 -0.2248
22615W        W39462   2.131  14.475  13.985  0.0106  0.0605  0.0896
22616W        W39463   3.529   2.600  12.135 -0.2036 -0.2103 -0.4107
22617W        W39464  17.749  18.193   3.945  0.0633  0.0593 -0.1261
22618W        W39465   9.050   5.275   0.439  0.4021 -0.1037 -0.1099
22619W        W39466  10.052  14.045  14.307 -0.2628 -0.0409  0.1146
22620W        W39467  14.729   7.781  11.614 -0.2769 -0.1189  0.0705
22621W        W39468  14.225   0.718   2.932 -0.2638  0.0856  0.1962
22622W        W39469   2.044   6.774  12.856 -0.2447 -0.0282 -0.0683
22623W        W39470   5.835   9.580   2.305 -0.1214 -0.1109 -0.4988
22624W        W39471   4.160   8.652  14.063 -0.0507  0.2128 -0.1767
22625W        W39472   5.097  15.795  12.413  0.1949 -0.0762 -0.2937
22626W        W39473  18.325  12.323  12.972  0.2327  0.3070 -0.0700
22627W        W39474   7.710   8.279   9.224  0.0260  0.2570 -0.4368
22628W        W39475   0.921  15.686  11.569 -0.4006  0.0339  0.0796
22629W        W39476  16.051   4.386  10.616 -0.1287 -0.2675 -0.1976
22630W        W39477   2.054  13.250   5.108  0.1965  0.0003  0.2136
22631W        W39478  10.298   0.536  11.581  0.1473  0.1293 -0.1650
22632W        W39479   1.155  19.103   1.105 -0.5449 -0.5244 -0.0175
22633W        W39480  15.747   5.518   1.203  0.1094 -0.1278 -0.0285
22634W        W39481  19.225   0.677   4.223 -0.1014 -0.0846  0.1642
22635W        W39482   3.157   6.491   1.032 -0.1816 -0.0118 -0.0855
22636W        W39483   8.778   9.295   1.480 -0.0388  0.2106 -0.0492
22637W        W39484  12.536  18.636   4.049  0.0891  0.2955  0.0000
22638W        W39485  10.819  17.797  10.860 -0.2152 -0.0134 -0.3492
22639W        W39486  17.762  15.144   3.870  0.4322 -0.2309 -0.1465
22640W        W39487  11.289   3.139  10.050 -0.1124  0.1480 -0.2863
22641W        W39488  14.208  17.986  10.736  0.1209  0.6301 -0.0382
22642W        W39489   8.896   2.007   4.484  0.0672 -0.0344  0.2978
22643W        W39490   5.198   7.129   2.558  0.2484  0.1551  0.1714
22644W        W39491  13.637   5.623  10.311  0.2070  0.4616 -0.1114
22645W        W39492  11.223  12.849   2.400  0.0474  0.0955  0.3573
22646W        W39493  18.869  13.025   3.070  0.0678  0.0869 -0.1246
22647W        W39494  11.330   6.646  10.618 -0.4329 -0.1949  0.2236
22648W        W39495  10.264   1.181   2.133  0.1568 -0.0482 -0.7337
22649W        W39496   4.000  19.278   0.803  0.2080  0.1279 -0.0359
22650W        W39497  15.491   1.246   0.129 -0.1428  0.1138  0.1532
22651W        W39498   6.527  18.902   4.530 -0.2246  0.1054 -0.1305
22652W        W39499  10.286   0.774   4.739  0.0456 -0.3164 -0.1174
22653W        W39500  19.734   7.607  13.595 -0.5186  0.4204 -0.1283
22654W        W39501   2.842   7.817  13.817 -0.1153  0.0942 -0.0562
22655W        W39502  10.418  14.280  14.073  0.2131 -0.2108  0.5738
22656W        W39503  10.537   9.941  11.210 -0.0312  0.0034  0.3169
22657W        W39504  13.317  10.949   3.453  0.1459 -0.0306 -0.2511
22658W        W39505   1.954  13.338   2.045 -0.2696  0.4272 -0.2117
22659W        W39506  16.822   5.076  11.981  0.1638  0.3013  0.0265
22660W        W39507   8.760   3.703  12.923  0.2916  0.1503  0.0022
22661W        W39508   7.888   7.846   4.318 -0.0732  0.1624 -0.4664
22662W        W39509   6.025   0.973  13.617 -0.3918  0.0246  0.0560
22663W        W39510  16.649   6.586  10.459  0.1612  0.0763 -0.0899
22664W        W39511  10.409   3.569  12.432  0.1112 -0.0538 -0.0379
22665W        W39512   6.191  17.446   9.932 -0.0076 -0.2178  0.0614
22666W        W39513   5.825  14.345  13.971  0.3873 -0.0971  0.1472
22667W        W39514  19.494  11.898  12.760  0.1471  0.0370 -0.2650
22668W        W39515   6.900   1.528  13.928 -0.3176  0.0232  0.1594
22669W        W39516   6.679  16.461   1.320  0.0727  0.0526 -0.0521
22670W        W39517  15.935  17.003   1.333  0.0412  0.1069 -0.0948
22671W        W39518  15.483  16.797  11.515  0.0432  0.2334 -0.0327
22672W        W39519  18.893   4.597   3.015 -0.4188 -0.0337 -0.0823
22673W        W39520  18.157  16.302  11.852 -0.1193 -0.0942 -0.1147
22674W        W39521   1.842   9.763   4.788  0.1758  0.1319  0.0709
22675W        W39522  19.307  10.476   2.779  0.2552  0.2266  0.1047
22676W        W39523   6.603  11.040   3.053 -0.4120 -0.0395 -0.1505
22677W        W39524   6.521  10.079  10.602  0.0696 -0.2730 -0.1263
22678W        W39525  11.704   6.196   0.193  0.0092 -0.0061  0.3346
22679W        W39526  16.402  13.797   2.990 -0.0412 -0.2165  0.0466
22680W        W39527  18.572  15.510  12.261 -0.1354 -0.0641  0.2407
22681W        W39528  14.443   8.893  12.500 -0.1982 -0.3066 -0.3806
22682W        W39529   5.305   9.796   4.667 -0.0689  0.0146  0.0142
22683W        W39530  11.566  13.052  10.656 -0.5174 -0.1945  0.2924
22684W        W39531  10.547   6.487  11.849 -0.0470  0.0082  0.2592
22685W        W39532   6.225  12.755  13.850 -0.5108  0.2052 -0.0746
22686W        W39533  11.690   7.517  14.272  0.2034  0.1978  0.1256
22687W        W39534   0.603  13.593   0.261 -0.0032 -0.0425  0.2636
22688W        W39535  15.273   6.707  12.910 -0.2602 -0.0463  0.2121
22689W        W39536  13.540  17.307   4.048  0.3455 -0.3340  0.4087
22690W        W39537   8.471   8.145   0.961  0.1931 -0.1532 -0.4194
22691W        W39538   4.238  15.683   9.463  0.0545  0.1191  0.3264
22692W        W39539   5.908   2.065  10.581  0.0106 -0.4050 -0.0193
22693W        W39540  16.271   3.856   2.968  0.3591  0.0642 -0.3166
22694W        W39541   1.761  10.747  12.815 -0.1394 -0.2689  0.3473
22695W        W39542  14.824  17.253   0.614  0.0136 -0.0380  0.0562
22696W        W39543   6.312  18.124  11.692 -0.1517  0.1940 -0.1754
22697W        W39544  15.694   8.857   4.344 -0.3835 -0.1728 -0.1571
22698W        W39545   3.838  11.383  12.999  0.1261 -0.0598  0.0928
22699W        W39546  12.210   3.484   0.297 -0.1467 -0.0609  0.1005
22700W        W39547   9.555   3.812  11.599 -0.0156 -0.3178 -0.0914
22701W        W39548   2.240   1.457  10.811 -0.2647  0.2181 -0.3845
22702W        W39549   8.005   9.620   1.209 -0.2258 -0.0008  0.0342
22703W        W39550  13.962  18.027   1.715 -0.2885 -0.0011  0.1844
22704W        W39551   9.034   5.230   3.791 -0.0276 -0.0663 -0.0779
22705W        W39552   7.222  16.728  12.464 -0.4159 -0.0023 -0.1134
22706W        W39553   0.317   2.366  14.052  0.1621  0.0143  0.0472
22707W        W39554  18.646  18.672   2.502 -0.0348  0.1309 -0.0423
22708W        W39555   1.162   1.829  10.788 -0.2183 -0.2043  0.0932
22709W        W39556   3.164   1.876  12.634 -0.0079  0.1594 -0.2708
22710W        W39557   8.087  15.348   3.457 -0.1917 -0.1708  0.0051
22711W        W39558  12.708   9.570  10.789 -0.0633 -0.1780 -0.0025
22712W        W39559  17.246  13.534  11.189 -0.1714  0.0046  0.1396
22713W        W39560  11.333   5.115  12.772  0.4139 -0.2573 -0.0053
22714W        W39561  11.007  13.284  13.505  0.1221 -0.2545  0.0290
22715W        W39562   6.866   9.226   2.202  0.0650 -0.2610  0.0818
22716W        W39563  13.524   9.095  14.123 -0.0552  0.3206  0.1724
22717W        W39564  17.501   4.017   1.534  0.1140  0.2786  0.0029
22718W        W39565  18.328  17.238  13.778 -0.2117  0.0464 -0.0692
22719W        W39566  10.183   7.248  10.827  0.2056 -0.0755 -0.0394
22720W        W39567  11.003   0.271  14.294 -0.1867  0.2375 -0.2860
22721W        W39568  10.096   7.999   9.112 -0.0244 -0.2323  0.1937
22722W        W39569  10.498  16.789  10.053 -0.2865 -0.0290 -0.0191
22723W        W39570   6.918   3.620   1.107  0.3180 -0.1211 -0.1567
22724W        W39571  18.011   5.687   1.193 -0.0171  0.2682  0.1314
22725W        W39572  16.100   6.049   5.280  0.2624 -0.1586  0.0296
22726W        W39573   1.296   1.649  11.237  0.1166  0.1517 -0.1515
22727W        W39574  17.912  12.919  11.799 -0.1360 -0.0079 -0.1063
22728W        W39575  11.915  17.071  10.824 -0.0548  0.0548 -0.2363
22729W        W39576  18.814  14.900   2.447  0.0172  0.0701  0.0577
22730W        W39577  18.131   9.418  11.400 -0.0692 -0.0342 -0.0031
22731W        W39578   6.357  12.068   1.266  0.3356 -0.0418  0.2633
22732W        W39579   1.560   7.468  11.528 -0.2211  0.0576 -0.2631
22733W        W39580   3.127   9.121   2.817 -0.0202  0.0069 -0.1893
22734W        W39581   3.350  10.747   3.386 -0.0448  0.0336  0.2594
22735W        W39582  17.805   0.947  12.894  0.0546 -0.0409 -0.1750
22736W        W39583  19.707   1.028  10.459 -0.2467 -0.0929 -0.0535
22737W        W39584  11.536   8.482  12.997 -0.0599  0.1563  0.1683
22738W        W39585  17.913  16.885   3.705 -0.1896  0.2642 -0.0996
22739W        W39586  16.271   3.636  10.851  0.0737  0.2499 -0.1996
22740W        W39587   3.046   1.701   4.433  0.2182  0.2324 -0.3060
22741W        W39588  14.564   0.492  14.076  0.2747 -0.0691 -0.0623
22742W        W39589  17.108  15.866  14.334 -0.2235 -0.1479 -0.0545
22743W        W39590  15.107   3.078  10.043 -0.0644 -0.1632  0.2524
22744W        W39591   3.292  17.187  11.218  0.1848  0.2983  0.1152
22745W        W39592   9.622  10.307   2.225  0.1206 -0.0724  0.1338
22746W        W39593   2.087  15.357   0.164  0.0732  0.0400  0.1567
22747W        W39594  17.585   4.972  14.285 -0.0516 -0.0008 -0.3211
22748W        W39595   0.882   0.521  10.220 -0.1328 -0.2876 -0.2859
22749W        W39596   2.991   7.417  13.418 -0.0729  0.1775 -0.0226
22750W        W39597  13.496  16.641   4.598 -0.2758  0.2559 -0.0281
22751W        W39598   0.921   2.030   3.412  0.2144 -0.2556 -0.1289
22752W        W39599   6.561   7.402  12.227  0.0562 -0.3123  0.0631
22753W        W39600   9.012   1.608  10.978 -0.0217 -0.1319 -0.0020
22754W        W39601  17.467  18.051   0.937 -0.0107  0.1296  0.3409
22755W        W39602  17.120  18.299   3.466  0.0905  0.1073  0.3717
22756W        W39603   9.760   9.763   2.932 -0.0987 -0.0194  0.5370
22757W        W39604  13.706   4.112  13.831  0.0193  0.1125  0.1295
22758W        W39605  12.333   2.202  13.518  0.1013  0.0552 -0.0318
22759W        W39606  17.593   8.110  14.355  0.4247 -0.2304 -0.0175
22760W        W39607  15.655  12.396   0.901 -0.1221 -0.0797  0.0032
22761W        W39608   3.507   9.206   1.882  0.1374  0.3299 -0.0621
22762W        W39609   8.908   6.236  10.044 -0.2896 -0.1055 -0.0749
22763W        W39610  17.739  13.079  11.064 -0.0341 -0.3214  0.1534
22764W        W39611  13.403  15.251   0.590  0.1377  0.1965  0.0956
22765W        W39612   3.006  17.407  12.963 -0.1501  0.1627 -0.1960
22766W        W39613  15.653  11.438   2.429  0.0424  0.1086  0.1782
22767W        W39614   7.815   1.077  13.274  0.5575 -0.0111 -0.1193
22768W        W39615   5.370  13.300  14.037 -0.0967  0.0498  0.0406
22769W        W39616  11.419  12.681   1.041 -0.2295 -0.2293  0.0445
22770W        W39617   8.418   0.394   1.537 -0.1195 -0.0928  0.1183
22771W        W39618   7.160   7.713   3.150 -0.0838  0.2760  0.2063
22772W        W39619  15.864   5.108  12.011 -0.1827  0.0644 -0.2066
22773W        W39620  17.084  13.090   0.332 -0.1990 -0.0527 -0.3117
22774W        W39621   3.360  18.087   5.272 -0.0391  0.2387  0.1399
22775W        W39622   8.199   7.361  10.378 -0.0330 -0.0585 -0.0351
22776W        W39623  19.553   1.653  12.325 -0.1882  0.1101 -0.0624
22777W        W39624  18.498  15.843   2.378  0.0455 -0.1961  0.0155
22778W        W39625   9.698   9.124  11.615  0.3411  0.1179 -0.2261
22779W        W39626  18.057  16.415  13.252  0.3104  0.1380  0.0490
22780W        W39627   3.726   5.930  12.651  0.0679  0.0467  0.1431
22781W        W39628   6.445   5.356  10.652 -0.3124 -0.0520 -0.1178
22782W        W39629  12.198   4.062   9.875 -0.1595  0.2392 -0.0151
22783W        W39630   2.533  18.110  12.699 -0.0599 -0.0875  0.0179
22784W        W39631   5.153  19.046   4.852  0.1671  0.1260  0.2027
22785W        W39632   0.156   1.833   3.292 -0.0424  0.0965 -0.1020
22786W        W39633   7.455   8.044  13.396 -0.0010 -0.2013 -0.2955
22787W        W39634   0.139  17.572   1.164  0.1295 -0.2855 -0.4092
22788W        W39635  13.883  11.637  11.632 -0.2239 -0.1252 -0.3472
22789W        W39636  15.943  10.346  11.313 -0.2289 -0.0607 -0.0720
22790W        W39637  14.150  10.386  12.205 -0.0169  0.1171 -0.1160
22791W        W39638  19.359  19.168   1.903  0.1148  0.3726  0.0578
22792W        W39639  14.105   0.520   9.410 -0.1609  0.2147  0.4012
22793W        W39640   9.826   4.160   0.149 -0.1343  0.2104 -0.1895
22794W        W39641  12.866  14.057   4.825  0.0068  0.2672  0.2959
22795W        W39642  14.355  17.062   0.659 -0.1036 -0.1177 -0.1922
22796W        W39643   9.378   9.701   5.353 -0.3583  0.0187 -0.3249
22797W        W39644   2.443   0.211  11.287  0.1031 -0.3208 -0.0100
22798W        W39645  11.284   7.505  12.372  0.0775 -0.2718  0.0554
22799W        W39646   9.321  13.631   0.843  0.0964 -0.0199  0.4744
22800W        W39647   7.033   6.565  12.596 -0.1666  0.1157  0.1140
22801W        W39648  16.971   5.861  11.517 -0.0668  0.0429 -0.1360
22802W        W39649  12.559  18.521   0.612  0.1985  0.1157  0.2560
22803W        W39650   7.289   8.733  13.519  0.1699 -0.0591 -0.0518
22804W        W39651   0.082  19.510  13.491  0.2969  0.1781  0.0616
22805W        W39652  16.148   2.637  12.078  0.1049  0.0784 -0.2884
22806W        W39653   8.428   4.355   0.827 -0.2994 -0.1297  0.1175
22807W        W39654  17.728  15.927  11.241  0.1402  0.2962 -0.2130
22808W        W39655   7.568   5.059   9.702 -0.2518 -0.0380 -0.1037
22809W        W39656   0.893   4.991  13.201 -0.3744  0.0527  0.0902
22810W        W39657  19.759   8.726  12.064 -0.3185  0.2851  0.0182
22811W        W39658   7.004  13.445   1.403 -0.2688  0.1590  0.2070
22812W        W39659   0.727   3.313  12.841  0.3242 -0.0644 -0.1698
22813W        W39660  10.894  13.268   1.659 -0.1172 -0.1084 -0.1431
22814W        W39661  12.648   6.468   4.336 -0.0408  0.1072 -0.1840
22815W        W39662   8.466   1.209   0.962 -0.0877  0.0485 -0.0525
22816W        W39663   4.267   7.218   1.174 -0.5932 -0.0433 -0.0431
22817W        W39664  12.856   6.146  11.334  0.3482 -0.1225  0.0575
22818W        W39665  13.573   4.191   9.663 -0.0631 -0.1712 -0.2633
22819W        W39666   2.441   2.364  11.194 -0.2723 -0.0348 -0.2990
22820W        W39667  16.071  14.130  13.889 -0.0275  0.0496  0.1806
22821W        W39668  12.466  12.250   4.716  0.0914  0.2966  0.1261
22822W        W39669  19.684   5.430   9.711 -0.1436 -0.0839 -0.0951
22823W        W39670   5.723  18.782  12.251 -0.0061 -0.1224  0.1089
22824W        W39671  13.545  17.390  14.326  0.1133  0.1351 -0.0850
22825W        W39672   3.963   9.209  11.612 -0.2155 -0.1340  0.0504
22826W        W39673  12.211  13.567   3.191  0.0022 -0.1005  0.1217
22827W        W39674  10.955   6.465   3.495 -0.2866 -0.0658  0.0199
22828W        W39675   2.354   9.042   3.846 -0.2981  0.0707 -0.1573
22829W        W39676  16.852   4.078  10.258  0.2065  0.0802  0.0847
22830W        W39677   3.658   1.173   3.549  0.0482 -0.1437 -0.1247
22831W        W39678   5.604  19.386  10.439 -0.4000  0.0078  0.1233
22832W        W39679  12.948  11.005   3.863  0.1008  0.0532  0.0818
22833W        W39680   5.683   3.797   2.135 -0.1131  0.0962 -0.1900
22834W        W39681   9.976   9.378  14.070  0.0931 -0.2370 -0.1875
22835W        W39682  17.597   0.731   1.383  0.0527 -0.1589  0.1525
22836W        W39683   9.792   9.349   4.179  0.0891 -0.0671  0.1584
22837W        W39684  16.747  16.526   0.403  0.0367 -0.0409  0.3404
22838W        W39685  14.211  12.973   1.965 -0.0633 -0.4071 -0.1504
22839W        W39686   2.703   9.401   3.665  0.2902 -0.0778  0.2434
22840W        W39687  11.116   0.969   1.399  0.1254  0.3723 -0.4395
22841W        W39688  10.521  17.649  13.732 -0.4203 -0.1102 -0.1921
22842W        W39689  10.238   0.961  12.511 -0.1381  0.0030 -0.4596
22843W        W39690  13.548  17.294   2.260  0.1843  0.1260 -0.3379
22844W        W39691   0.655  17.975  13.030  0.1374  0.1933 -0.1411
22845W        W39692   0.412   7.430  12.080  0.1193  0.4187 -0.0153
22846W        W39693  14.571  16.076   4.385  0.2036  0.1473  0.1143
22847W        W39694  13.417  11.747   4.862 -0.1443  0.2227  0.2303
22848W        W39695   6.469   5.096  13.632 -0.0316  0.1974  0.1000
22849W        W39696   7.821  13.521   3.445  0.2239 -0.3193 -0.1022
22850W        W39697   5.853   3.444   5.182 -0.1655  0.0717 -0.0074
22851W        W39698   1.699  14.392  12.636  0.1589  0.2357 -0.2097
22852W        W39699  19.764  18.859  10.583 -0.0429 -0.0047  0.1315
22853W        W39700  17.525  14.805  10.646 -0.0440  0.2400  0.0406
22854W        W39701  11.423  13.008  13.633 -0.1070 -0.1284  0.0348
22855W        W39702   6.886  18.295   1.816  0.1795  0.1029  0.0981
22856W        W39703   1.218   0.716  11.504  0.2353  0.1024  0.1528
22857W        W39704   3.733  16.646  12.126 -0.1676 -0.2161 -0.0676
22858W        W39705   3.329   2.141   5.129  0.1960  0.0784 -0.1569
22859W        W39706   0.599  18.441   1.446 -0.0195 -0.0243  0.0065
22860W        W39707  12.166  18.338  12.354 -0.3560  0.2590  0.2644
22861W        W39708  17.563  12.050   0.336 -0.2533  0.3295 -0.0192
22862W        W39709   9.411  15.589   3.031 -0.1491 -0.0588 -0.0319
22863W        W39710   0.307  14.727  11.541  0.2147  0.2519  0.2262
22864W        W39711   7.529   8.548  10.758 -0.2139 -0.0820 -0.0472
22865W        W39712   9.659   9.886  11.298  0.0051 -0.0400  0.2396
22866W        W39713   9.173   1.675   4.221 -0.0113  0.1279 -0.0138
22867W        W39714   3.998  11.034   4.277  0.1233  0.0779  0.1252
22868W        W39715  19.143   4.573   4.257  0.0797  0.1458 -0.0281
22869W        W39716   3.301   7.509  13.789  0.0180 -0.4462  0.1030
22870W        W39717   3.459   4.920   1.625 -0.3255  0.0720 -0.2676
22871W        W39718   1.348   5.472  12.427  0.1201 -0.5678  0.2655
22872W        W39719  14.450   7.997  12.619  0.0704  0.0896  0.0491
22873W        W39720  10.180  10.536   3.697  0.1639 -0.2988 -0.2468
22874W        W39721  10.281   3.366   9.734 -0.0877 -0.2056  0.0958
22875W        W39722   4.745   0.900   2.603  0.3988 -0.1909 -0.1177
22876W        W39723  19.542   9.962   0.669  0.1059 -0.0295 -0.1119
22877W        W39724  16.031   4.588   3.768 -0.0176  0.0200  0.5578
22878W        W39725  12.423  10.705   4.102 -0.1032  0.0955  0.3887
22879W        W39726   2.859   7.456   5.323  0.2340  0.1132  0.1258
22880W        W39727  18.546   2.946  10.137 -0.3532  0.0939 -0.3481
22881W        W39728   5.449   2.719  12.966  0.1824  0.0350 -0.0258
22882W        W39729   1.892   3.726   0.382 -0.0051  0.3191  0.1040
22883W        W39730  14.351  16.029  11.135  0.0396  0.5534  0.1447
22884W        W39731  19.654   1.968  10.232  0.0118 -0.4206 -0.1025
22885W        W39732  12.857  12.633   0.295 -0.0025  0.0236  0.0026
22886W        W39733   6.576  14.397   0.820 -0.1837  0.1925 -0.0729
22887W        W39734  15.934   0.904   0.155  0.1844  0.2708 -0.0943
22888W        W39735   5.471  18.523  12.596 -0.1512  0.0365  0.1263
22889W        W39736  10.099   0.368   4.383  0.1923  0.1832 -0.1948
22890W        W39737   9.666   7.288  14.097  0.1900  0.0852 -0.0412
22891W        W39738   3.468  14.031   3.715 -0.0557 -0.5532  0.1495
22892W        W39739  12.315   6.406  11.642 -0.2981  0.1001  0.0451
22893W        W39740   1.990  18.442   4.636 -0.1532 -0.2478  0.0270
22894W        W39741   6.407   7.964   2.320  0.1750 -0.0031  0.0552
22895W        W39742   2.533   8.033   4.542 -0.2205 -0.0114 -0.1650
22896W        W39743  15.845   0.413  10.847  0.2265 -0.0367  0.1169
22897W        W39744  10.074   6.925  12.419 -0.2291  0.0146 -0.2122
22898W        W39745   8.441   9.996  14.048 -0.0790  0.1678  0.1637
22899W        W39746   3.100   4.256  12.741 -0.1281 -0.0680 -0.3855
22900W        W39747  11.045   5.157  13.266  0.0115  0.3773  0.1365
22901W        W39748  12.861   6.096  12.299  0.4063  0.1417  0.0146
22902W        W39749   9.319   1.868  13.045 -0.0239 -0.0763 -0.2867
22903W        W39750   0.248  10.040   4.452 -0.3595 -0.1353 -0.1890
22904W        W39751  17.923   3.752   2.924 -0.1747 -0.4950 -0.2345
22905W        W39752  13.813  14.959  14.108  0.1322  0.1486 -0.1355
22906W        W39753  15.451  15.874  13.541  0.0084  0.0779 -0.1751
22907W        W39754  15.055   2.032   0.325 -0.0186  0.2185 -0.1316
22908W        W39755   7.377  12.348   4.686  0.3824 -0.1126 -0.1512
22909W        W39756   8.236  14.983   3.707  0.0439 -0.1552 -0.3362
22910W        W39757  10.532   3.216  12.897 -0.0083  0.1067  0.2706
22911W        W39758  15.534   5.819   2.279  0.1275  0.0284 -0.0430
22912W        W39759  19.550   8.317  13.560 -0.0067  0.3099  0.1123
22913W        W39760   1.092   3.082   2.102 -0.3669 -0.3713 -0.2265
22914W        W39761  19.522   0.585   9.952  0.1228 -0.1427  0.2158
22915W        W39762  18.668   7.647  13.596  0.0784  0.0479 -0.1124
22916W        W39763  19.608  18.982   0.925 -0.0625  0.1058  0.1648
22917W        W39764  13.425   9.503  11.160  0.2751  0.1157 -0.1860
22918W        W39765   3.663   5.050  10.565 -0.2562  0.3078 -0.0690
22919W        W39766   1.486  16.600   0.065  0.0688 -0.1492  0.3041
22920W        W39767   9.733   7.454  13.446 -0.1334  0.0266 -0.2174
22921W        W39768   5.861   4.809  11.419 -0.0356 -0.1014 -0.2361
22922W        W39769   8.216  18.132   9.572 -0.2183 -0.4657 -0.0970
22923W        W39770  15.957  19.460   1.803  0.1260  0.0928  0.0865
22924W        W39771  13.841  16.433   0.004  0.0434 -0.1304  0.2909
22925W        W39772   9.173   0.496  14.345 -0.3354 -0.0253  0.0839
22926W        W39773   8.193  17.885  12.808 -0.2409 -0.4200 -0.1828
22927W        W39774  15.309  15.627   1.336 -0.1402 -0.1420 -0.0141
22928W        W39775  16.926  13.908   4.490  0.0833 -0.0395  0.3291
22929W        W39776  14.443   7.000  13.786 -0.0275  0.2650 -0.0042
22930W        W39777  11.688   2.597  12.207 -0.3651  0.4582 -0.2476
22931W        W39778   7.822  12.374  12.383  0.0738  0.0270 -0.0375
22932W        W39779  17.485   6.998  14.328  0.5078  0.1424 -0.1837
22933W        W39780  12.681   1.477  12.716  0.3068 -0.0074 -0.1930
22934W        W39781   8.087   0.694   2.128 -0.0647 -0.0374 -0.0747
22935W        W39782   9.248   5.523  12.083  0.0278 -0.0919 -0.1181
22936W        W39783   3.073  18.930   9.824 -0.0003  0.4861  0.2961
22937W        W39784   2.498  11.128  10.351 -0.0511  0.1582  0.1386
22938W        W39785   8.288   6.321   3.894  0.4285  0.1726 -0.1739
22939W        W39786   0.747   4.698   0.715 -0.2605  0.2895  0.1565
22940W        W39787  11.393  14.645   5.250  0.2714  0.4198  0.0810
22941W        W39788   5.022  10.097  12.470  0.3380  0.3577 -0.1665
22942W        W39789  14.059  17.208  12.416 -0.0453 -0.1427  0.0478
22943W        W39790  14.543   3.690   0.961 -0.2540 -0.1065 -0.0495
22944W        W39791  13.647  12.788   1.329  0.0539  0.0522  0.1050
22945W        W39792  16.039   2.394   1.185 -0.2642  0.1520 -0.0266
22946W        W39793   2.034  17.329   9.818 -0.1154 -0.3213 -0.1123
22947W        W39794   4.190   8.106   4.712  0.0053 -0.0989 -0.1315
22948W        W39795  13.776   7.211   4.311 -0.0962  0.1390 -0.1143
22949W        W39796   8.653  19.480  13.058 -0.0128  0.3750  0.1555
22950W        W39797  10.174   5.240   0.348 -0.3114 -0.2320  0.1939
22951W        W39798   1.876  16.128   1.119  0.1077  0.0225 -0.0328
22952W        W39799   8.948   7.644   9.615  0.3871 -0.0736 -0.1634
22953W        W39800   5.585   4.767   5.180 -0.1639  0.1358 -0.3753
22954W        W39801  19.269  14.390  11.088 -0.0673  0.0140  0.0363
22955W        W39802  10.921  15.210   9.004 -0.3696  0.2217 -0.2995
22956W        W39803   7.340  11.516  10.293 -0.0473 -0.0654  0.0302
22957W        W39804   3.828  12.023  11.665  0.1043 -0.2367 -0.0916
22958W        W39805   2.711  10.946  14.065  0.1173 -0.0132  0.0303
22959W        W39806  16.431  15.303   0.410 -0.1708 -0.2353  0.0919
22960W        W39807   7.980  12.788   5.104 -0.0790  0.1538  0.1809
22961W        W39808  14.587   1.738   0.243 -0.2455  0.0766 -0.2247
22962W        W39809  17.843   3.622  12.022 -0.1827  0.0746 -0.2090
22963W        W39810  13.687   8.460   4.726  0.1541  0.1712  0.0708
22964W        W39811  19.762  13.908   3.809  0.2759 -0.0447  0.3083
22965W        W39812   4.366   4.231   4.862 -0.1359 -0.0510 -0.0870
22966W        W39813   1.177  16.148  12.307 -0.1131  0.2240 -0.1716
22967W        W39814  10.877   5.422  11.693  0.0122 -0.1239  0.3420
22968W        W39815   6.120   5.453  12.457  0.0710 -0.1672 -0.1457
22969W        W39816  10.614  13.748   1.704  0.3556  0.0712  0.1539
22970W        W39817  12.861  10.814   3.302  0.0573  0.1371  0.2739
22971W        W39818   5.912  12.479   4.785 -0.0126  0.0500 -0.1703
22972W        W39819   0.014   2.483   5.510  0.0725 -0.0048 -0.4606
22973W        W39820  13.440   2.699  10.571  0.0343  0.2660 -0.4446
22974W        W39821   0.125   1.095  13.333  0.1670  0.0359  0.0827
22975W        W39822  16.054   9.760  12.711 -0.1404  0.2537 -0.1320
22976W        W39823   2.661  13.104   0.757  0.0163 -0.2725 -0.1315
22977W        W39824  12.182   0.223   1.762 -0.1398  0.1170 -0.0439
22978W        W39825   7.667   4.080   0.562  0.5336  0.0202  0.1614
22979W        W39826  16.634   4.476   1.218  0.1721  0.0082 -0.3277
22980W        W39827  17.605   6.785   2.225  0.0058 -0.2032 -0.0469
22981W        W39828   8.840   3.672   2.345 -0.1315  0.2305  0.0718
22982W        W39829  11.820   9.160  10.849 -0.1925  0.0784  0.4720
22983W        W39830   4.255  16.340   4.275  0.0965 -0.1542  0.3512
22984W        W39831   8.665  14.720  11.686  0.2054  0.0798 -0.3394
22985W        W39832   4.454  15.324   3.021 -0.1347 -0.0776 -0.0520
22986W        W39833  19.272   2.268   4.215  0.1034 -0.1999  0.1123
22987W        W39834  17.796   8.186   3.023 -0.2953 -0.1638 -0.0978
22988W        W39835   0.308   2.012   2.054  0.4585 -0.0148  0.3079
22989W        W39836  17.245  17.611  11.641 -0.1348  0.2111 -0.1237
22990W        W39837  18.449  13.074   0.250  0.0221 -0.1155 -0.3363
22991W        W39838  10.949   4.135   4.049 -0.3035 -0.0356  0.0902
22992W        W39839  14.378   4.108  10.784 -0.0613 -0.2707  0.0389
22993W        W39840  17.502   0.161   0.361  0.1488 -0.2490 -0.1634
22994W        W39841   8.590  13.949  10.308 -0.0316 -0.0132 -0.3250
22995W        W39842   6.096   1.723   2.506 -0.3776  0.1196  0.2407
22996W        W39843  14.438   2.017   3.038  0.0595  0.0610 -0.1582
22997W        W39844   0.696  15.149  10.384  0.0254 -0.3032  0.2315
22998W        W39845   6.534  17.521   2.897 -0.0466 -0.1025  0.0623
22999W        W39846  10.910   1.907   2.786 -0.0282 -0.2936 -0.2614
23000W        W39847   8.427   8.410  10.544  0.0199 -0.1736  0.1753
23001W        W39848   9.108   5.526   2.127 -0.1431 -0.1741 -0.0572
23002W        W39849   6.045   2.372  13.057  0.1088 -0.0602 -0.2144
23003W        W39850  11.474   5.359   1.565  0.1110  0.1542  0.1816
23004W        W39851   3.726  14.707   0.476  0.1444  0.5640  0.0681
23005W        W39852  10.154  10.376   0.985  0.0440 -0.0019  0.0865
23006W        W39853  11.015   1.539   2.475 -0.2150 -0.2020  0.1849
23007W        W39854  15.141   6.721  11.929  0.0807 -0.2697  0.1774
23008W        W39855   8.815   6.517  10.811  0.1600  0.1404 -0.1986
23009W        W39856   4.322  13.547  13.758 -0.0846 -0.0172 -0.0231
23010W        W39857  16.088  11.983   4.165  0.2521 -0.4569  0.0259
23011W        W39858   1.118  18.504   0.460  0.1612 -0.0852 -0.0900
23012W        W39859   7.501   1.125   4.040 -0.1368  0.4684  0.2824
23013W        W39860  11.090   1.377  12.972  0.0522  0.0339  0.1718
23014W        W39861  16.477   8.777  11.693  0.1210 -0.1034 -0.2694
23015W        W39862  14.079   3.875   3.756  0.1659 -0.2361 -0.3087
23016W        W39863  10.842   6.957  11.009 -0.1032 -0.3161  0.0538
23017W        W39864   3.542   5.209   0.070  0.0527 -0.1609  0.0902
23018W        W39865  10.240   8.555   9.604 -0.1375 -0.0077  0.0169
23019W        W39866  17.311  17.041  10.375 -0.0174  0.1209  0.2376
23020W        W39867   0.143   9.415  10.771 -0.1306 -0.1900  0.3928
23021W        W39868   3.050   3.008   2.541 -0.2382  0.1142  0.2479
23022W        W39869   3.751  14.159  10.650  0.2695  0.2952 -0.0474
23023W        W39870   3.501  12.301   1.998 -0.0016 -0.0576 -0.0868
23024W        W39871  13.624   1.815  12.743  0.0641  0.3183  0.2438
23025W        W39872   7.651   2.962   9.312  0.2978 -0.0827 -0.0392
23026W        W39873  14.108   5.705  14.224  0.1042  0.3678  0.1000
23027W        W39874  13.005  19.505   4.450  0.3439  0.1567 -0.1512
23028W        W39875  15.327  16.552   1.462  0.0761  0.1149  0.1122
23029W        W39876  15.238   1.840  11.468  0.3606 -0.1785  0.2235
23030W        W39877   0.317  12.414   4.815  0.0944  0.2569  0.0796
23031W        W39878   6.287  18.506  12.492 -0.0063  0.1329  0.1378
23032W        W39879  14.733   0.681  10.743 -0.3595  0.0212 -0.1129
23033W        W39880   7.501   9.870  13.446 -0.0425 -0.2023  0.0230
23034W        W39881   8.258  11.744   1.353  0.1478  0.1015 -0.0750
23035W        W39882  19.096   5.649   0.338 -0.1442  0.0038  0.2663
23036W        W39883   3.469   7.995  13.154  0.3989 -0.0395  0.1414
23037W        W39884   3.615  16.058   2.698 -0.2475  0.0428  0.1507
23038W        W39885   9.667   9.076   3.535  0.2712  0.1101  0.0076
23039W        W39886  15.237   9.660   1.116  0.2109 -0.0815 -0.0219
23040W        W39887   8.002  15.600   2.696 -0.1766 -0.1311  0.1543
23041W        W39888   1.943  11.141   3.570  0.2742  0.3715  0.1362
23042W        W39889  11.705  18.133  13.239  0.2299 -0.0217  0.2852
23043W        W39890   4.039  19.294  11.719  0.0385  0.0783 -0.2507
23044W        W39891  10.684  12.625   4.386  0.1610 -0.1986 -0.1297
23045W        W39892   5.147  12.859   2.856 -0.3801  0.0678 -0.0870
23046W        W39893   1.358   9.342   3.301 -0.0660  0.2970  0.1351
23047W        W39894  13.227  10.287   2.336  0.2157  0.0138 -0.1712
23048W        W39895   5.129  13.408  10.305  0.0371 -0.0376 -0.1882
23049W        W39896   0.157  15.578   1.326  0.1735 -0.1808 -0.2648
23050W        W39897   3.044  10.959   2.949  0.2340 -0.3051 -0.0751
23051W        W39898   1.308   8.016   4.217 -0.1944 -0.0386  0.0221
23052W        W39899  14.007   0.461  14.168  0.0410 -0.2050 -0.2655
23053W        W39900   6.053   7.424   1.645  0.0211  0.1164 -0.2063
23054W        W39901  14.316   5.217   4.154  0.1272  0.0650  0.0641
23055W        W39902   9.820   2.103   0.038  0.0732  0.1910 -0.1164
23056W        W39903   2.153   9.452   2.903  0.1111 -0.0769 -0.2634
23057W        W39904   5.684   0.870  13.913  0.2954 -0.2882  0.1222
23058W        W39905  17.993   6.404   0.450 -0.2402 -0.0212 -0.0922
23059W        W39906  10.757   6.678  10.212 -0.2533 -0.2037 -0.1636
23060W        W39907   4.477  10.737  11.921  0.1672 -0.2375  0.1306
23061W        W39908   0.867  19.193   3.967 -0.2219  0.1671 -0.3149
23062W        W39909  16.104  13.676  13.614  0.0113 -0.3168 -0.1960
23063W        W39910   1.068  17.824   1.931  0.1359  0.0081  0.2638
23064W        W39911   7.838  17.426  11.530  0.2861 -0.3144 -0.0693
23065W        W39912   0.078   5.547  11.693  0.1730  0.1801  0.0407
23066W        W39913  16.928  14.522   9.973  0.0027 -0.1029  0.0425
23067W        W39914  17.107   0.623   1.195  0.1797 -0.1381 -0.3186
23068W        W39915  12.927  19.748   3.430 -0.1710 -0.1139 -0.1335
23069W        W39916  10.280   9.472  13.631  0.2631 -0.0416  0.1315
23070W        W39917  14.712   2.253  13.408 -0.1155  0.1174  0.2228
23071W        W39918  14.728  17.542  10.386 -0.0737  0.1145 -0.1639
23072W        W39919  11.336  14.038  13.810 -0.0996 -0.1069  0.0355
23073W        W39920  19.691  17.978   5.508 -0.1665 -0.2627 -0.2418
23074W        W39921  15.222   7.824   1.284  0.2584 -0.2706  0.0997
23075W        W39922  10.574   5.100  12.322  0.3806 -0.0278 -0.3631
23076W        W39923  16.222   4.578   1.497 -0.0152 -0.4363  0.1068
23077W        W39924  16.799  17.377  11.528 -0.0806  0.3389 -0.1034
23078W        W39925  14.024  11.618  14.256 -0.1358 -0.4310 -0.0765
23079W        W39926  19.218   1.875   9.891 -0.3218 -0.2494  0.3383
23080W        W39927  17.749   9.705  10.474 -0.1707 -0.2470 -0.0679
23081W        W39928  15.219   3.159  13.623 -0.1555 -0.0376 -0.3050
23082W        W39929  16.606   8.345  11.642  0.2337  0.0667  0.0695
23083W        W39930   7.880   1.719   1.445  0.0552 -0.2621  0.1353
23084W        W39931   5.784   6.344  13.516 -0.1969 -0.0578 -0.1805
23085W        W39932  10.285   8.187  12.849  0.1667  0.1243 -0.4606
23086W        W39933  10.407  13.350   0.319  0.0606  0.0124  0.1605
23087W        W39934  18.017  14.005   0.946 -0.3461  0.0148 -0.0405
23088W        W39935   5.496   4.237   2.002 -0.0030 -0.2405 -0.1256
23089W        W39936  13.665  17.014   9.712  0.0932 -0.1699  0.0970
23090W        W39937  13.188   2.662   2.572  0.2216 -0.2599  0.0632
23091W        W39938   4.104  19.802  10.939 -0.1062  0.3968 -0.4833
23092W        W39939   5.293  15.928   1.803  0.0615  0.0075  0.0041
23093W        W39940   3.115   3.067   5.198  0.1362 -0.0098 -0.1314
23094W        W39941  19.147  10.738   1.619 -0.0804  0.0752 -0.2599
23095W        W39942   3.144  19.000   4.092  0.0630  0.1091 -0.2147
23096W        W39943  14.071   4.765  11.959  0.0702 -0.1467  0.1930
23097W        W39944   8.918  16.973   0.931  0.3999 -0.0244  0.2923
23098W        W39945  16.160   3.656   0.175 -0.0158 -0.1914  0.2711
23099W        W39946   8.673   4.617  13.007 -0.1630  0.1531  0.1612
23100W        W39947   7.221   7.841   0.868 -0.0796  0.0164 -0.1614
23101W        W39948  13.877  16.641  12.031  0.1792  0.2963 -0.2544
23102W        W39949   8.845   1.189   2.373 -0.1078  0.2124 -0.3560
23103W        W39950   5.828   6.874  10.724  0.2024  0.1189  0.0538
23104W        W39951   1.966  11.297  11.900  0.0370  0.0741 -0.0290
23105W        W39952  19.665   2.085   4.498  0.0672 -0.0955 -0.0040
23106W        W39953   2.024  19.113   3.462 -0.0047  0.1845 -0.1829
23107W        W39954   0.361   3.345  12.511  0.0258 -0.2052 -0.2365
23108W        W39955   9.646   2.835  11.703 -0.0216  0.0964 -0.1291
23109W        W39956   2.116   2.549  11.670  0.0839  0.0095 -0.0955
23110W        W39957   6.563   3.023   0.236 -0.0585 -0.1217  0.1681
23111W        W39958  14.570  11.804   2.435  0.0410  0.3266 -0.1367
23112W        W39959   3.987  16.580   1.470 -0.0003 -0.1455 -0.0617
23113W        W39960  10.288  17.155   9.678  0.0750 -0.1817 -0.0652
23114W        W39961   4.049  18.896   1.821 -0.2097 -0.0303 -0.1179
23115W        W39962  13.779   3.320   2.927  0.1118 -0.0555  0.2407
23116W        W39963   5.071   3.829  11.817 -0.1606 -0.2588  0.2513
23117W        W39964  13.681   5.795  11.609  0.2206 -0.0830  0.0014
23118W        W39965  15.239   4.935  13.908  0.1650  0.2105  0.1359
23119W        W39966   4.259   2.852  13.362  0.3788  0.4360  0.0259
23120W        W39967  12.781   0.034  12.092 -0.1540  0.0680  0.0086
23121W        W39968   1.298   0.094   4.530 -0.0986  0.0971 -0.0260
23122W        W39969   0.087   8.685  13.302  0.0730  0.1605 -0.0263
23123W        W39970  19.308  12.235   3.730  0.1639 -0.2496 -0.2039
23124W        W39971  14.087  14.360   3.552  0.1639 -0.2079  0.1045
23125W        W39972  11.246   7.682  14.057 -0.0032 -0.0487 -0.1549
23126W        W39973   6.209  16.820   1.728 -0.2754  0.0110 -0.2888
23127W        W39974  12.707   8.842  12.660  0.2080  0.2228 -0.0676
23128W        W39975   9.519   3.684  11.076  0.1511 -0.0245 -0.2481
23129W        W39976  18.967  13.039   2.020 -0.0536 -0.2191  0.2519
23130W        W39977  11.574  18.373   5.592  0.1948  0.2057 -0.0950
23131W        W39978   6.465  19.573  14.332 -0.3453  0.1166 -0.1506
23132W        W39979  16.175   3.228  11.362 -0.4317 -0.2057 -0.2093
23133W        W39980  17.971   7.896  11.545  0.0802  0.2136  0.0003
23134W        W39981  12.268   8.812   3.524  0.1462 -0.1864 -0.1496
23135W        W39982  14.010   2.742   1.335 -0.1233 -0.1947  0.1114
23136W        W39983  13.335  16.066   3.191  0.0194  0.3392  0.0232
23137W        W39984  19.479  17.461  11.850 -0.2192  0.3462  0.4049
23138W        W39985   6.536  17.192  13.157  0.0897 -0.1162  0.1488
23139W        W39986   1.614  13.949   0.827 -0.0536 -0.1364  0.0489
23140W        W39987  14.506  12.546   0.127  0.1330  0.1177  0.2705
23141W        W39988  10.350  12.527  14.292 -0.1159 -0.1584 -0.1792
23142W        W39989   7.061  12.385  10.602  0.2994  0.3337 -0.0486
23143W        W39990   1.273   8.965  14.301  0.0083 -0.1507  0.0403
23144W        W39991   9.303  15.552  13.246  0.0306 -0.3167  0.1542
23145W        W39992   7.950   0.466   4.489 -0.0485  0.2405 -0.4893
23146W        W39993   0.139  19.469  11.996  0.0503  0.1746 -0.1369
23147W        W39994  14.710   1.988  11.591  0.0099 -0.1780 -0.1621
23148W        W39995  15.959  16.973  11.572  0.4141 -0.1810  0.2391
23149W        W39996  19.327  12.929  11.540  0.1956 -0.3383  0.1747
23150W        W39997  11.244  10.301   3.720  0.0324  0.2137 -0.0283
23151W        W39998   0.073   8.056   2.407 -0.2824  0.0115  0.1990
23152W        W39999   0.137  17.621  11.011 -0.2182 -0.4132  0.0923
23153W        W40000  19.254   3.880   1.928 -0.0633  0.0725 -0.0502
23154W        W40001   8.512   6.869  13.013 -0.0705  0.0683  0.0208
23155W        W40002  13.419   1.309  11.001  0.1927  0.1003  0.1818
23156W        W40003   1.511  11.077   1.016  0.1851 -0.0257  0.0528
23157W        W40004   4.440  17.064   4.843  0.0080  0.2897 -0.0026
23158W        W40005   9.595  15.109   2.994 -0.1429 -0.6099  0.3918
23159W        W40006   9.889  15.572   2.923 -0.0185  0.0176 -0.1821
23160W        W40007  10.652  19.819  14.101  0.0515  0.0722 -0.3224
23161W        W40008  16.594  18.280  13.556 -0.2486  0.2689  0.0467
23162W        W40009   2.599  17.437   1.777 -0.0478 -0.2046 -0.3805
23163W        W40010  13.477  12.385   9.324  0.0179  0.2282  0.3028
23164W        W40011  15.618   5.896  12.731 -0.1189 -0.0597  0.0017
23165W        W40012  13.562  17.924   2.114  0.2504  0.2866 -0.0583
23166W        W40013   2.920   1.419  12.727 -0.0094 -0.2086 -0.0816
23167W        W40014   9.452  11.599   2.858 -0.1684  0.2073 -0.0431
23168W        W40015  13.312   0.004   5.324  0.0355 -0.3455  0.1559
23169W        W40016  11.902  10.577   9.489 -0.1679  0.0134  0.5001
23170W        W40017   6.363  15.192   2.535  0.0692  0.0150  0.1780
23171W        W40018   9.151   9.062  10.938  0.0997  0.1510  0.0576
23172W        W40019  19.725  16.065  10.295  0.1343  0.1950 -0.1929
23173W        W40020  14.867  17.516   1.471  0.3094  0.2738 -0.0459
23174W        W40021   9.592  17.757   1.914 -0.0943  0.0687  0.3402
23175W        W40022  12.607   5.306   0.401  0.1510  0.2270  0.1944
23176W        W40023  11.622  15.823  14.282 -0.2050 -0.0278 -0.1520
23177W        W40024   0.746   0.423  11.256 -0.1585 -0.3170 -0.1263
23178W        W40025   6.161  16.127   9.499 -0.4995  0.0041 -0.2575
23179W        W40026  12.012  19.267   4.593  0.2994  0.0342 -0.1004
23180W        W40027   5.918  11.483  12.843 -0.0512 -0.1699  0.0803
23181W        W40028  14.535  12.520   3.164  0.2304  0.0339 -0.2947
23182W        W40029  16.919  12.411  12.887  0.0628 -0.0220 -0.2919
23183W        W40030  10.426  11.494   2.549 -0.0673  0.4176  0.2416
23184W        W40031  12.549   1.923  12.480 -0.0251  0.1357  0.1610
23185W        W40032  17.625  19.707   9.392 -0.0205  0.0211  0.2201
23186W        W40033  16.550   2.923   0.595  0.0218 -0.4806  0.4253
23187W        W40034   5.916   6.848  13.086  0.2506  0.3360  0.1301
23188W        W40035   9.966   6.796  10.613 -0.1766  0.0314 -0.3126
23189W        W40036   2.266  12.370  10.339 -0.3456 -0.1817  0.2593
23190W        W40037  12.554  18.779  12.310 -0.1279  0.0690 -0.0176
23191W        W40038  13.633   7.674   0.045 -0.0232 -0.2219 -0.0953
23192W        W40039   5.271   6.867  12.877  0.4088  0.0987  0.4309
23193W        W40040   0.729  12.336   2.546  0.0030 -0.4553 -0.3233
23194W        W40041   5.305  11.464   0.120 -0.0927  0.0033  0.0584
23195W        W40042   4.482   4.741   3.906  0.0706 -0.1502 -0.0710
23196W        W40043   0.402  17.632   4.110  0.2264  0.0366  0.1140
23197W        W40044  18.991  12.124   0.067 -0.1093  0.1110 -0.4501
23198W        W40045  18.048  13.592   1.261 -0.1348 -0.1191  0.1852
23199W        W40046   5.488   1.745  13.492 -0.0828 -0.1363  0.2327
23200W        W40047  15.554   3.408   3.996 -0.3599  0.1172  0.0048
23201W        W40048   4.860   8.557  10.570 -0.0772  0.0252 -0.1329
23202W        W40049  15.754  15.915   5.052 -0.0574  0.0903  0.2672
23203W        W40050  12.201  18.059  10.644  0.4857  0.0411  0.1020
23204W        W40051  11.949   7.392  12.680 -0.2322  0.4304 -0.0451
23205W        W40052   1.149  19.106   2.494  0.2048 -0.1808 -0.0615
23206W        W40053  10.170   2.533  14.288 -0.1507  0.0329  0.0823
23207W        W40054  10.314  13.790  13.899 -0.2267 -0.1814  0.0505
23208W        W40055   0.190   8.422  11.799 -0.0979  0.3407  0.4908
23209W        W40056  19.656  17.462   0.840 -0.2389 -0.1865  0.1069
23210W        W40057   5.051   6.265   3.025 -0.0517 -0.0886  0.2448
23211W        W40058   5.790   5.478  14.281  0.2732  0.0903  0.0154
23212W        W40059  15.118   5.055   1.334  0.4134 -0.1060  0.2830
23213W        W40060  12.680  16.559   4.688 -0.2073  0.1716 -0.0204
23214W        W40061   5.476   0.777  10.861 -0.0630 -0.2638  0.2878
23215W        W40062   3.670   3.563  13.065 -0.3566  0.0229  0.2365
23216W        W40063   1.956  17.713  14.347  0.0879  0.0292  0.1734
23217W        W40064   8.898   0.321  10.533 -0.2965  0.3626  0.0450
23218W        W40065   3.483  10.403   3.783 -0.1387  0.0136 -0.3403
23219W        W40066  14.470   8.690  11.752  0.0123  0.3374  0.1176
23220W        W40067  19.528  10.842   5.154  0.3775  0.0284  0.0751
23221W        W40068   7.758   4.946   0.595 -0.0718  0.1455 -0.0704
23222W        W40069  10.966  10.243  10.295  0.1723  0.0989 -0.0418
23223W        W40070  13.447   1.225   3.341 -0.1475  0.5101 -0.0706
23224W        W40071   9.059   8.672   0.422  0.0859 -0.1371  0.1097
23225W        W40072  18.174   2.506   1.683  0.0460 -0.2198  0.0887
23226W        W40073  13.533  15.551   2.383 -0.0758 -0.2685 -0.2275
23227W        W40074   7.318   2.811   2.116 -0.1062  0.0250 -0.0445
23228W        W40075   5.392   2.210  12.051 -0.1424 -0.2900 -0.0809
23229W        W40076   7.282   5.917  13.214  0.3989 -0.2435 -0.0317
23230W        W40077  15.796   3.988   2.038 -0.0152  0.1047  0.3022
23231W        W40078   0.815  11.190   1.730 -0.1074  0.0696  0.3781
23232W        W40079  16.879  17.416   0.449 -0.1658  0.1491  0.0964
23233W        W40080   5.114  11.500   0.970  0.0211 -0.1278  0.2254
23234W        W40081   9.032   8.990  12.158  0.1467  0.1047 -0.0530
23235W        W40082  10.581   6.083   2.667 -0.3632 -0.0359  0.0323
23236W        W40083   3.156  12.749   4.219 -0.0344 -0.1646 -0.0666
23237W        W40084   3.194  17.124   3.440 -0.0033 -0.2316 -0.1530
23238W        W40085   8.013   1.533   2.769 -0.2504  0.1809  0.3198
23239W        W40086   0.820  18.426   1.905  0.2556 -0.1718 -0.2403
23240W        W40087   8.203   5.727  12.040 -0.1062 -0.2531 -0.0687
23241W        W40088  18.603  19.675  13.028  0.1890 -0.3375  0.3433
23242W        W40089  14.235   7.563   4.999 -0.2004  0.0143 -0.2123
23243W        W40090   5.465  18.975  12.687 -0.1213 -0.0747  0.0944
23244W        W40091  16.743  19.695   3.593 -0.1820  0.0106 -0.1578
23245W        W40092  14.089  18.264  14.035 -0.0542  0.0005  0.0324
23246W        W40093   2.598   4.842   9.153  0.2388 -0.1265 -0.0492
23247W        W40094  17.909   6.492   0.949  0.1537  0.2288 -0.0769
23248W        W40095   2.101  13.524   0.072  0.3981  0.2536 -0.3268
23249W        W40096  19.371   1.884   3.895 -0.0350 -0.0811 -0.3432
23250W        W40097   4.706  13.694  11.524 -0.0834  0.0815 -0.0083
23251W        W40098  18.199  17.889  12.747  0.1078 -0.0532  0.0258
23252W        W40099  19.211  10.512  11.896  0.2123  0.0747  0.0136
23253W        W40100   6.914   2.572   9.784 -0.0421 -0.3519 -0.4608
23254W        W40101   9.206  11.043  10.072 -0.2792 -0.0567 -0.0455
23255W        W40102   4.576  17.228  11.286  0.0350  0.1464  0.3035
23256W        W40103  19.824  17.493   4.677 -0.0279 -0.0309 -0.2604
23257W        W40104  17.369   0.056   2.923 -0.1884  0.1258 -0.3326
23258W        W40105   3.591  15.115   4.340 -0.1928  0.1365 -0.0570
23259W        W40106   2.556   6.589  10.151 -0.1689 -0.1247 -0.1476
23260W        W40107   5.026  13.358   1.736 -0.4622  0.1198 -0.0918
23261W        W40108   2.976  18.569   4.346  0.3410  0.3357  0.1567
23262W        W40109   4.171  18.907   9.126 -0.0172  0.2189 -0.1387
23263W        W40110   2.227   1.778   0.005  0.0715  0.0923  0.0084
23264W        W40111  14.764   0.036  11.837 -0.3456 -0.4010 -0.0097
23265W        W40112   8.130  17.981   3.468  0.0435 -0.1124 -0.0883
23266W        W40113  10.500  17.413   5.539  0.0286 -0.1362  0.2256
23267W        W40114   0.496   0.770  11.538 -0.5783 -0.0042 -0.1357
23268W        W40115   9.507  16.695  10.770 -0.1442  0.2563  0.2359
23269W        W40116   7.664  13.116  12.874  0.1030  0.0615 -0.1458
23270W        W40117  13.808   8.735   9.768 -0.0869  0.0241  0.1079
23271W        W40118   6.785   3.945  11.854 -0.1135 -0.0295 -0.0188
23272W        W40119   4.875   8.408   2.656  0.1693 -0.1613 -0.1009
23273W        W40120  18.625  12.565   2.163 -0.1260 -0.2215  0.1559
23274W        W40121   2.758   5.083  11.662 -0.3252  0.2650 -0.1694
23275W        W40122  13.472  11.591  12.972 -0.1288  0.1154  0.1560
23276W        W40123  17.816   4.970   1.610  0.0455 -0.1333  0.2199
23277W        W40124   2.797  18.020  10.222  0.0563  0.0750  0.0219
23278W        W40125   2.845   5.365   3.785  0.0927 -0.2159  0.1421
23279W        W40126  11.263   8.484  12.544  0.0445  0.1188 -0.2156
23280W        W40127  11.601  15.244   4.376 -0.0124 -0.3259 -0.1114
23281W        W40128  12.667   9.169   4.422 -0.0550 -0.0063  0.1143
23282W        W40129  18.040   9.727  11.768 -0.3745  0.1104 -0.0073
23283W        W40130  15.067   7.849   2.827 -0.1113 -0.0049  0.1793
23284W        W40131   6.532   1.033   2.640 -0.0011 -0.1443 -0.4040
23285W        W40132   5.941  18.714   0.701  0.1973  0.2834  0.0210
23286W        W40133   4.227  12.517  10.844  0.1513  0.2521 -0.4267
23287W        W40134   2.588  17.671   4.599  0.0231 -0.1667 -0.1857
23288W        W40135  15.858  16.566   2.698 -0.1043  0.2668  0.1428
23289W        W40136  15.277  16.252  12.376 -0.0133 -0.2368 -0.1198
23290W        W40137  13.396  16.825   4.118  0.0870  0.1631 -0.3414
23291W        W40138   1.371  17.473   2.756  0.0951 -0.3152  0.1016
23292W        W40139  14.683   1.608   2.181 -0.2260 -0.4237  0.0978
23293W        W40140   4.021  10.502   2.429  0.1639  0.0042 -0.0287
23294W        W40141  16.387   7.122  12.067 -0.1986 -0.2980  0.1335
23295W        W40142   2.351   5.573   2.067 -0.0953 -0.2439  0.2544
23296W        W40143   1.816  12.164  12.093  0.0019  0.2571  0.0927
23297W        W40144   3.604  10.788   0.307  0.2249 -0.0729  0.4228
23298W        W40145   5.815   1.974  11.097  0.0101  0.1405 -0.0066
23299W        W40146  19.607  17.882  13.829 -0.1000 -0.2845 -0.3214
23300W        W40147  10.950   6.833   0.715  0.0361  0.0495 -0.0461
23301W        W40148  19.494   9.444  10.282  0.0571 -0.0621  0.1980
23302W        W40149   6.656   6.123  10.388 -0.0472 -0.0966 -0.1648
23303W        W40150  15.867  10.898  12.113  0.0673  0.1157  0.2113
23304W        W40151  14.039  19.667  13.634 -0.3325  0.0943 -0.0039
23305W        W40152   6.916  19.741  10.154 -0.2387  0.0751  0.0570
23306W        W40153  14.445   5.069  11.022 -0.1834  0.2315 -0.0385
23307W        W40154   7.422  19.133   1.741  0.1943 -0.0486  0.1430
23308W        W40155   3.383   8.537   2.832 -0.0633  0.2523  0.0600
23309W        W40156   6.456  14.399   1.858  0.0893  0.0040 -0.1949
23310W        W40157   7.157   8.216  10.017  0.2080  0.0773  0.1526
23311W        W40158   3.517  18.564   2.107 -0.1586  0.1011 -0.2025
23312W        W40159   4.053   6.097   5.189  0.0667  0.3401  0.4671
23313W        W40160  12.767   3.290  10.439 -0.0212 -0.1478 -0.0191
23314W        W40161   1.492  15.985  13.895  0.1023  0.0541  0.2146
23315W        W40162   0.723   7.184  11.185 -0.1907  0.1111  0.0137
23316W        W40163  14.945   8.304  10.125 -0.4351 -0.2364 -0.1174
23317W        W40164   0.300  17.227  14.157  0.3393 -0.0977  0.1624
23318W        W40165  16.604   8.075   2.676  0.0181 -0.0161  0.1776
23319W        W40166   2.599   8.334   0.220  0.2970  0.2939 -0.2349
23320W        W40167  16.722  14.630  13.262 -0.0586 -0.0171 -0.4690
23321W        W40168  10.140   4.434  13.998  0.2432  0.1555 -0.0175
23322W        W40169  10.607  13.033  10.635  0.4785 -0.0844 -0.1893
23323W        W40170  13.652  18.748   3.792  0.0563 -0.1826 -0.3097
23324W        W40171   1.523  11.469   3.822  0.1418  0.3917 -0.0844
23325W        W40172  10.916  10.668  10.707 -0.3272 -0.1329 -0.2321
23326W        W40173  10.610   0.736   3.827 -0.0660  0.2281 -0.2259
23327W        W40174  14.439  16.679   3.004  0.1217  0.1178  0.0454
23328W        W40175  13.521  15.687  10.950 -0.1167 -0.1233 -0.1768
23329W        W40176   4.207  12.360   4.225 -0.1328 -0.1882 -0.3135
23330W        W40177   2.959   7.604   2.555 -0.0773 -0.1367  0.1402
23331W        W40178   4.017   4.658  10.535  0.0091  0.2375 -0.0983
23332W        W40179   6.520  10.640  14.277  0.2357 -0.0752  0.0183
23333W        W40180   4.188   9.334  13.203  0.2845  0.3760  0.0324
23334W        W40181  16.530   6.086  10.231 -0.2551  0.0909 -0.1697
23335W        W40182  18.533  12.664  13.278 -0.4705  0.2613  0.2636
23336W        W40183   8.974   7.290   2.704 -0.2707 -0.4793 -0.1268
23337W        W40184   4.836   2.755   5.618  0.0434 -0.3066 -0.1166
23338W        W40185  18.691   9.875  12.552  0.0907 -0.5562  0.1829
23339W        W40186   8.539  11.676  10.646  0.1056 -0.0595 -0.0572
23340W        W40187  15.802  13.265  13.328  0.3966 -0.3608 -0.1645
23341W        W40188   6.090   7.212   9.393  0.1238 -0.1422 -0.3776
23342W        W40189  16.112   3.765   0.686  0.2980  0.2494 -0.2015
23343W        W40190  16.989   4.596   2.333 -0.0811 -0.1937  0.2115
23344W        W40191  13.656   6.644  11.512 -0.1095  0.0381  0.0174
23345W        W40192  15.015  18.094   5.117  0.4111  0.1914 -0.1933
23346W        W40193   2.106   3.857  11.946  0.1031  0.1994 -0.0646
23347W        W40194  14.845   8.921  14.167  0.0899  0.1754 -0.2634
23348W        W40195   2.093  15.063  10.834 -0.0171 -0.1927  0.0759
23349W        W40196  10.216   0.414  11.010 -0.3013 -0.0647 -0.3612
23350W        W40197  14.442  14.105   3.883  0.0742  0.0059  0.1165
23351W        W40198  17.949   8.985  11.050  0.1275 -0.1415  0.2428
23352W        W40199   6.639  13.019  13.945 -0.1758  0.2822  0.0703
23353W        W40200   2.333  14.301   0.056  0.4589  0.3336 -0.1485
23354W        W40201   7.913  14.160   3.029 -0.0536  0.2690  0.1379
23355W        W40202   5.749  15.380   3.348  0.0913  0.0589 -0.0308
23356W        W40203  11.818  14.724   0.541  0.1434  0.0450 -0.1681
23357W        W40204  11.911   4.114  10.469 -0.0437 -0.2306 -0.0910
23358W        W40205   0.092  16.964  12.247  0.0046 -0.0458 -0.1163
23359W        W40206   4.176   2.113   4.961  0.2310  0.0315  0.0953
23360W        W40207  18.858  14.431  10.647  0.1963  0.1955  0.0211
23361W        W40208   4.908  10.788  10.882  0.3420 -0.4937 -0.1485
23362W        W40209  11.846  12.454   0.828  0.0017  0.1986 -0.0771
23363W        W40210   2.411   6.971   0.677 -0.1160  0.0271 -0.2326
23364W        W40211   5.144   1.013  10.527 -0.1438  0.0967  0.1415
23365W        W40212   1.106  14.808   2.055  0.2207 -0.1546 -0.0420
23366W        W40213  12.791   4.177   1.177 -0.1438  0.1260  0.0649
23367W        W40214  11.947  10.133  12.985 -0.1051 -0.1846 -0.1761
23368W        W40215  11.327   3.234   0.011 -0.1719  0.0350 -0.2602
23369W        W40216   7.847   2.486  14.308  0.0180  0.0101  0.1684
23370W        W40217  19.556   9.659  12.043 -0.0287 -0.0446  0.3649
23371W        W40218   0.544   1.412   0.232 -0.2371 -0.1055  0.0305
23372W        W40219   5.372   1.048  12.322  0.1280 -0.3236  0.0611
23373W        W40220  13.124   9.702  13.231  0.0074 -0.0024  0.0272
23374W        W40221  13.599  11.585   2.300  0.0473 -0.2869 -0.0433
23375W        W40222  16.434  18.549   1.659  0.1673 -0.0772 -0.1230
23376W        W40223   7.081  18.060   0.430  0.0367 -0.2216 -0.3037
23377W        W40224   4.367   0.451  10.238  0.0574 -0.1940 -0.3106
23378W        W40225   5.592   7.669  13.377 -0.0587  0.0785  0.0931
23379W        W40226  16.613   1.758  12.456  0.0222 -0.0185 -0.0007
23380W        W40227   9.757  19.399   3.702  0.0829 -0.0321 -0.1510
23381W        W40228   5.498  16.427  11.918  0.0230  0.1254 -0.0051
23382W        W40229  17.265   2.619   3.405  0.1444 -0.2422 -0.1022
23383W        W40230   5.356  10.739   0.919 -0.0422 -0.0506 -0.2170
23384W        W40231   3.332  17.755   0.983  0.0670  0.3276 -0.3300
23385W        W40232   0.475   4.483   9.837  0.0667 -0.0139 -0.2702
23386W        W40233  11.919  17.460   3.151  0.0265  0.0893 -0.1127
23387W        W40234   3.146  16.345   4.505  0.0670 -0.0832 -0.0356
23388W        W40235   3.894  10.118   0.224  0.1187 -0.2670 -0.2452
23389W        W40236   1.713  16.870   0.387  0.0990  0.3615  0.2897
23390W        W40237   3.613   7.188  13.918 -0.4476  0.1524  0.2027
23391W        W40238   1.841  19.056   0.299  0.1552  0.1126 -0.0682
23392W        W40239  12.311   4.110  11.282 -0.1030 -0.0296  0.3522
23393W        W40240  14.166  18.376   2.629  0.0421  0.0006  0.2064
23394W        W40241   3.434   9.680  11.313  0.0158  0.0223  0.0954
23395W        W40242  10.813   0.526  10.936  0.0017  0.3033  0.1983
23396W        W40243  14.534   5.522  10.234  0.0633 -0.0870  0.3726
23397W        W40244   8.608   6.915   0.509  0.1217  0.1432 -0.0332
23398W        W40245   5.613   8.829   0.923  0.3869 -0.1267  0.0783
23399W        W40246  14.798  18.290  13.007  0.0143  0.0949  0.1570
23400W        W40247  18.059   8.212  13.383 -0.0516  0.0759 -0.2775
23401W        W40248   8.211   8.401  13.056 -0.2717 -0.0406  0.2501
23402W        W40249  11.927   9.242   4.435  0.0938 -0.1655  0.0194
23403W        W40250  14.961   9.977   0.195 -0.2346  0.2042  0.4025
23404W        W40251   0.658  11.320  14.044 -0.0679 -0.0196  0.5548
23405W        W40252   6.843  14.070  13.282  0.2204  0.2964 -0.0407
23406W        W40253  12.877  17.166   1.758  0.1129 -0.0280 -0.0960
23407W        W40254   4.072   6.223   2.990  0.1209 -0.0488 -0.0557
23408W        W40255   6.611   4.539   2.767  0.0258  0.2302  0.1643
23409W        W40256  10.534   9.289  11.053  0.0937  0.0971  0.1785
23410W        W40257  16.181   3.405   5.399  0.0801 -0.0970  0.1944
23411W        W40258   7.220  13.996   4.137  0.0570  0.1679  0.0531
23412W        W40259   4.028  19.777   2.202 -0.3070 -0.1539  0.3369
23413W        W40260  16.665  13.783  13.018  0.0424 -0.1228  0.1542
23414W        W40261  14.063  17.464  14.058 -0.0355  0.2377 -0.3083
23415W        W40262   6.925   2.105   0.601 -0.0981  0.0253 -0.0150
23416W        W40263   9.044   5.938   0.105  0.3518 -0.2771  0.1071
23417W        W40264   1.099  15.404   2.673  0.2574  0.2246 -0.0430
23418W        W40265  16.878  19.107   0.327 -0.1715 -0.2578  0.1782
23419W        W40266   3.322  13.138  10.389  0.0431 -0.0452 -0.0806
23420W        W40267  17.913   4.970  13.320  0.2253 -0.2616  0.0213
23421W        W40268  15.006   1.395   0.063 -0.2991  0.0933 -0.0665
23422W        W40269  12.934   2.978  12.236 -0.2445 -0.1230  0.2871
23423W        W40270   3.489  10.562   5.239 -0.3105 -0.2628 -0.5053
23424W        W40271   7.317  17.674   3.428 -0.0366 -0.1836  0.2267
23425W        W40272   6.908   5.188   4.036 -0.3178  0.2235  0.1057
23426W        W40273   9.604  12.872   3.068 -0.1060 -0.0119  0.0967
23427W        W40274   9.225   8.372  10.288 -0.0794 -0.1967  0.1398
23428W        W40275  18.345  14.734  14.100 -0.2072  0.1681 -0.0735
23429W        W40276   2.584   9.258   0.500  0.2284 -0.0106  0.1506
23430W        W40277   0.448   9.010   3.689  0.0335  0.0176  0.1369
23431W        W40278   1.433   5.141  13.138  0.3603  0.0399  0.0603
23432W        W40279   5.148   2.953  11.340 -0.0965 -0.0442 -0.0703
23433W        W40280  10.676  18.821  10.400 -0.0935  0.0655 -0.5901
23434W        W40281   3.500  15.441   0.183 -0.2886 -0.3757 -0.1428
23435W        W40282  13.802   4.278  13.229  0.3138 -0.2002 -0.0758
23436W        W40283  13.790  16.606   3.883  0.0480 -0.2387 -0.0835
23437W        W40284  19.015  13.950   2.098  0.2654  0.1826 -0.0437
23438W        W40285   7.101  11.692   5.271  0.3072  0.0090  0.1267
23439W        W40286  19.459  18.661  11.876 -0.3460  0.3124  0.2343
23440W        W40287   9.762   6.831   4.122 -0.0958  0.0678 -0.1056
23441W        W40288   4.142   5.106  10.215 -0.0435 -0.1908 -0.2620
23442W        W40289  14.660  16.540   1.375  0.2150 -0.0841  0.0796
23443W        W40290  12.229  12.656  11.109  0.0019 -0.1180 -0.0615
23444W        W40291  15.702  10.906   2.045 -0.1163  0.0854 -0.2374
23445W        W40292   0.765   9.820  13.065 -0.0190 -0.0335 -0.0697
23446W        W40293   2.635   6.582  12.778  0.2576 -0.3438  0.0112
23447W        W40294   1.534  11.345   3.285  0.4337  0.2014 -0.1362
23448W        W40295  14.938  14.340  13.158 -0.0522 -0.2304  0.0347
23449W        W40296   7.694   8.207  11.378 -0.0452 -0.2143  0.0545
23450W        W40297   3.521  19.604   4.168 -0.0195  0.3042 -0.0345
23451W        W40298   8.565   6.749   9.804 -0.1222 -0.0112  0.0493
23452W        W40299   8.760   5.099   4.170 -0.1953  0.0628 -0.0534
23453W        W40300   6.397   0.184   3.649 -0.1994  0.0640 -0.2038
23454W        W40301   5.654   1.005   4.201  0.1161 -0.0074 -0.2257
23455W        W40302   7.469   8.340  11.832 -0.2508  0.3371  0.1637
23456W        W40303  15.604  18.006  12.378 -0.0255 -0.0619 -0.4044
23457W        W40304  12.644   3.286   9.945  0.1570  0.0782  0.1481
23458W        W40305   9.724   7.214   3.710 -0.1575 -0.3064  0.1898
23459W        W40306  13.594  13.900   4.594 -0.1429  0.0339  0.3447
23460W        W40307  14.908   3.329   4.525 -0.3442  0.3247  0.5108
23461W        W40308   8.096   0.087  10.794 -0.5470  0.3042  0.3012
23462W        W40309   8.725   9.834   0.801 -0.1227 -0.0873 -0.3348
23463W        W40310   1.406  19.399   3.445 -0.0955 -0.0071  0.0833
23464W        W40311   6.326   2.273  13.514 -0.1297 -0.2283 -0.1880
23465W        W40312   8.567   0.704  10.384 -0.2324  0.1557  0.3353
23466W        W40313  12.551   8.495  10.598 -0.0431  0.1768  0.0933
23467W        W40314  16.225   0.449  11.275  0.1536  0.1072  0.0248
23468W        W40315   7.727   5.716   4.287 -0.3088 -0.1809 -0.2113
23469W        W40316  18.074   5.446   0.780  0.3340  0.1509 -0.2979
23470W        W40317   9.494   6.455   4.175  0.0170  0.3593 -0.3211
23471W        W40318   3.505   2.337  10.560  0.1332 -0.2628 -0.0683
23472W        W40319  19.268  15.223  11.689 -0.0746 -0.3244 -0.0138
23473W        W40320  10.975  15.541  12.059 -0.2200  0.1099  0.0319
23474W        W40321   7.804   7.413   2.803 -0.0404  0.0139 -0.0562
23475W        W40322   0.597  10.478   2.575  0.0458  0.1393  0.2513
23476W        W40323  18.559   6.994   0.734 -0.0301 -0.0285 -0.2126
23477W        W40324   5.628   9.442  12.005 -0.0948 -0.1040 -0.1464
23478W        W40325  16.832  10.446   3.645 -0.1622 -0.2479 -0.0750
23479W        W40326  19.702   3.915  10.468  0.0112  0.0011  0.2806
23480W        W40327   3.399   8.902  10.687  0.1979  0.0422  0.0260
23481W        W40328   2.004   7.532   0.599  0.2446 -0.2738  0.0996
23482W        W40329   1.304   1.809   0.955 -0.2216 -0.3588  0.0338
23483W        W40330  15.501  13.958  13.908 -0.1572 -0.0643  0.1443
23484W        W40331   2.153   8.700   0.027  0.0332 -0.0002 -0.0098
23485W        W40332  10.347   0.289   1.787 -0.1297 -0.1712  0.0219
23486W        W40333  11.258  15.458   2.328 -0.2341 -0.0243  0.1497
23487W        W40334  18.003  14.926  10.864  0.0338 -0.0698 -0.0742
23488W        W40335   0.032   0.241   4.494  0.0061  0.0026 -0.4096
23489W        W40336  10.118   2.678   2.931 -0.3937 -0.3981 -0.0046
23490W        W40337  10.118  11.049   1.295  0.1043 -0.3853  0.0843
23491W        W40338   2.842  12.045   0.142  0.1351  0.0551 -0.0270
23492W        W40339  14.602   6.093   5.069  0.0428 -0.0245 -0.1251
23493W        W40340  11.688   7.369   0.608  0.1195 -0.1153 -0.1022
23494W        W40341  17.207   6.222  11.250  0.2548  0.1058  0.2214
23495W        W40342  16.735   9.021   8.739  0.0554  0.0418 -0.0972
23496W        W40343   5.168  15.719  10.219 -0.3747  0.2532 -0.1104
23497W        W40344   6.077   2.348   0.188 -0.0396  0.1660  0.0476
23498W        W40345  12.453  10.540   4.594  0.1801  0.0833  0.1335
23499W        W40346  19.158   1.989  12.573 -0.2306  0.1290 -0.0178
23500W        W40347  11.510  16.055  10.819 -0.0786 -0.1659 -0.0919
23501W        W40348  10.327  17.674   5.159 -0.1103 -0.1961  0.1403
23502W        W40349   7.130   5.540   3.526  0.2841 -0.0251 -0.0151
23503W        W40350  18.060   0.456   0.209 -0.1743 -0.3320 -0.1692
23504W        W40351  12.882  12.820   1.863  0.2029 -0.2143 -0.1310
23505W        W40352   4.832   3.677  13.864  0.0554 -0.2021  0.0323
23506W        W40353   1.302  17.677   4.147 -0.2528 -0.2827 -0.0222
23507W        W40354   3.283   0.957  10.035 -0.1304 -0.1384 -0.1808
23508W        W40355   4.764   0.968   1.726  0.1850 -0.1915  0.0409
23509W        W40356   5.069  17.123  14.077  0.1157 -0.0512 -0.1005
23510W        W40357   7.934  18.980   0.863  0.1734 -0.2568 -0.1404
23511W        W40358  16.917  11.228  13.083 -0.2505 -0.0147 -0.1226
23512W        W40359  14.728   1.610   2.802 -0.2311  0.1897  0.0369
23513W        W40360  10.073  12.896   1.807  0.0751  0.0586  0.0339
23514W        W40361   5.517   3.216   3.493 -0.3661  0.1085  0.0098
23515W        W40362   6.886   9.917   2.348 -0.0892 -0.2328 -0.2001
23516W        W40363  13.298   7.777   2.731  0.0488  0.1714  0.4208
23517W        W40364  12.497   6.254   1.004  0.1437 -0.1118 -0.0791
23518W        W40365  18.008  15.031  13.741  0.1818  0.3377  0.2703
23519W        W40366   7.586  19.174  13.143  0.1640  0.1747  0.1503
23520W        W40367  10.823  13.968  13.823  0.2786  0.0600  0.0239
23521W        W40368   7.081  15.944   9.090  0.1826  0.0092 -0.0783
23522W        W40369  16.556   6.165   3.440  0.0613 -0.0669 -0.0700
23523W        W40370  19.722  13.736  12.611  0.1937 -0.2784 -0.2481
23524W        W40371  16.365   4.522   0.174  0.0654  0.1001  0.0720
23525W        W40372   8.615   6.156   0.892  0.1942 -0.2800  0.2767
23526W        W40373  11.032  11.302   2.601 -0.3044  0.1425  0.1087
23527W        W40374  14.065   3.044  14.062 -0.0277  0.2450  0.0534
23528W        W40375  17.350   3.283  12.710 -0.0031 -0.0776 -0.0766
23529W        W40376  11.041  19.454   0.667  0.2490 -0.0218  0.1991
23530W        W40377  18.425  16.087  13.053  0.2108  0.0260 -0.3409
23531W        W40378  12.681  11.011  13.656  0.3025 -0.1077  0.2010
23532W        W40379  12.816  15.894  10.086 -0.0901  0.4119 -0.3527
23533W        W40380   4.504  19.382   1.053 -0.0044  0.2059  0.0215
23534W        W40381  17.831  14.786   1.363 -0.1083  0.1160 -0.2374
23535W        W40382  12.587   5.928   1.776  0.2937 -0.0559 -0.0166
23536W        W40383  16.734   9.580   3.750 -0.0535 -0.2441  0.1620
23537W        W40384   4.746   4.284   0.904  0.0398 -0.0037 -0.0109
23538W        W40385  19.419   2.343  12.212  0.1680  0.1317 -0.0409
23539W        W40386   8.215   8.582   0.820 -0.0758  0.3950 -0.0748
23540W        W40387   6.227  19.473  11.506  0.1375 -0.0948  0.1182
23541W        W40388  16.463   0.369   2.462  0.0430 -0.0330 -0.0364
23542W        W40389   7.171  18.381   0.851  0.0026 -0.2014 -0.2770
23543W        W40390  11.945   4.818  14.295 -0.3823  0.1529 -0.2135
23544W        W40391   2.790  15.070  12.980  0.1803  0.0047  0.0343
23545W        W40392  13.089  12.254  13.536  0.3862 -0.0062 -0.0523
23546W        W40393  13.727  12.254   0.518 -0.2998 -0.1092 -0.3415
23547W        W40394  16.587  10.351  13.486  0.2648 -0.3177 -0.0683
23548W        W40395   5.844  19.200   2.846 -0.2095 -0.1708  0.1882
23549W        W40396  14.088  13.799  11.463 -0.0701  0.0324  0.0935
23550W        W40397  14.481   8.269  11.003 -0.3177 -0.4222  0.0038
23551W        W40398   3.899  11.918   3.418  0.0944 -0.1243  0.3617
23552W        W40399  11.843  14.753  13.113 -0.0936  0.0134  0.4349
23553W        W40400  14.317   3.397   3.857 -0.1711  0.0878 -0.2018
23554W        W40401  11.272   1.766   3.222  0.1045 -0.2870  0.1096
23555W        W40402  14.496  18.869  12.569 -0.0953  0.1921 -0.4023
23556W        W40403   0.077   7.623   1.109 -0.2937 -0.2403 -0.0408
23557W        W40404  14.195   5.991   0.443 -0.0065  0.0607 -0.0510
23558W        W40405   3.630   8.177  12.612 -0.0580 -0.1636  0.0594
23559W        W40406   0.967   2.640   1.893 -0.1466 -0.0637  0.0490
23560W        W40407  17.619   9.699  12.812 -0.3129 -0.3353 -0.1168
23561W        W40408   3.622  12.812  14.200  0.1563  0.0322 -0.0694
23562W        W40409   0.447  11.429   1.438 -0.1197 -0.1913 -0.1185
23563W        W40410   3.991   6.067   4.032 -0.4022 -0.3755  0.0334
23564W        W40411   5.471  12.545   4.053  0.2220  0.1295  0.1436
23565W        W40412   6.688   2.903   0.715 -0.0250  0.2536 -0.0271
23566W        W40413   4.928  15.266  10.158  0.3178 -0.0791  0.2927
23567W        W40414   9.019   0.621   2.753 -0.0860  0.0368 -0.2686
23568W        W40415  14.588   7.282   9.737 -0.0365 -0.3325  0.2082
23569W        W40416  12.362  15.656   3.248 -0.2536 -0.4697  0.0261
23570W        W40417  19.396  18.626  13.691 -0.1519  0.0867 -0.2458
23571W        W40418  17.314  15.626   1.269  0.2625 -0.0767 -0.0509
23572W        W40419   3.282   5.552   2.867  0.0248 -0.0285  0.1116
23573W        W40420   3.967  13.131   1.100 -0.2182 -0.1233 -0.1153
23574W        W40421  13.080   2.200  13.978  0.1668 -0.0073 -0.3256
23575W        W40422  11.398  16.425   5.191  0.2295  0.0751  0.1829
23576W        W40423  12.629  12.498  13.446  0.0412 -0.2293 -0.0696
23577W        W40424   7.626   5.269  13.580  0.3142 -0.0085 -0.1759
23578W        W40425   4.312   9.856   1.913 -0.1496 -0.0632 -0.0089
23579W        W40426  19.459  11.926  13.295 -0.1746  0.1855 -0.0478
23580W        W40427   4.633  17.092   1.944  0.3117  0.0967 -0.0448
23581W        W40428  12.657  15.333   3.489 -0.0561 -0.2508 -0.0912
23582W        W40429  16.198  16.221   2.947 -0.1490 -0.0891  0.1130
23583W        W40430   2.799   0.355   4.261 -0.0942 -0.0795 -0.2960
23584W        W40431   8.795  16.102  10.288 -0.0591  0.1148  0.1246
23585W        W40432  18.335  15.674  11.496  0.0037  0.2443 -0.2930
23586W        W40433  10.667   3.195   0.492  0.2232  0.1995 -0.1077
23587W        W40434  11.236  10.014  11.118  0.2556  0.1850 -0.0422
23588W        W40435   7.977   4.503   0.929  0.1383 -0.0568  0.0253
23589W        W40436  19.241  16.569   1.224 -0.4884  0.1909  0.2367
23590W        W40437  18.284  17.467   9.051 -0.3504 -0.0073  0.2269
23591W        W40438  11.576   4.379  14.225 -0.0500  0.3682 -0.1786
23592W        W40439  10.920   8.420  10.300 -0.0147 -0.0962  0.1027
23593W        W40440  11.743  16.638   1.622  0.3128 -0.1287  0.1924
23594W        W40441  17.063  13.226   3.893 -0.0596 -0.1168 -0.1293
23595W        W40442  13.207   8.527   4.536 -0.1653 -0.1515  0.2175
23596W        W40443   7.376   5.991   1.948 -0.0756 -0.1509  0.0690
23597W        W40444  14.043   0.437   0.796  0.0208 -0.3497 -0.0133
23598W        W40445  18.980  19.348   0.838 -0.1182 -0.0762  0.0499
23599W        W40446   1.089  16.765   3.052 -0.2014  0.1010 -0.0008
23600W        W40447   7.460   7.567  11.681  0.0125  0.1788 -0.1483
23601W        W40448   9.476   4.651  10.039  0.0238 -0.0426 -0.0630
23602W        W40449  14.492   3.148  13.866  0.1661  0.1729  0.1390
23603W        W40450   5.417   9.848  13.737  0.1511 -0.1870  0.0490
23604W        W40451  17.386   5.032   0.401 -0.2403  0.0384  0.1426
23605W        W40452  18.081   1.074  13.341  0.0959 -0.1590  0.2750
23606W        W40453   1.101   2.136   3.987  0.0203 -0.0726  0.1507
23607W        W40454  15.388  14.172   2.919  0.1001  0.2938 -0.2091
23608W        W40455   2.737  14.163   4.224 -0.2124  0.2935  0.0237
23609W        W40456  17.346   3.695   2.829 -0.1484 -0.1688 -0.1517
23610W        W40457   1.428  12.419   5.487 -0.1831 -0.2493  0.4033
23611W        W40458  18.333  18.973   3.087 -0.2230  0.0107  0.0900
23612W        W40459   8.506   2.661   2.631 -0.0852 -0.1505 -0.0082
23613W        W40460  18.462  18.514   4.253  0.3215 -0.0312 -0.0356
23614W        W40461  16.265  10.690  13.881  0.4420 -0.0017 -0.1934
23615W        W40462  19.822   0.761  12.393 -0.2280  0.0368  0.2379
23616W        W40463  16.374  11.406   0.452 -0.3493  0.1180 -0.1298
23617W        W40464   2.887   3.642  12.019  0.0499 -0.1454 -0.2363
23618W        W40465  17.164   9.426   0.176 -0.0324  0.2052  0.1294
23619W        W40466  13.003   2.931   1.209 -0.0413  0.2651 -0.0853
23620W        W40467   7.499   9.292  11.063 -0.0678  0.0499 -0.2204
23621W        W40468   3.024  18.857  13.584 -0.1672 -0.0745 -0.0990
23622W        W40469  15.844  14.053   1.893  0.0583  0.0790  0.1126
23623W        W40470  15.430  18.770   2.354  0.1378  0.1158 -0.2045
23624W        W40471   2.403   4.681  13.623  0.0285  0.2543  0.1431
23625W        W40472   0.488  12.557   3.529  0.0127 -0.0047  0.3134
23626W        W40473  15.423  17.825   4.947 -0.1348  0.2325 -0.0979
23627W        W40474  18.536  12.540  11.801 -0.0060  0.1622  0.1445
23628W        W40475  13.361  16.582  12.472 -0.1652 -0.2439  0.1038
23629W        W40476  16.791   5.788  11.966 -0.0778 -0.2894  0.0285
23630W        W40477   5.058  11.773  10.659 -0.0282  0.0841 -0.2805
23631W        W40478  15.569  14.179   1.068  0.0503  0.0436 -0.2665
23632W        W40479   7.166  15.321   2.320  0.0122  0.2630  0.1444
23633W        W40480   4.932   2.885  11.786 -0.2691  0.1453 -0.1246
23634W        W40481   7.323   2.458  13.614 -0.0677 -0.3142  0.1409
23635W        W40482   1.665   0.698  11.279 -0.0987 -0.3231  0.1676
23636W        W40483   7.685  15.228  10.620 -0.1749  0.2531 -0.1311
23637W        W40484   1.481   9.814   4.355 -0.0155  0.3429  0.1139
23638W        W40485   3.257   3.481  13.345  0.1015  0.1630 -0.4020
23639W        W40486   3.889   1.191  12.890 -0.2797 -0.1541  0.1537
23640W        W40487  17.431  14.096   4.670 -0.2671  0.0029  0.1569
23641W        W40488   5.620  14.313  10.936 -0.0481  0.0762 -0.3641
23642W        W40489   7.870   3.166   3.973 -0.4542 -0.2773  0.0218
23643W        W40490  12.144   0.938  14.005 -0.1589 -0.1548 -0.0712
23644W        W40491  18.927   1.802  10.495  0.1279 -0.0287  0.0985
23645W        W40492  12.247   2.354   1.231  0.0359  0.1464  0.2615
23646W        W40493  17.768  12.211   2.423  0.0320  0.1478  0.1192
23647W        W40494   5.357   6.484   2.184 -0.2140 -0.1438  0.0255
23648W        W40495  17.310  17.673   3.507 -0.0644 -0.2763 -0.2988
23649W        W40496  15.286   5.771  11.420 -0.2377  0.1638  0.1207
23650W        W40497  10.035  18.334   2.250 -0.1341  0.0403  0.0488
23651W        W40498  14.802  19.217   4.413 -0.3145 -0.1017  0.0100
23652W        W40499   8.315   4.550  14.207  0.0622  0.0201  0.1849
23653W        W40500   6.797  16.372   4.029 -0.2181 -0.4030  0.1276
23654W        W40501  17.711  16.174   1.819  0.2195 -0.1015 -0.4233
23655W        W40502  15.721   5.100  14.039  0.3864 -0.1999 -0.0540
23656W        W40503   0.187  11.129   0.067 -0.1523  0.0353  0.2899
23657W        W40504  11.060  16.447  13.819  0.0343  0.1179 -0.0289
23658W        W40505   5.127   2.599  12.172 -0.0387 -0.1104 -0.1355
23659W        W40506   7.129  15.093   3.736  0.1952  0.0602 -0.0876
23660W        W40507  10.840   4.678  11.019  0.0861  0.0727 -0.2661
23661W        W40508  12.288   6.082   4.157  0.2141 -0.3365 -0.1906
23662W        W40509  15.955  15.522   2.291 -0.2258  0.1507  0.2551
23663W        W40510  17.103   5.214  10.141  0.2671  0.0547  0.3913
23664W        W40511   7.499  18.159  10.850  0.1751 -0.0496  0.3650
23665W        W40512  13.884  12.353   1.127  0.2338  0.0614 -0.0382
23666W        W40513   7.449   7.846   1.273 -0.0248  0.2457 -0.1554
23667W        W40514   9.720  11.735  11.690  0.0845 -0.2517  0.0667
23668W        W40515  17.526   1.607   3.481 -0.0695  0.2803 -0.0877
23669W        W40516   4.709  18.355   4.375  0.3522 -0.2323  0.0561
23670W        W40517   0.300  15.951  10.544 -0.1818  0.0562  0.0421
23671W        W40518  17.471   6.750  12.729 -0.2887  0.0466  0.1543
23672W        W40519  12.118   7.974  13.922 -0.0888  0.0824  0.0185
23673W        W40520   8.218   0.089  12.452  0.3449 -0.0234 -0.2223
23674W        W40521   7.031  17.245   3.510  0.2277  0.0976 -0.0635
23675W        W40522   4.686   0.932   4.699 -0.1662  0.0803 -0.3689
23676W        W40523   6.760  16.724   1.747 -0.1797  0.1815 -0.0536
23677W        W40524  17.354  14.016   3.610 -0.0578 -0.2695  0.1425
23678W        W40525  19.419   3.943  11.044 -0.0906  0.1333  0.1871
23679W        W40526   6.848   0.184  13.068  0.0797 -0.3078 -0.0695
23680W        W40527  17.313  19.661  12.025 -0.2982  0.0994  0.0697
23681W        W40528   9.595  16.711  13.465 -0.1645 -0.3085 -0.3699
23682W        W40529   0.933   9.181   3.675  0.0470 -0.2222 -0.1285
23683W        W40530  10.820   3.914   3.419 -0.0826  0.1617 -0.1089
23684W        W40531   0.221  13.099   2.498 -0.0276 -0.0091 -0.1669
23685W        W40532   9.797  18.094   1.151  0.2916  0.1090  0.0882
23686W        W40533   4.750   0.426  13.793 -0.2748 -0.3663  0.1211
23687W        W40534  16.286   6.513  10.100  0.3518  0.1445  0.4439
23688W        W40535  17.650   7.761   0.365 -0.2732  0.1209 -0.2664
23689W        W40536  19.659  16.751   1.592 -0.1560 -0.0194  0.0314
23690W        W40537   2.395  13.717   5.128  0.1463 -0.2213 -0.1573
23691W        W40538  15.526  19.541  13.837  0.2179 -0.0154  0.2111
23692W        W40539  10.382  19.381   2.940  0.0304  0.1284  0.3731
23693W        W40540   8.578  19.207  11.899  0.2464  0.0158 -0.1423
23694W        W40541  13.053   1.996   3.008 -0.0023  0.2929 -0.1843
23695W        W40542   1.047  19.135   1.637  0.0482  0.3576  0.2237
23696W        W40543   6.159   2.375   1.477 -0.0254  0.0215 -0.1294
23697W        W40544   6.018  15.922   0.701 -0.2250  0.1164 -0.2263
23698W        W40545  13.911  16.303   4.741  0.3793 -0.2690  0.3688
23699W        W40546   1.790  15.231   2.001  0.2826  0.0555 -0.2200
23700W        W40547  16.433   6.803   3.968 -0.0613  0.1570 -0.1947
23701W        W40548   1.384  13.811   3.303 -0.1305  0.2679  0.1788
23702W        W40549   9.853  17.674   3.830 -0.0565  0.0209 -0.0740
23703W        W40550   1.037  11.343   4.588 -0.1026 -0.0810 -0.0336
23704W        W40551  14.269   6.134   1.383  0.1098  0.1575  0.0086
23705W        W40552  13.267  12.254  10.205 -0.1547 -0.0071  0.2939
23706W        W40553  11.945   2.872  13.121 -0.1687 -0.2197 -0.1894
23707W        W40554   1.351  14.454   1.690  0.0496 -0.1424 -0.2586
23708W        W40555   9.263  14.576  14.124  0.2390 -0.1573 -0.2057
23709W        W40556  16.483   7.300   2.243  0.2947  0.1676 -0.1031
23710W        W40557   1.017  14.742  12.260 -0.3602 -0.0623  0.1602
23711W        W40558  15.853   1.759   0.661 -0.0378 -0.1261  0.0790
23712W        W40559   9.296  18.886  14.016 -0.0795 -0.6606  0.2410
23713W        W40560   9.638   0.094   5.294 -0.0187 -0.1230 -0.0291
23714W        W40561  13.710  18.183   5.043 -0.0305  0.1728  0.0754
23715W        W40562  17.875   5.805  10.316 -0.0820  0.3478 -0.1312
23716W        W40563   1.421  16.992   2.810  0.0131  0.1949 -0.3668
23717W        W40564   2.907   2.790  11.632 -0.0521  0.5186 -0.0185
23718W        W40565   6.342   4.944  13.091 -0.0405 -0.0689 -0.0566
23719W        W40566  12.495  15.158  10.828  0.1665 -0.1929 -0.1024
23720W        W40567   5.868  14.993   1.548  0.0647 -0.1252  0.3123
23721W        W40568   1.388   0.830  11.964 -0.0989 -0.0274  0.0370
23722W        W40569  18.007   1.412  12.549 -0.0206 -0.0443  0.3697
23723W        W40570  17.253  17.740   0.591 -0.2761  0.0803  0.0690
23724W        W40571   5.852   8.576   3.077  0.1492 -0.1221  0.0258
23725W        W40572  19.213   6.575  13.968 -0.2382 -0.0017 -0.1270
23726W        W40573   3.595   0.054  12.084 -0.0694 -0.0128  0.0071
23727W        W40574   9.946   0.211   2.629  0.1577 -0.1198 -0.1829
23728W        W40575   3.011  10.541   2.170 -0.1598  0.3841 -0.0991
23729W        W40576   6.462  17.082   9.739 -0.0737 -0.4144  0.0361
23730W        W40577   4.198   3.790   3.723  0.4009 -0.1301 -0.1171
23731W        W40578  14.597  16.212  11.554  0.0241 -0.0721 -0.1627
23732W        W40579  14.520   3.245  12.979 -0.1839 -0.0421 -0.3623
23733W        W40580   4.537   1.712   4.089 -0.0992  0.1338  0.1747
23734W        W40581  18.404   4.993  10.552 -0.2213  0.1394  0.2583
23735W        W40582  18.388   0.665  10.816 -0.2886  0.3470 -0.3559
23736W        W40583   1.941   1.354   3.032  0.1585  0.1818  0.4124
23737W        W40584   1.693  12.276   3.629  0.2375 -0.1864  0.2368
23738W        W40585  11.359   7.007   3.286  0.1987  0.2158  0.4065
23739W        W40586  10.515  17.818   3.700  0.3032  0.1777 -0.0948
23740W        W40587   6.495   9.017  13.039  0.1013  0.0726 -0.0572
23741W        W40588   4.794  12.826   2.001  0.1761  0.0110  0.0449
23742W        W40589  19.534   1.968   3.407  0.0449 -0.1573  0.0614
23743W        W40590  14.134   7.586  12.705 -0.3483  0.1451  0.0151
23744W        W40591  18.244  11.352  12.677  0.0227  0.0016 -0.3566
23745W        W40592  18.780  13.378   0.455  0.0772  0.0660  0.1588
23746W        W40593   3.955  19.429   4.583 -0.1759  0.0096  0.2163
23747W        W40594  16.457   1.414   2.324 -0.0358  0.0793 -0.0504
23748W        W40595   9.066  15.992  13.038 -0.0233  0.0633  0.1594
23749W        W40596  12.377  11.369   0.119 -0.2636 -0.5924 -0.0583
23750W        W40597  15.269  11.742  12.978 -0.0400 -0.2512  0.0764
23751W        W40598   6.146   6.558  12.784 -0.1476 -0.0630  0.4262
23752W        W40599   6.368  19.599  10.985  0.2280 -0.1637  0.1754
23753W        W40600   6.524   7.282   0.425  0.0527  0.0933 -0.3425
23754W        W40601  14.968  17.921  13.341  0.0050 -0.0918  0.1314
23755W        W40602  17.831  17.527  12.798  0.0818 -0.1392  0.0897
23756W        W40603   5.137  11.313  13.314 -0.2533 -0.1595  0.4573
23757W        W40604  11.754  12.295  10.296  0.1099 -0.0567 -0.3288
23758W        W40605   6.805   4.981   1.374 -0.2575  0.1042  0.1728
23759W        W40606  15.468  12.901   1.330 -0.4159  0.1959  0.1052
23760W        W40607  17.319   0.955  12.953  0.0429  0.2976 -0.1584
23761W        W40608   3.693  14.994  10.644 -0.1444  0.1452  0.2371
23762W        W40609  17.481  16.836  11.930  0.1608  0.1706  0.1986
23763W        W40610   7.983   4.440   3.816  0.2213 -0.3500 -0.2162
23764W        W40611  12.180  18.560  13.682 -0.0951  0.3178  0.4118
23765W        W40612   8.814  18.844  13.455 -0.0943  0.0539 -0.0596
23766W        W40613   2.924   9.571   5.436  0.2649  0.2263 -0.1151
23767W        W40614  18.008  14.929   1.827  0.0674 -0.0564  0.0189
23768W        W40615   5.344  14.432   3.512  0.0997 -0.0115  0.1155
23769W        W40616  16.598   4.942  12.971 -0.1508  0.1447 -0.0847
23770W        W40617  12.989  13.914   4.275 -0.3851 -0.0071 -0.3406
23771W        W40618   9.917   9.754  12.975  0.2754  0.0640 -0.0817
23772W        W40619  18.003  15.402  12.898  0.4907 -0.0143  0.1069
23773W        W40620   5.307  19.407   1.066  0.0627  0.1624 -0.1881
23774W        W40621  11.133  16.749  11.073 -0.2772  0.1102  0.2514
23775W        W40622  10.312   0.792   4.232  0.4035  0.2694 -0.0034
23776W        W40623   3.216   9.386   3.736 -0.1541  0.1655 -0.0234
23777W        W40624  13.978  15.446   1.620 -0.2842  0.2355 -0.1072
23778W        W40625  17.306   2.304  11.632 -0.1325 -0.2580  0.1784
23779W        W40626   6.883  17.959  10.808 -0.0396 -0.0721  0.0591
23780W        W40627  13.595   0.155   1.527 -0.3186 -0.3853  0.0180
23781W        W40628   4.062   4.501  13.607 -0.1117  0.2729  0.1383
23782W        W40629  15.848   5.392  10.271 -0.0354  0.1287  0.2233
23783W        W40630   8.422   0.231   9.844  0.3336  0.1971 -0.4161
23784W        W40631  18.388   4.616  11.397  0.0618  0.1668 -0.4839
23785W        W40632   7.122  18.788   2.696 -0.2837 -0.1487  0.3632
23786W        W40633   8.603  10.442   1.208 -0.0275 -0.2132  0.2196
23787W        W40634  16.913   2.670  11.469  0.2009  0.1639  0.1521
23788W        W40635  18.207   0.084   2.965 -0.2493 -0.1241 -0.0165
23789W        W40636   9.272   8.693   5.036  0.1430 -0.1629 -0.0350
23790W        W40637  10.789   9.574   8.979  0.0841  0.2599  0.0115
23791W        W40638  18.585  18.952   9.393  0.0190 -0.0276  0.0990
23792W        W40639   1.051  14.269   2.047 -0.1050 -0.0811 -0.1089
23793W        W40640   4.281   4.206  12.519 -0.2185  0.0112 -0.0602
23794W        W40641  11.121   0.179  12.317 -0.1744 -0.0502  0.0279
23795W        W40642  16.176   0.096  13.333 -0.0465 -0.0517 -0.0463
23796W        W40643  12.565   1.821  11.682 -0.2199 -0.0792  0.0295
23797W        W40644  15.938   9.892   1.969  0.1830  0.0613  0.2043
23798W        W40645  11.952   9.987   0.142 -0.2140 -0.0033  0.1266
23799W        W40646   3.020  14.569   3.404 -0.2441  0.1793  0.0563
23800W        W40647  19.862   3.278  13.951  0.0056 -0.3639  0.0136
23801W        W40648   3.417  19.470   5.310 -0.0566 -0.2469  0.0764
23802W        W40649   5.704  17.707  13.363  0.0573 -0.0389  0.1278
23803W        W40650  15.860   6.544  11.622 -0.2360 -0.0333  0.2022
23804W        W40651   7.659   2.578  13.094 -0.1729  0.0659  0.1828
23805W        W40652   2.026   6.738   0.347 -0.0515 -0.1203 -0.0608
23806W        W40653   0.898  19.014  13.290 -0.1585 -0.0168  0.2832
23807W        W40654  11.166   3.834  13.987  0.1849 -0.1943 -0.2978
23808W        W40655  16.307   2.823   1.017 -0.0406  0.0641  0.1043
23809W        W40656   5.128  14.893   1.119 -0.1136 -0.0617  0.0556
23810W        W40657   4.333   8.009   0.798  0.1299  0.1350 -0.0170
23811W        W40658   9.907   1.008   9.993 -0.1161  0.3261 -0.1800
23812W        W40659  15.483   0.839  10.130  0.0578  0.3062  0.0948
23813W        W40660  14.468  10.779   2.210 -0.1343  0.3133 -0.3369
23814W        W40661   0.624  17.800   0.271 -0.1733 -0.1092  0.1405
23815W        W40662   0.072   2.416  10.082  0.1946 -0.0248 -0.1325
23816W        W40663  10.070   2.764   2.326  0.3471 -0.0597  0.4439
23817W        W40664  10.873   5.315   0.879  0.3414 -0.1278 -0.2812
23818W        W40665   2.111   8.035  13.025  0.0231 -0.1400  0.0858
23819W        W40666  19.656  14.918   2.081  0.1322  0.0454  0.0650
23820W        W40667   3.608  16.236   1.368 -0.0910 -0.1998  0.1099
23821W        W40668   7.308  12.648  11.613  0.0150  0.0065  0.0507
23822W        W40669   5.503   6.704   2.942  0.0134 -0.0115 -0.1369
23823W        W40670  10.744   0.940   1.067  0.0299 -0.0862 -0.2640
23824W        W40671  14.743  14.127   4.272  0.2771  0.2708 -0.0276
23825W        W40672   6.659  12.414  10.966  0.0165 -0.2381 -0.1083
23826W        W40673   4.442   8.834  11.252 -0.3292  0.5201 -0.3660
23827W        W40674  19.240   9.082   1.165 -0.1604 -0.0638 -0.0898
23828W        W40675   3.284   4.209  10.472  0.1147 -0.0772  0.1387
23829W        W40676   7.215  13.227   9.445  0.1866 -0.1454  0.1952
23830W        W40677   2.127  17.223  12.907 -0.0778  0.1225  0.4376
23831W        W40678   6.577  11.852  11.722 -0.1319  0.3841  0.2434
23832W        W40679   5.628  16.171  14.116 -0.0692  0.1173  0.0123
23833W        W40680  17.887  15.040  13.245  0.0002  0.1848 -0.2480
23834W        W40681   1.290  17.827   2.388 -0.3197 -0.1252  0.2986
23835W        W40682  17.387   1.883   2.307  0.1074 -0.2551 -0.2103
23836W        W40683   0.638  13.250   4.139  0.0568  0.2018  0.3421
23837W        W40684  10.149  13.940  12.240  0.1892 -0.5041 -0.0262
23838W        W40685  12.938   1.056  10.829  0.1386  0.1878  0.0878
23839W        W40686   3.289   1.675  13.062 -0.5047  0.1175 -0.0983
23840W        W40687  11.269  18.691   4.347 -0.2130 -0.1671 -0.0912
23841W        W40688   3.603  14.066  11.576  0.3392  0.3764 -0.4960
23842W        W40689   0.804   6.867   2.049  0.1227 -0.0351 -0.0290
23843W        W40690   1.563   5.847   3.237 -0.1128  0.0097  0.0538
23844W        W40691   4.385   6.062   3.383 -0.1340  0.0327  0.0515
23845W        W40692  18.541   2.768   1.285  0.1344 -0.0831 -0.2462
23846W        W40693   7.078  11.319  12.065 -0.0169 -0.1077 -0.2197
23847W        W40694   7.562   6.296   1.027 -0.1680 -0.0376  0.3042
23848W        W40695  15.623  13.779   0.365  0.3044  0.1779  0.0716
23849W        W40696  15.708   2.937   4.054 -0.3119  0.3974 -0.2270
23850W        W40697  14.247  19.291  10.337  0.0070  0.1125  0.3159
23851W        W40698  11.746   2.485  14.171 -0.2512 -0.0027  0.1086
23852W        W40699  19.672   8.948   3.811 -0.0998 -0.1901 -0.0577
23853W        W40700   7.266   4.408   4.324  0.1853 -0.0737 -0.4151
23854W        W40701   2.101  16.951  11.858 -0.0668 -0.0699  0.1366
23855W        W40702  17.865   3.716   4.751  0.2047 -0.1372  0.2488
23856W        W40703  10.434  13.205  12.718  0.0244 -0.0758 -0.2991
23857W        W40704  15.361  14.974  10.591 -0.1210 -0.1075 -0.1905
23858W        W40705   6.711   2.129  12.014 -0.1942 -0.0434 -0.2032
23859W        W40706   1.790  19.415  13.166  0.2690  0.0793 -0.0157
23860W        W40707  14.508   3.288  12.103 -0.1592 -0.1102  0.0426
23861W        W40708  19.689  15.024  11.894 -0.3751  0.4289  0.2403
23862W        W40709   3.169  14.824  10.640 -0.2730 -0.0674 -0.2213
23863W        W40710   3.818  17.695   1.074 -0.0229 -0.1374 -0.2303
23864W        W40711  16.231  15.450  13.889  0.0328  0.0926 -0.4456
23865W        W40712   2.457   1.011  11.572 -0.1669 -0.2898  0.0873
23866W        W40713   0.074   0.593   3.700 -0.3855 -0.0084  0.4124
23867W        W40714  13.705  16.987   0.369 -0.0794 -0.3132  0.0647
23868W        W40715  19.300  15.200   0.923  0.1292  0.0522 -0.1280
23869W        W40716  13.327   7.475   4.510 -0.2825 -0.0898  0.5089
23870W        W40717  12.188   8.782  10.758  0.0024  0.1687 -0.0838
23871W        W40718  19.311   2.374   3.270  0.1638 -0.0715 -0.0947
23872W        W40719   0.108   6.831   3.730  0.0602 -0.0334 -0.2851
23873W        W40720   3.002  17.328   0.859  0.0837 -0.0235  0.0525
23874W        W40721   7.295   5.550  10.244  0.0623 -0.0269  0.2765
23875W        W40722   4.697  16.687   9.951  0.1397 -0.0772 -0.1027
23876W        W40723  17.420  19.699   1.674 -0.4141  0.1844 -0.3147
23877W        W40724  18.297   6.293   2.373 -0.2981 -0.2090 -0.1236
23878W        W40725  19.638  11.595   1.773 -0.5820  0.2142  0.2721
23879W        W40726   7.057  12.029   5.613 -0.3545 -0.1207  0.0814
23880W        W40727   8.753  17.417   0.636  0.1770 -0.3015  0.0024
23881W        W40728  18.677   0.580   4.443 -0.3610 -0.0265 -0.0433
23882W        W40729  18.927  11.173   2.219  0.2678  0.3688  0.3025
23883W        W40730   5.872  10.179   0.430 -0.2000  0.2331  0.0156
23884W        W40731   6.939   8.170  12.839 -0.1310 -0.4135  0.3454
23885W        W40732  17.552   2.958  11.029  0.3850  0.2029 -0.2638
23886W        W40733  10.482  12.042  10.567 -0.1976 -0.0159 -0.0379
23887W        W40734  11.676  11.621   3.391 -0.2560  0.3155 -0.1475
23888W        W40735  19.815   9.016  12.502 -0.1613 -0.1079 -0.0198
23889W        W40736   5.601   9.320   0.699 -0.2982  0.0281 -0.0421
23890W        W40737   7.486  12.084  12.918 -0.0667  0.3959  0.0295
23891W        W40738  14.505   2.731   2.050 -0.0725 -0.1858 -0.1310
23892W        W40739   8.643   2.410  12.420 -0.2742 -0.0278 -0.2950
23893W        W40740   9.995   6.560  11.903 -0.1809 -0.2230  0.1068
23894W        W40741  16.320   9.789   2.272  0.1697  0.1529  0.1563
23895W        W40742  12.261  19.173  12.341 -0.2247  0.1539 -0.1224
23896W        W40743  12.669  13.973  11.902  0.1818 -0.0779 -0.2747
23897W        W40744  19.531   8.268   2.284 -0.2284  0.2935 -0.1441
23898W        W40745   4.742   2.029  12.693 -0.0702 -0.0275 -0.1386
23899W        W40746   3.592   3.807  10.182 -0.2107 -0.4668  0.1096
23900W        W40747  12.967  13.622   9.748  0.1183  0.4114  0.1339
23901W        W40748   2.037  19.632   1.195 -0.2804  0.1255 -0.0689
23902W        W40749  10.264  19.053  11.663  0.0633 -0.2080  0.2608
23903W        W40750   7.905  14.613   0.737 -0.0054 -0.3721  0.1838
23904W        W40751  17.807  10.140  10.143 -0.0083 -0.2039 -0.2308
23905W        W40752  15.287  11.934  11.894  0.2320  0.0615  0.1860
23906W        W40753  14.538  16.459   4.835 -0.1457 -0.1218 -0.2039
23907W        W40754  13.959   9.831  10.804 -0.0421 -0.4663 -0.0368
23908W        W40755  18.502   0.500  10.256 -0.2651 -0.0317  0.2676
23909W        W40756  11.033  12.580  12.542 -0.1725 -0.1369  0.1040
23910W        W40757   4.352  13.060   2.414  0.2345 -0.2158 -0.3785
23911W        W40758  12.541   4.468  14.245  0.1811  0.2913 -0.5667
23912W        W40759  12.247   7.100  13.125  0.0887  0.1174  0.2541
23913W        W40760   9.129   0.244  11.505 -0.2000  0.0716  0.2233
23914W        W40761  11.381   7.316   9.975 -0.1240  0.0328  0.1364
23915W        W40762  11.557  14.131   0.460 -0.2365  0.0853 -0.1217
23916W        W40763   9.372   7.144   2.427  0.0400 -0.1011 -0.0015
23917W        W40764   4.944  15.522   4.226 -0.2905  0.1837  0.1726
23918W        W40765  11.755   1.519  11.358 -0.0390 -0.2583  0.2687
23919W        W40766  19.506  15.439   0.069  0.4698  0.3957  0.0975
23920W        W40767  12.199   9.527   9.491  0.0567 -0.1365 -0.0904
23921W        W40768   7.032   9.864   3.212  0.1298  0.0914 -0.0939
23922W        W40769  12.197   2.624  12.145  0.1586  0.0863 -0.0385
23923W        W40770   0.257   5.960   1.664 -0.0219  0.0435 -0.1302
23924W        W40771   2.230  13.291   3.993 -0.2760 -0.0540  0.2668
23925W        W40772  10.844  12.566   0.953 -0.0262 -0.3531 -0.1340
23926W        W40773   0.217  16.840  10.408 -0.0823 -0.1690  0.3197
23927W        W40774   6.708  18.019  11.338  0.1860  0.0689  0.2835
23928W        W40775   2.740  19.600   3.566 -0.0359 -0.1969  0.0408
23929W        W40776  14.531   5.608   0.703  0.1640  0.0621  0.1299
23930W        W40777  12.830  12.801   4.649  0.1321  0.0800  0.0530
23931W        W40778   7.192   5.505   4.377  0.1768  0.1386  0.0141
23932W        W40779   8.231  10.662  11.678 -0.0188 -0.3575 -0.5355
23933W        W40780   9.828  10.634   4.188 -0.1204 -0.0339  0.0307
23934W        W40781   0.312   2.437   3.833  0.2937 -0.2957 -0.0882
23935W        W40782  14.924  13.440   2.007  0.2873  0.6389  0.2311
23936W        W40783  14.693  18.842  13.277 -0.2049 -0.1312 -0.2558
23937W        W40784   2.238  16.645  11.393  0.3433  0.0766  0.2426
23938W        W40785   9.684  16.280   0.633  0.2621 -0.0993 -0.2959
23939W        W40786   2.891  14.707   2.608 -0.0094  0.0984  0.1421
23940W        W40787  14.439  18.306   1.909  0.0636 -0.2686  0.1197
23941W        W40788  18.270   5.937   0.726  0.0392 -0.0647  0.0917
23942W        W40789  15.896  19.824  11.044 -0.0434  0.0427  0.1125
23943W        W40790   2.334  16.131   3.835  0.1203  0.0017 -0.2105
23944W        W40791   3.109  18.658  13.172 -0.2676  0.2888 -0.1483
23945W        W40792   2.265   1.795  12.752 -0.2028 -0.0963 -0.3301
23946W        W40793   1.577  11.784   5.436 -0.1268  0.1120  0.1020
23947W        W40794   9.769   5.203   2.431  0.0603  0.0594 -0.3290
23948W        W40795  17.566   6.890   0.435  0.2254 -0.3550 -0.3038
23949W        W40796   0.479  12.669  14.024 -0.1182 -0.0744  0.4180
23950W        W40797   1.846  13.198  12.095 -0.0908 -0.2280 -0.3468
23951W        W40798  11.127   9.173  13.098 -0.0771  0.0605 -0.2915
23952W        W40799   3.842  17.036   2.188  0.1727  0.4131 -0.1370
23953W        W40800  11.450  16.040  13.138 -0.1845 -0.2423  0.0470
23954W        W40801  18.189  12.782   1.510 -0.2837 -0.1260 -0.2233
23955W        W40802   3.521  14.675  11.988  0.1268  0.1947  0.0396
23956W        W40803   3.941   3.194  13.333 -0.1701 -0.2482  0.3624
23957W        W40804  12.200   1.086   2.497 -0.0489  0.2632  0.2414
23958W        W40805  16.438   1.692   4.929  0.0119  0.3990 -0.4251
23959W        W40806  10.685   0.446  10.026  0.1890 -0.0687 -0.1472
23960W        W40807  17.154   8.878   3.171 -0.2793 -0.2777  0.0257
23961W        W40808  14.010   6.602  11.948  0.3125 -0.0537  0.0111
23962W        W40809  19.722   4.581   4.335  0.0811  0.3193 -0.1020
23963W        W40810  11.643  17.944   5.100 -0.2004 -0.0201  0.0134
23964W        W40811   3.736   3.641   1.454  0.0020 -0.1442  0.0891
23965W        W40812  15.127   6.250   5.043 -0.2464  0.1248  0.0503
23966W        W40813   6.841   8.533   0.470 -0.0655  0.2088 -0.1802
23967W        W40814   6.576  18.981  13.413  0.0444  0.1008 -0.0243
23968W        W40815   0.750  18.587  10.023  0.0998 -0.0676 -0.0507
23969W        W40816  13.122  13.790  12.697  0.1784  0.1411  0.0476
23970W        W40817   9.781  19.069   9.912  0.1299  0.0630 -0.3918
23971W        W40818   2.224   4.344  11.860  0.0480 -0.0805 -0.1896
23972W        W40819  15.344  19.195   4.509 -0.4527 -0.2065 -0.0168
23973W        W40820  11.565  12.173   1.133  0.3100 -0.1166 -0.1213
23974W        W40821  18.675   2.805   1.739  0.2965  0.3796 -0.0575
23975W        W40822   3.038   0.886  12.506  0.2541  0.2070 -0.4233
23976W        W40823  18.321   3.122  13.905 -0.4765  0.1241  0.0976
23977W        W40824  14.313   0.975   3.884  0.2653 -0.3324  0.1483
23978W        W40825  18.281  12.181   1.552  0.2217  0.2426  0.2493
23979W        W40826   6.344  12.710  10.283 -0.5198  0.1640 -0.1488
23980W        W40827  10.490   6.935  11.636  0.0413  0.1103  0.1042
23981W        W40828   1.655  14.916   0.802 -0.2396 -0.0772 -0.1079
23982W        W40829  18.536  17.471   0.479  0.1014 -0.2537 -0.2187
23983W        W40830   0.358  15.577   1.824  0.3579 -0.4719 -0.1110
23984W        W40831   2.142  17.862  10.853  0.0146  0.1501 -0.0532
23985W        W40832  10.975  17.286   5.356 -0.1442 -0.2132 -0.0862
23986W        W40833  12.473   5.960  11.772  0.3213  0.3801  0.1036
23987W        W40834   3.756   0.780   1.641  0.0183 -0.2462  0.0838
23988W        W40835  16.007  16.094   2.435  0.0945  0.1212 -0.2720
23989W        W40836  10.716   0.321  11.361 -0.2568  0.3052  0.0172
23990W        W40837   2.509   4.941  13.223  0.1345 -0.3993  0.0963
23991W        W40838  18.818   7.101  10.552  0.0560  0.0058 -0.0064
23992W        W40839   9.060  12.089   2.510  0.0197  0.0865 -0.0780
23993W        W40840   9.113  18.102   9.814  0.1568  0.3316 -0.0372
23994W        W40841   2.372  17.303   4.888  0.2217  0.0376 -0.2534
23995W        W40842  15.161  12.905  11.453  0.0749 -0.3340  0.1946
23996W        W40843   0.572   7.501   0.870  0.0598  0.0299 -0.0537
23997W        W40844  11.628   7.167  12.412 -0.2100 -0.0172  0.1088
23998W        W40845  14.190   5.225   0.837  0.0279 -0.2276  0.3160
23999W        W40846  18.626  16.267  11.906  0.1257  0.0724 -0.2418
24000W        W40847   1.208  17.407  10.747  0.3925  0.2215  0.1508
24001W        W40848   1.557  19.549  11.019 -0.0174  0.1694  0.2386
24002W        W40849   7.382   3.541  12.194 -0.1282  0.0775  0.1011
24003W        W40850   0.353   5.861   0.276  0.1728  0.0718 -0.0276
24004W        W40851  17.266   7.539   1.750 -0.1132  0.0694  0.0198
24005W        W40852  10.498   7.262  11.206 -0.0986 -0.0288  0.1096
24006W        W40853  14.140   7.958  10.317  0.2872  0.0226  0.0317
24007W        W40854  11.971   3.271   1.930 -0.1734  0.0533 -0.0801
24008W        W40855   7.556   4.069  11.316 -0.0653  0.3172 -0.1898
24009W        W40856  10.984   1.857  13.187  0.1934  0.0831  0.0703
24010W        W40857   7.235  12.848  13.140  0.1856 -0.0626  0.0176
24011W        W40858   3.575  12.777  10.695  0.2377 -0.1594 -0.0098
24012W        W40859   7.231   0.543  13.835  0.1308 -0.2334  0.1968
24013W        W40860   2.823  17.004   2.021  0.0570  0.1230 -0.1512
24014W        W40861  12.778  19.397   3.177  0.2322  0.2735 -0.0274
24015W        W40862   5.436  15.199   1.393  0.2037  0.0256 -0.1454
24016W        W40863   0.002   0.842  12.898 -0.1311  0.2352  0.0865
24017W        W40864  10.991  13.120   3.963 -0.0754 -0.0250 -0.0268
24018W        W40865   0.666   2.457   4.188 -0.4131  0.0459 -0.0434
24019W        W40866   8.956   8.975   2.384  0.0772  0.1640 -0.3836
24020W        W40867   0.683  19.163  11.217  0.1763  0.0951 -0.0968
24021W        W40868   2.444  12.334   5.424 -0.1352 -0.1161  0.2052
24022W        W40869   3.257  18.098   2.248  0.0169  0.3088  0.3144
24023W        W40870  12.591   8.734   0.554 -0.0093  0.0730  0.2445
24024W        W40871   1.883  11.504   0.141  0.1087 -0.1886  0.0320
24025W        W40872   4.773   4.202  12.578  0.1782 -0.1005  0.0946
24026W        W40873  17.864   5.503  13.123  0.2127  0.0101 -0.2244
24027W        W40874  19.599   3.807   5.269 -0.5059 -0.1575  0.0467
24028W        W40875   3.423  11.967   4.745 -0.2410 -0.1931  0.0745
24029W        W40876  17.521  11.309   2.375  0.3146 -0.0616  0.3063
24030W        W40877   5.595   9.569   3.843  0.0326 -0.1857  0.3078
24031W        W40878   3.880   9.477   2.216 -0.2775  0.1256 -0.1956
24032W        W40879  10.591   4.322   4.308  0.0864 -0.1152 -0.0343
24033W        W40880   1.309   9.211   2.750 -0.1439 -0.2174  0.0150
24034W        W40881   7.112   4.532   2.653  0.3809  0.0767 -0.3802
24035W        W40882  19.747   7.092  13.718 -0.4155 -0.0560 -0.2126
24036W        W40883  11.997   0.302  12.683 -0.0414  0.1429 -0.1436
24037W        W40884  16.696  19.370  11.918 -0.0858  0.1442  0.1234
24038W        W40885   4.396  16.834   1.529  0.0258  0.0607  0.2653
24039W        W40886  12.192  16.475  12.957 -0.1689 -0.1935 -0.1360
24040W        W40887  14.297   7.230   8.833  0.2568  0.3614 -0.0294
24041W        W40888   6.937   0.427   4.544  0.2058  0.0151 -0.1482
24042W        W40889   4.411   0.728   4.144  0.1111 -0.1259  0.0053
24043W        W40890   1.328  15.692  12.018 -0.1764 -0.0119  0.0809
24044W        W40891   4.882   9.772  14.071 -0.1149 -0.2305  0.0142
24045W        W40892  15.050   9.280   2.829 -0.1589 -0.0955  0.3431
24046W        W40893  10.519  18.686   9.897  0.1690 -0.3474  0.1602
24047W        W40894   6.514   7.093   2.089  0.1161 -0.1514  0.0972
24048W        W40895  11.649   6.316   1.867 -0.2571 -0.1200 -0.2332
24049W        W40896  18.376   0.218  12.765  0.2193 -0.0395  0.1335
24050W        W40897  17.710   6.333   2.022 -0.0808  0.0567 -0.1272
24051W        W40898  18.752  18.967   4.225  0.2543  0.0388 -0.4211
24052W        W40899   4.244  18.033   2.827 -0.1141 -0.1587 -0.1902
24053W        W40900  11.170   2.522  11.979 -0.1723  0.2474 -0.0467
24054W        W40901  17.400   1.040  11.995  0.1465 -0.5280  0.2665
24055W        W40902  19.550   4.756  13.219 -0.0464 -0.2421  0.2152
24056W        W40903  15.366   6.063  13.565 -0.3056  0.0314  0.1881
24057W        W40904  11.378   6.056   8.559  0.1241  0.1623  0.1223
24058W        W40905  13.904   6.595  13.842 -0.3483  0.2717  0.2031
24059W        W40906  19.228   6.995  13.615  0.1774 -0.4728  0.1098
24060W        W40907   4.703  15.820   3.186  0.1886 -0.1422 -0.2740
24061W        W40908   0.106  12.955  10.862 -0.3578  0.1242  0.2253
24062W        W40909  15.137  11.694   0.414 -0.0664  0.2183 -0.0820
24063W        W40910  16.001   4.491   0.536  0.0411 -0.2323 -0.1670
24064W        W40911   0.679  13.988   0.619  0.1436  0.0876  0.0087
24065W        W40912   6.887  17.868  11.913 -0.0000  0.0799 -0.0717
24066W        W40913   4.158   7.261  13.862  0.2723  0.0557  0.1919
24067W        W40914   2.830  17.489   1.263 -0.3318 -0.0866  0.2371
24068W        W40915  13.665  11.973   0.018  0.0569  0.0091 -0.1091
24069W        W40916   9.725  10.791  13.960 -0.2123  0.1471 -0.0052
24070W        W40917  16.952  18.804   2.530 -0.1027 -0.0099 -0.0659
24071W        W40918  14.130  11.175  12.470  0.0490  0.2374 -0.1035
24072W        W40919   2.140  18.669   3.739  0.1448 -0.3158 -0.2383
24073W        W40920   4.587  15.828   2.670  0.0732  0.1588 -0.1051
24074W        W40921   0.142  13.442  12.930 -0.0342  0.0207 -0.0060
24075W        W40922  10.342   0.033   4.155 -0.2323  0.1117 -0.0203
24076W        W40923  17.563  19.779  11.492 -0.0344 -0.0938  0.0096
24077W        W40924   2.921   0.871   2.709  0.0443  0.2836 -0.0243
24078W        W40925   1.536   9.672  11.686  0.1099 -0.2885  0.0695
24079W        W40926   2.000  18.478  12.643  0.3075  0.0572 -0.2850
24080W        W40927   7.524  16.488   0.680  0.0968  0.0923 -0.0008
24081W        W40928  17.389   4.400   1.963 -0.1638 -0.0863 -0.0778
24082W        W40929  16.129  16.941  13.000 -0.0451 -0.2144 -0.1127
24083W        W40930  10.282  14.541  13.132  0.4954  0.3862 -0.0309
24084W        W40931  14.455  11.742   0.207  0.2627  0.0808 -0.0428
24085W        W40932  15.453  10.376   3.511 -0.2468 -0.2827  0.1262
24086W        W40933  10.742  15.175  11.643 -0.3522  0.1632 -0.0581
24087W        W40934  19.530  15.156  12.873  0.0169 -0.0836 -0.2469
24088W        W40935   6.362  11.662   4.262 -0.0936 -0.0726  0.1705
24089W        W40936  12.206   8.652   2.158 -0.0890 -0.3419 -0.0327
24090W        W40937  14.724   3.155  11.564 -0.0935  0.1092  0.3519
24091W        W40938   8.943   1.642  12.799  0.1933 -0.0537  0.1719
24092W        W40939   6.404   3.069   3.795 -0.0502 -0.0228  0.0197
24093W        W40940   5.513   0.095   3.485  0.2117 -0.2373 -0.0655
24094W        W40941   1.190   9.463  13.018  0.0227  0.0260 -0.2263
24095W        W40942   9.207  16.923   4.264  0.1610 -0.0539 -0.0601
24096W        W40943  13.710  14.816   0.208 -0.3171 -0.3187 -0.1674
24097W        W40944  13.742   6.389   1.450  0.1042 -0.0117 -0.2231
24098W        W40945   5.072   7.135   3.807  0.0197  0.3596  0.2293
24099W        W40946  18.100  15.165   9.266 -0.2544 -0.0545  0.4384
24100W        W40947  13.051  19.884  10.607  0.2383 -0.0545  0.3422
24101W        W40948  12.409   9.880  13.137  0.0513 -0.3214  0.0353
24102W        W40949  13.138  18.137  13.230  0.1013  0.0474 -0.2847
24103W        W40950   1.304  18.804  11.852 -0.2885 -0.2525  0.0694
24104W        W40951  17.116   7.200   3.732 -0.0899  0.1043  0.2545
24105W        W40952  18.022  19.325   3.178 -0.0581  0.1908  0.1285
24106W        W40953  11.521   1.469   4.595  0.3487 -0.0547  0.2841
24107W        W40954  17.640  13.047  13.988 -0.1307 -0.0003 -0.1467
24108W        W40955  18.319   2.970  11.083 -0.0456  0.1642 -0.1357
24109W        W40956   1.912   5.403  14.209 -0.0379  0.4249 -0.0413
24110W        W40957  13.621   5.060  11.488  0.1322  0.1745 -0.1284
24111W        W40958   7.115  16.322  12.264  0.3408  0.1542 -0.0511
24112W        W40959  13.604   8.605   1.787  0.3625  0.0958  0.2020
24113W        W40960  17.179  11.520  11.952  0.1134 -0.3746 -0.2818
24114W        W40961  12.400  14.507   1.695  0.0929 -0.0735  0.0217
24115W        W40962  15.602  15.537  11.641 -0.1761 -0.2352 -0.2187
24116W        W40963   2.923  16.021   2.270  0.0714  0.1232  0.0267
24117W        W40964   3.971   6.759  11.611  0.1763  0.3259 -0.3144
24118W        W40965  19.320   2.189  13.567  0.3047 -0.0895 -0.2104
24119W        W40966  11.810  18.065  11.379  0.0837 -0.1364 -0.0358
24120W        W40967  12.733  18.813   3.581  0.4323 -0.0235  0.2388
24121W        W40968   5.387  14.366   0.888 -0.3334  0.1855 -0.1627
24122W        W40969   3.270   5.644   3.872  0.0182 -0.1093 -0.3693
24123W        W40970   3.307  10.378  11.211  0.2252 -0.1968 -0.0174
24124W        W40971   4.549  15.685  13.674  0.0199  0.0539 -0.0591
24125W        W40972  11.972  11.583   2.922 -0.2050 -0.0584 -0.2659
24126W        W40973   3.952  14.381   0.053  0.1634 -0.1883 -0.0694
24127W        W40974  10.982  12.790   1.395  0.2050 -0.0477 -0.1652
24128W        W40975   1.371   6.256   3.495 -0.1068  0.1868 -0.0309
24129W        W40976   5.498  15.150   0.653  0.2661  0.1653  0.2750
24130W        W40977   6.605   2.819  12.320  0.1179  0.1360 -0.0223
24131W        W40978   3.253  11.627   4.334  0.0970  0.0536 -0.0529
24132W        W40979   1.097  11.736  11.310 -0.0668  0.0488 -0.1332
24133W        W40980   1.900  18.939  13.058  0.0517 -0.0039 -0.5093
24134W        W40981  11.516  17.273   4.210  0.2525 -0.0924  0.3661
24135W        W40982  13.897   6.292   1.893  0.1702  0.2675 -0.0627
24136W        W40983  18.207   3.826   0.980  0.1398 -0.0427 -0.1499
24137W        W40984  17.778  12.151  12.288 -0.1449 -0.1067 -0.1460
24138W        W40985  18.919   5.935   2.550  0.0356  0.5064  0.0804
24139W        W40986   2.704   8.693  14.082 -0.2421  0.0719  0.4832
24140W        W40987   1.197   1.351   1.158 -0.0127 -0.2734  0.0637
24141W        W40988   2.909   7.544   4.409 -0.0245 -0.4305 -0.0622
24142W        W40989   7.777   1.019   1.475  0.0636  0.2285 -0.2247
24143W        W40990   2.901  12.450   2.615 -0.2314 -0.3641  0.2184
24144W        W40991   1.549   9.268  12.645  0.1030  0.0667  0.1363
24145W        W40992   4.757  18.691   4.835  0.0957 -0.2797 -0.0728
24146W        W40993  18.214  14.091   9.745  0.1833 -0.1005 -0.0082
24147W        W40994  14.662  11.372   1.581 -0.2237  0.0183 -0.1968
24148W        W40995   1.799   9.449   1.075  0.3404  0.0188 -0.1615
24149W        W40996  15.382  13.668   3.882 -0.0198  0.3830 -0.3349
24150W        W40997   7.355  16.469   3.291 -0.1386 -0.1210  0.1040
24151W        W40998  14.409   9.900   1.512  0.1663 -0.2338 -0.2872
24152W        W40999   7.378  18.858   0.745 -0.2665  0.3069 -0.4324
24153W        W41000  13.852   4.278  12.640  0.0766  0.0681  0.0862
24154W        W41001   6.615  12.019   2.069 -0.1052  0.0676  0.1387
24155W        W41002  13.935   3.788   9.810  0.2584 -0.1443 -0.1890
24156W        W41003  19.436   4.136   4.469  0.1042 -0.1294 -0.1489
24157W        W41004  19.116  15.685   1.599  0.1786  0.2864  0.2479
24158W        W41005   0.787  12.235  12.147 -0.2319 -0.0328  0.0417
24159W        W41006   9.157   6.076   3.416 -0.2427 -0.0289 -0.2014
24160W        W41007  14.510  17.173   3.312  0.1828 -0.2489 -0.0460
24161W        W41008   4.692   2.396   4.802 -0.0160  0.1896 -0.0083
24162W        W41009  19.532   3.374  12.529 -0.4268  0.0486 -0.2823
24163W        W41010   4.067  14.408  10.220 -0.0629  0.3177  0.2947
24164W        W41011   7.926  13.203   0.429 -0.1012 -0.1283 -0.1463
24165W        W41012   4.259   0.320  11.102 -0.2865 -0.1344 -0.0194
24166W        W41013   5.870  12.849   3.893  0.0859 -0.2358 -0.3556
24167W        W41014  18.516   7.920  14.064 -0.4277  0.1298 -0.0735
24168W        W41015   6.889  17.679   2.514  0.0854  0.0026 -0.2565
24169W        W41016  10.840  13.257   0.014  0.1321 -0.0908 -0.0927
24170W        W41017  12.633   5.610  14.069  0.3758  0.0707 -0.1794
24171W        W41018  19.408  16.042   3.898 -0.3562 -0.1647  0.1023
24172W        W41019   2.288  11.472  12.719 -0.1664 -0.1144 -0.1570
24173W        W41020  13.071  13.524   1.243 -0.2826  0.2823  0.3190
24174W        W41021   6.326   3.265  10.453  0.0700  0.2619 -0.0123
24175W        W41022  11.521  19.691   4.243 -0.2499 -0.0241 -0.1981
24176W        W41023  10.792   8.112   0.983 -0.1048  0.2210  0.1009
24177W        W41024  18.037   1.701   0.683  0.0363  0.1597  0.1097
24178W        W41025  14.964  18.581  11.779  0.2008  0.5889 -0.2385
24179W        W41026   6.274  12.126  10.909 -0.3143 -0.2560 -0.1826
24180W        W41027  14.465  10.721  12.468 -0.1982  0.0653 -0.4469
24181W        W41028  15.817  16.517   1.391 -0.1064  0.2642  0.0340
24182W        W41029   3.534   9.801   3.599  0.0156 -0.1064 -0.1128
24183W        W41030   0.385  10.938   2.466 -0.1392 -0.0191  0.0236
24184W        W41031   3.405   2.585   0.579  0.1894  0.0680  0.2541
24185W        W41032  11.569   4.342  12.277  0.0664 -0.1510 -0.0779
24186W        W41033   3.104  16.434  12.709 -0.0108  0.4974  0.0469
24187W        W41034  17.053  14.340  11.875 -0.0317 -0.1305 -0.0045
24188W        W41035   0.764  11.277   2.329 -0.0707  0.1570  0.2233
24189W        W41036  14.063  16.543   3.266  0.1626  0.0030  0.0775
24190W        W41037   0.045   1.576  10.599  0.3614  0.3344 -0.0151
24191W        W41038   5.109   4.872  13.912 -0.0921  0.1478 -0.1473
24192W        W41039  17.447   7.522   3.981  0.3838 -0.0270  0.1727
24193W        W41040   9.157  16.625   3.845 -0.0759  0.0968 -0.1297
24194W        W41041   0.012  11.727   1.362  0.1887  0.3577 -0.1413
24195W        W41042  19.804   5.822  10.018  0.1826 -0.1522 -0.1467
24196W        W41043   1.858  18.403   4.081 -0.1076 -0.0066  0.0744
24197W        W41044  10.678   2.537  13.120 -0.0597 -0.0670  0.2622
24198W        W41045   3.125   3.694  10.476 -0.0837  0.2394 -0.0853
24199W        W41046   0.598  11.361   4.189 -0.1145  0.0736 -0.1239
24200W        W41047   1.035   3.245  11.893  0.0001 -0.0764  0.1969
24201W        W41048  11.997  11.200  13.141 -0.2341  0.2269 -0.2916
24202W        W41049  17.283   3.709  10.440 -0.1188 -0.1451  0.4989
24203W        W41050  16.956   2.654  14.070 -0.1257 -0.1467 -0.3933
24204W        W41051   0.786   1.890   0.738  0.0984 -0.0114  0.2950
24205W        W41052  14.734  16.906   4.597 -0.4932  0.1588 -0.1991
24206W        W41053   1.610  13.924  12.391 -0.3029 -0.2911  0.4778
24207W        W41054  13.382   5.538   0.780 -0.1254 -0.0581 -0.1869
24208W        W41055   9.724  19.241  12.764 -0.3190 -0.0694  0.1417
24209W        W41056  17.201  13.042   2.064  0.2091 -0.2456  0.0473
24210W        W41057   2.590  11.178   1.662 -0.0287 -0.1254  0.2295
24211W        W41058  11.647   0.599  13.525  0.0423  0.0231  0.2976
24212W        W41059  10.452  13.126   5.469 -0.2556  0.2007  0.2932
24213W        W41060  11.260   1.517   0.616 -0.0674 -0.1642 -0.0415
24214W        W41061   4.897  15.150   1.966  0.1077  0.3240 -0.3547
24215W        W41062  10.908  17.506   1.955 -0.2401 -0.2099  0.0033
24216W        W41063  18.766   4.658  10.591 -0.1707  0.3972 -0.1296
24217W        W41064   8.151  14.285  13.242  0.6487  0.0745  0.2490
24218W        W41065   3.113   4.638   1.393 -0.2190  0.3466 -0.1406
24219W        W41066   5.982   6.987   1.984 -0.3136  0.1385 -0.0736
24220W        W41067   9.671  10.834  12.026  0.1755  0.0172  0.2733
24221W        W41068   4.729  18.896   9.327 -0.0184 -0.0520  0.0111
24222W        W41069  15.617   2.362   2.546  0.4373 -0.2446 -0.0176
24223W        W41070   1.958  14.183  11.169 -0.0157  0.1766 -0.2236
24224W        W41071   9.672  13.802  11.986 -0.1724  0.1773  0.1005
24225W        W41072   9.251  11.941  11.460  0.0168  0.1012  0.0316
24226W        W41073   8.145  15.209  13.802  0.0227  0.0228  0.4046
24227W        W41074   9.331  16.093   0.240 -0.2203  0.1192 -0.2092
24228W        W41075   3.360  19.145   2.381 -0.0549 -0.0512  0.0134
24229W        W41076   8.887   8.066   3.204  0.1060  0.4047 -0.1965
24230W        W41077   0.565  19.236   1.055  0.0574 -0.0954  0.0646
24231W        W41078   6.745  11.762  12.854 -0.1182 -0.0663 -0.1763
24232W        W41079  17.832  18.234  12.578 -0.1238  0.0318  0.1278
24233W        W41080  18.481   8.495   1.749 -0.3754  0.0900 -0.0304
24234W        W41081   1.416  16.150  10.942  0.0424  0.0210  0.1169
24235W        W41082   7.925   0.162   2.113 -0.2833 -0.0083  0.0786
24236W        W41083  12.095   7.169  12.245 -0.2310 -0.4159 -0.0034
24237W        W41084  10.228   2.422  12.811 -0.0444 -0.0674 -0.1728
24238W        W41085  17.130   0.715  10.977 -0.1241 -0.2892  0.1164
24239W        W41086   5.036   2.808   2.199  0.0905 -0.5426 -0.2930
24240W        W41087   0.385   1.371   3.272 -0.0004  0.2894 -0.2323
24241W        W41088  19.753   6.742   3.335  0.0556 -0.4353  0.0323
24242W        W41089  13.727  13.016  14.322 -0.1477  0.0576  0.3143
24243W        W41090   0.644   8.652  11.645 -0.1967  0.2655 -0.1040
24244W        W41091   8.999  18.142   2.379 -0.0213 -0.0533  0.1680
24245W        W41092   2.696   8.341  10.624 -0.0671  0.2326  0.1123
24246W        W41093   3.458  19.470   1.560  0.4318  0.0757 -0.2083
24247W        W41094  16.731   0.885  12.749  0.1226 -0.2765 -0.2190
24248W        W41095   8.436   0.191   4.423 -0.0651 -0.1059 -0.1376
24249W        W41096   9.195  12.535  12.857 -0.0924 -0.1827  0.1495
24250W        W41097  12.749   2.850   3.424  0.1513  0.0029 -0.0676
24251W        W41098   6.035  12.863   1.873  0.0586 -0.1217  0.0448
24252W        W41099  19.508  19.580   3.315 -0.3317 -0.2991  0.0034
24253W        W41100  15.122   1.233   4.846  0.3514 -0.0742 -0.2737
24254W        W41101  13.596   5.807   3.926  0.2279 -0.2019 -0.2728
24255W        W41102  17.592  11.722  13.322 -0.1586 -0.1008  0.2157
24256W        W41103  18.380  12.364   4.693  0.2257  0.1120  0.1569
24257W        W41104  17.133   6.137   1.525 -0.0324  0.2058 -0.1887
24258W        W41105  14.435   0.980  12.028 -0.0760  0.2144 -0.1228
24259W        W41106   1.316  12.826   0.224 -0.1021  0.2709 -0.0656
24260W        W41107   8.814   4.858   0.633  0.2822  0.3589 -0.0751
24261W        W41108  15.475   3.274  14.150  0.1600 -0.0295  0.1258
24262W        W41109   7.103  17.771   0.045 -0.2303  0.2891  0.1316
24263W        W41110  11.792   3.387   1.352  0.0637  0.0803 -0.1620
24264W        W41111  16.129   7.635   1.234  0.0606  0.0663 -0.3013
24265W        W41112   1.551  18.515   3.694  0.0529 -0.0137  0.0291
24266W        W41113   1.573  18.923   3.208 -0.0001 -0.0049  0.0523
24267W        W41114   0.288   2.759   4.334  0.1000 -0.1279  0.0590
24268W        W41115  19.170   3.503  13.882 -0.2477  0.1651 -0.0634
24269W        W41116  10.080  10.098  11.054  0.1339  0.1836 -0.0651
24270W        W41117   1.778   9.129   3.075  0.0905  0.0282  0.0975
24271W        W41118   4.829  17.114   0.260  0.0138 -0.2116  0.3625
24272W        W41119   2.560  19.852   3.965  0.1590 -0.1162 -0.2512
24273W        W41120   6.119  15.551  13.865 -0.1067  0.0811 -0.0796
24274W        W41121   9.295   2.788  10.469  0.1303 -0.0248  0.2037
24275W        W41122   0.901   5.089  10.530  0.0185  0.0308  0.2795
24276W        W41123   0.459  16.863   2.673 -0.1486  0.1088  0.0903
24277W        W41124   2.360   4.678  10.167 -0.1544  0.2654 -0.2745
24278W        W41125   4.282  18.158  12.492 -0.1449 -0.1443 -0.4071
24279W        W41126  18.010  10.938   4.631 -0.3265  0.1543  0.1777
24280W        W41127  17.505  14.914  12.987  0.0061  0.0420 -0.0425
24281W        W41128   7.631  11.297  12.908  0.1359  0.1272 -0.0898
24282W        W41129   9.380   2.474  10.981  0.3084 -0.1748  0.0794
24283W        W41130   0.411   2.305   4.755  0.1518 -0.0265  0.1976
24284W        W41131   6.184  17.507   3.648  0.0524 -0.2225  0.1214
24285W        W41132  10.679  14.783   1.916  0.1579 -0.1649  0.2709
24286W        W41133  18.596  14.996   2.851  0.0177 -0.2381 -0.1614
24287W        W41134   5.958  13.665   1.061 -0.1257 -0.1979 -0.0227
24288W        W41135   1.983   1.187  12.865  0.2276  0.1797 -0.1306
24289W        W41136   3.572  14.004  12.128 -0.0657 -0.0146 -0.1639
24290W        W41137   7.370  14.461  11.647 -0.2795  0.2587 -0.1972
24291W        W41138   8.803  16.955  13.646 -0.3037  0.0406  0.0046
24292W        W41139   0.635   2.446  12.775 -0.2141  0.2450 -0.0033
24293W        W41140  14.122   9.517   0.220  0.0939 -0.0597  0.0999
24294W        W41141  19.096   7.299  12.940  0.2712  0.0400  0.2985
24295W        W41142   4.955  11.008   0.727  0.2977 -0.0452  0.0454
24296W        W41143  12.572  18.997  12.806  0.1590 -0.0927  0.0260
24297W        W41144  10.516   5.647   4.656 -0.1145 -0.3253  0.1911
24298W        W41145   6.847   0.269   3.498 -0.1719  0.0026 -0.2848
24299W        W41146   8.171  16.126   3.650 -0.2725  0.0149  0.2460
24300W        W41147   6.631  13.838   3.269 -0.1673 -0.1197  0.2302
24301W        W41148   0.385   8.990   3.161 -0.1720  0.3254  0.0763
24302W        W41149  16.070  16.440   2.094 -0.1725 -0.0144 -0.2731
24303W        W41150  14.897   2.528   2.343 -0.1869  0.1569  0.4235
24304W        W41151  18.322   8.015  11.149  0.0014 -0.0168  0.2466
24305W        W41152  16.732   6.069   1.936  0.1655 -0.0686 -0.1565
24306W        W41153   7.651   6.886   2.615  0.1056 -0.0485 -0.0035
24307W        W41154   5.049  17.221   2.122  0.3135 -0.3912  0.3029
24308W        W41155  13.207  13.971   3.494  0.1212 -0.2375  0.0627
24309W        W41156   4.340  15.000   3.498  0.2312  0.3710  0.1317
24310W        W41157  11.963   1.937   2.515  0.0537  0.2739  0.1040
24311W        W41158  15.141  12.293  10.032  0.3259 -0.0123 -0.1520
24312W        W41159  19.416   7.317   1.760  0.0860  0.1824  0.0958
24313W        W41160  15.114   5.145   5.280  0.0693 -0.0016 -0.2948
24314W        W41161   2.095   4.140  13.691 -0.0881 -0.1647  0.0334
24315W        W41162   0.213  10.813   4.886  0.3080  0.0746  0.0211
24316W        W41163   8.197   4.904   4.334 -0.0206 -0.2764  0.2962
24317W        W41164  17.794  18.795   2.391 -0.1211 -0.0863 -0.0299
24318W        W41165  14.218   1.159  13.018 -0.1179 -0.2167  0.0309
24319W        W41166   3.815   2.912   3.730  0.0529 -0.0086  0.0385
24320W        W41167  15.084  19.032   4.038 -0.1465  0.2166  0.0000
24321W        W41168   3.141   8.386  13.240 -0.1003 -0.2456 -0.2966
24322W        W41169   5.083  13.891   4.278 -0.0010 -0.1537  0.1346
24323W        W41170  15.261   7.284   1.482  0.2925  0.2322  0.4336
24324W        W41171   9.595   8.071  12.857 -0.1556  0.1364  0.2022
24325W        W41172  10.022  10.515   4.656  0.0149  0.1738 -0.0943
24326W        W41173  13.717  19.200   2.249 -0.2102  0.1815 -0.1192
24327W        W41174   8.919   5.672   2.586 -0.1580  0.4189  0.0844
24328W        W41175  14.426   0.528   1.236  0.0371 -0.1259 -0.1236
24329W        W41176  11.907   4.574   3.881  0.0940 -0.3089  0.0072
24330W        W41177  17.598   8.491  10.503  0.1428  0.1917 -0.0015
24331W        W41178   0.313  18.843   0.613  0.7817  0.2554 -0.0460
24332W        W41179   1.267  11.873  13.601 -0.1710  0.0338  0.1813
24333W        W41180   9.637   5.437   9.992  0.0023 -0.1038 -0.2029
24334W        W41181   2.559  12.468  11.745  0.0882  0.2492  0.3419
24335W        W41182   0.531   1.598  11.879  0.1741  0.0266 -0.2339
24336W        W41183  18.893  15.387   4.964 -0.0333  0.0506  0.1167
24337W        W41184   1.430  12.496   0.627 -0.0759  0.2069  0.1678
24338W        W41185  16.759   9.977  11.322 -0.0113 -0.2842 -0.3728
24339W        W41186  11.040  11.430  13.670 -0.0511 -0.1497  0.0142
24340W        W41187   7.238  16.564   1.944 -0.1071  0.2196  0.2867
24341W        W41188  17.078   7.008  12.991  0.0209 -0.0573 -0.1107
24342W        W41189  15.402   4.263  10.837 -0.0245  0.2373  0.1057
24343W        W41190   0.118   0.038  11.807 -0.1107 -0.3039  0.1072
24344W        W41191   5.524  11.676   0.796 -0.0486 -0.0543  0.0702
24345W        W41192   9.234   9.715   0.776 -0.0222 -0.1586 -0.5456
24346W        W41193   6.083  15.985  10.791 -0.0264  0.3544 -0.1448
24347W        W41194   5.796  13.860   0.278 -0.0671  0.0510 -0.2928
24348W        W41195  14.695  16.886  12.644  0.2256  0.2177 -0.0662
24349W        W41196   6.595   3.583   1.546 -0.1485 -0.2719  0.1545
24350W        W41197   2.565  19.647  10.292  0.0980  0.0095 -0.0969
24351W        W41198   0.603  17.768  11.922 -0.0564  0.0664 -0.0681
24352W        W41199   5.545  10.704  13.090 -0.1899  0.2902 -0.0923
24353W        W41200   0.399   7.072   4.697 -0.0695 -0.1303  0.1736
24354W        W41201   3.058  14.088   3.393  0.1566 -0.2644 -0.1534
24355W        W41202   0.746  13.750   3.931 -0.1983  0.1520  0.1483
24356W        W41203  11.263   7.816   9.673 -0.0444 -0.1210  0.0174
24357W        W41204   4.074   6.746   1.098 -0.0452  0.1282 -0.1321
24358W        W41205   4.488  11.468   0.362  0.1734 -0.0556  0.1582
24359W        W41206   4.394   6.616   5.078 -0.0549  0.0778  0.1807
24360W        W41207  15.880  18.508  12.736  0.0638  0.0150  0.0329
24361W        W41208   7.679   2.083  12.075  0.3631 -0.1912  0.2289
24362W        W41209  18.585  18.837   1.182  0.0410  0.0413 -0.3394
24363W        W41210  13.219   6.675  11.812  0.1046  0.3676 -0.2754
24364W        W41211  16.067   1.876   1.756 -0.0387 -0.2365 -0.1582
24365W        W41212  12.102   7.801   5.062 -0.2896 -0.1551  0.0009
24366W        W41213   7.333  19.775   1.037  0.0439  0.1129  0.0778
24367W        W41214   3.581   6.374   3.288  0.0439 -0.0978  0.1944
24368W        W41215   3.943  18.907   2.350  0.1900  0.0690  0.1704
24369W        W41216  13.824  12.540   0.156 -0.1415  0.0539  0.2489
24370W        W41217  13.653  18.470  13.643  0.1578 -0.1579  0.1090
24371W        W41218  13.238   5.994  12.026  0.0619  0.3370 -0.0366
24372W        W41219  14.545   5.787   0.175  0.0413 -0.0855 -0.0702
24373W        W41220  11.425   7.423  12.907 -0.0422  0.1547 -0.0074
24374W        W41221  11.331   9.068   3.223 -0.1380 -0.1288  0.3029
24375W        W41222   8.213  19.340   3.480  0.2604  0.1191  0.1859
24376W        W41223  16.683  19.027   3.739 -0.1236  0.1484 -0.0609
24377W        W41224   9.851   4.638   3.693  0.5031 -0.1463 -0.1388
24378W        W41225  18.240  11.499   3.337  0.0267 -0.5144 -0.1093
24379W        W41226  19.383  11.006  12.095  0.0623  0.0694 -0.2753
24380W        W41227   1.669   0.419   0.071 -0.0981  0.0553  0.2059
24381W        W41228   8.954   2.012   3.334  0.2961  0.0432 -0.2796
24382W        W41229  16.092  17.949  11.856 -0.0439  0.1236 -0.0536
24383W        W41230  14.485   6.668   2.461 -0.1156 -0.3059  0.1091
24384W        W41231  13.626   1.696  13.258  0.4242  0.1878 -0.1189
24385W        W41232   4.402   5.513  13.979  0.1589 -0.0491 -0.2450
24386W        W41233  17.913   2.587  13.346 -0.2511  0.4360  0.0731
24387W        W41234   1.588   8.607   1.940 -0.0761 -0.2241  0.0282
24388W        W41235  11.340   8.778   3.728  0.0614 -0.1058  0.0387
24389W        W41236  10.151  18.053   4.003  0.1006  0.0654 -0.1523
24390W        W41237  14.177  19.585   3.676  0.0845 -0.1715  0.0223
24391W        W41238   5.817   0.754   1.036 -0.1004  0.2540  0.0082
24392W        W41239   1.370  19.625  11.569  0.2042  0.3107 -0.3180
24393W        W41240   4.627  13.708   3.982 -0.1959  0.3258 -0.3298
24394W        W41241   3.749  18.660   4.767 -0.0125 -0.1151 -0.2881
24395W        W41242   3.235  16.790   2.536 -0.1258 -0.1188 -0.1244
24396W        W41243   5.315   9.921   3.992  0.0938  0.3621  0.1945
24397W        W41244  19.213  14.128   0.093 -0.1282 -0.0447  0.2976
24398W        W41245  11.190   0.964  14.290 -0.2665  0.4366  0.1988
24399W        W41246  15.525  18.670   1.365 -0.5570 -0.1547  0.0103
24400W        W41247   8.774  17.837  12.443 -0.1186  0.3950 -0.2747
24401W        W41248  14.162  16.799  11.561 -0.1003  0.2319 -0.1776
24402W        W41249  13.814   0.565  12.316 -0.4228  0.0836 -0.1935
24403W        W41250   0.353  15.141  11.172  0.1344  0.0180 -0.2822
24404W        W41251   0.357   9.734  12.683  0.2712  0.0173 -0.0073
24405W        W41252   8.053  16.375   0.601  0.3938  0.1224  0.2612
24406W        W41253   5.272   4.588   3.767 -0.2221  0.1216 -0.0137
24407W        W41254  12.511  15.006   0.292 -0.3090  0.1545  0.0286
24408W        W41255   7.481   6.653  10.567 -0.0448 -0.2519 -0.2476
24409W        W41256  10.401   9.620  11.575  0.1181  0.1904 -0.0739
24410W        W41257   1.742  15.612  13.695  0.0534  0.2775 -0.3049
24411W        W41258   7.989   8.362  10.871  0.0898  0.1714 -0.2950
24412W        W41259  16.474   4.041  14.229 -0.1260 -0.1869 -0.1071
24413W        W41260   7.646  12.118   3.590  0.0508 -0.1818 -0.0898
24414W        W41261  10.178   3.748   1.885  0.2213  0.0185  0.1643
24415W        W41262  16.421   7.897   2.191  0.2066 -0.1129 -0.2426
24416W        W41263  16.775  18.814  11.017 -0.0416  0.1878  0.0531
24417W        W41264   4.120   8.232   3.749 -0.0270  0.1184  0.2387
24418W        W41265  11.517   5.497   3.702  0.2364 -0.0371  0.0479
24419W        W41266   5.849  12.518  12.659  0.0045 -0.1806 -0.1530
24420W        W41267   8.163   3.228  12.538 -0.0783 -0.1679  0.1650
24421W        W41268   0.846  12.726   0.003 -0.1854  0.0338 -0.1767
24422W        W41269   8.468   0.398  10.793  0.1027 -0.0126  0.1808
24423W        W41270   8.181   6.699   2.003  0.2122 -0.0002  0.2927
24424W        W41271  13.696  14.909   0.788  0.1954  0.0670  0.1887
24425W        W41272   8.642   1.160   3.555 -0.1281  0.0900 -0.0381
24426W        W41273  12.226  18.646   1.088  0.0279 -0.0587  0.1922
24427W        W41274  17.811   9.180  11.796 -0.1107 -0.0095 -0.4689
24428W        W41275  10.066  18.752  10.457  0.4037 -0.1310 -0.1371
24429W        W41276  19.517  18.561   4.386 -0.0956  0.2192 -0.2816
24430W        W41277   6.177  18.741  10.673  0.0405 -0.1449 -0.1278
24431W        W41278   8.246   3.007   0.759 -0.7135 -0.2395 -0.0564
24432W        W41279   3.785  16.699  13.383  0.2077  0.2112  0.1279
24433W        W41280  10.138  17.234  12.029 -0.5286 -0.1272  0.3003
24434W        W41281  12.131  13.832   4.092 -0.0414 -0.0288 -0.1284
24435W        W41282   7.792   1.686  13.909  0.1815 -0.0355 -0.4651
24436W        W41283  13.038  14.313  13.484  0.3538  0.1558 -0.1002
24437W        W41284  17.044   3.656  12.359  0.4683 -0.1135  0.1711
24438W        W41285   2.831  16.661   4.346  0.2006  0.0692 -0.1958
24439W        W41286   4.262   0.296  12.109  0.3005  0.2026  0.1604
24440W        W41287  18.484   8.491  11.895  0.1966  0.2058 -0.2939
24441W        W41288   5.153   0.280  12.127 -0.0156  0.1291 -0.0579
24442W        W41289   0.489  10.509  11.134 -0.4510  0.3976  0.0820
24443W        W41290  16.668   2.837  10.815  0.3085  0.3247  0.3657
24444W        W41291  19.288   6.067   4.708  0.0309 -0.4621 -0.0323
24445W        W41292  13.772   5.420   2.062  0.1652  0.2596  0.2688
24446W        W41293   7.826   2.816  12.671  0.0708  0.1172 -0.0150
24447W        W41294   2.626  17.200  14.004  0.1022 -0.3206  0.2321
24448W        W41295  10.825   8.891  10.763 -0.2396 -0.1264 -0.0464
24449W        W41296  13.260  15.156  12.960 -0.0464 -0.0795  0.3822
24450W        W41297  10.053  13.157   1.200  0.2041 -0.1438 -0.3148
24451W        W41298  17.763  11.527  11.774  0.0809 -0.0835 -0.0049
24452W        W41299  13.368  13.151   1.107 -0.1550 -0.0652  0.1679
24453W        W41300  10.886  14.776  11.933  0.2564  0.0732  0.0955
24454W        W41301  15.223  12.948   5.172  0.2423 -0.3256  0.0125
24455W        W41302  19.661   2.912  10.199  0.0013 -0.0926  0.0882
24456W        W41303  19.008   0.969   4.690 -0.0409  0.1707 -0.1704
24457W        W41304  17.633  18.379   2.231 -0.3800 -0.2094  0.1169
24458W        W41305   9.328  18.472   2.648  0.1589 -0.3997 -0.1560
24459W        W41306  12.767  11.856  13.256 -0.1023  0.0974  0.3297
24460W        W41307   3.152  17.181  10.194 -0.1564 -0.1876 -0.4371
24461W        W41308   4.565   4.912   0.834  0.0517  0.3116  0.2805
24462W        W41309  10.345   5.047  10.267 -0.0132  0.0451  0.1846
24463W        W41310  10.857   5.909   1.759  0.0622 -0.3156 -0.0016
24464W        W41311   3.489   4.785  14.053 -0.3077  0.1223  0.0447
24465W        W41312  16.729  12.790   0.655 -0.0661 -0.0065  0.3093
24466W        W41313   2.290   9.318   1.890  0.2392 -0.4957 -0.1188
24467W        W41314  11.125   1.566  10.475  0.2430 -0.1861  0.1473
24468W        W41315  11.092   5.107   3.930 -0.0133 -0.1009 -0.1542
24469W        W41316  15.704  10.427   1.175  0.1556 -0.1051 -0.0605
24470W        W41317   9.503  12.262   1.261  0.1306 -0.2850  0.1755
24471W        W41318  18.451  12.890   2.834  0.1125  0.2870  0.2805
24472W        W41319   5.212   8.177  12.830 -0.1552  0.1022  0.1065
24473W        W41320   1.171  17.487   0.590 -0.0283  0.1066  0.1217
24474W        W41321  13.373  17.950  11.595 -0.1433  0.1492 -0.0527
24475W        W41322  19.841   4.129   0.788  0.2547  0.0301 -0.0633
24476W        W41323  13.016  12.255   3.279  0.1107  0.1596 -0.2001
24477W        W41324  14.743   4.880   4.028 -0.2449 -0.0139  0.0299
24478W        W41325   2.077   7.945   0.856 -0.2182  0.2707 -0.1128
24479W        W41326  17.293   4.609  11.437 -0.0586  0.3256  0.0270
24480W        W41327   4.063  12.941  11.419  0.1472 -0.0819 -0.0285
24481W        W41328  19.027  12.757  11.973  0.3371 -0.0642  0.2640
24482W        W41329  14.579  15.366   0.270  0.2853 -0.0320 -0.1870
24483W        W41330  12.772  10.203  13.063  0.2267 -0.3667 -0.1040
24484W        W41331   9.243  15.161   4.712  0.0034 -0.1140  0.0676
24485W        W41332   6.356   8.724   2.840 -0.0568 -0.0164  0.0745
24486W        W41333   1.666   3.308  12.962 -0.0196 -0.2900 -0.0893
24487W        W41334   5.108  19.431   1.858 -0.2555  0.1932 -0.1016
24488W        W41335  17.405   5.581   9.865 -0.1116 -0.0790  0.0139
24489W        W41336  11.185  12.555  13.916 -0.1285 -0.0317 -0.1884
24490W        W41337  13.877  11.232   0.697  0.0900 -0.1771 -0.0361
24491W        W41338  13.617   3.155  10.740  0.1780  0.0427  0.1474
24492W        W41339  19.430  19.349   4.543  0.0265 -0.1441 -0.2124
24493W        W41340  16.727  12.471   3.485 -0.1529  0.0969 -0.3522
24494W        W41341  19.342  10.986   2.060  0.0087 -0.1343  0.1002
24495W        W41342   9.786  11.806   9.735  0.2375  0.2744  0.1056
24496W        W41343  16.147   9.751   9.941  0.0866 -0.1536 -0.0443
24497W        W41344   4.149   4.484  12.047 -0.0827  0.0630  0.2451
24498W        W41345  16.203  10.860   1.961  0.0235  0.2008 -0.2202
24499W        W41346  17.851  19.846   3.256 -0.0807 -0.1346 -0.2566
24500W        W41347   8.204   5.659   1.668  0.2142  0.1722  0.1867
24501W        W41348   1.284   5.354   9.574 -0.0276  0.2140  0.0518
24502W        W41349   3.943  10.107   4.773  0.0982 -0.1450  0.1286
24503W        W41350   9.811   0.624  10.323  0.1648 -0.0516  0.3120
24504W        W41351   4.980  10.835  13.222 -0.0127  0.1791  0.2023
24505W        W41352   6.804  11.784   1.260  0.1436 -0.0637  0.2494
24506W        W41353   4.417  19.858   2.551  0.1058  0.1188  0.3261
24507W        W41354   1.474  11.069  11.956  0.1659  0.1342 -0.2539
24508W        W41355   2.491  14.487  13.596 -0.5653 -0.3067  0.2131
24509W        W41356   7.179   5.507   4.940  0.1674  0.2141 -0.2952
24510W        W41357   1.736  15.753  12.899  0.2138 -0.0234 -0.4484
24511W        W41358  15.528   4.326   3.749  0.0139 -0.2531 -0.1905
24512W        W41359   4.097  11.219  13.560 -0.1223 -0.2013 -0.1784
24513W        W41360  12.007  13.309   4.285  0.1494 -0.1227  0.0783
24514W        W41361  11.124   7.290   0.867  0.2180 -0.2886  0.0640
24515W        W41362   6.945   2.699  11.160 -0.1658  0.0012 -0.0324
24516W        W41363  17.003  13.896   3.209 -0.0796 -0.0383  0.4119
24517W        W41364   5.714  14.609   0.567  0.2478 -0.2384  0.2841
24518W        W41365  10.336  10.460  11.221  0.1879 -0.0381  0.0132
24519W        W41366  11.379  14.526  10.715  0.2530  0.2388  0.0165
24520W        W41367  10.667  11.839  10.043  0.0136  0.0352 -0.3171
24521W        W41368  15.270  11.542  11.609 -0.2238 -0.3219 -0.1346
24522W        W41369  12.386  13.274  10.659  0.1309  0.0997 -0.4812
24523W        W41370  12.252  11.751  14.019 -0.0516  0.1003 -0.2333
24524W        W41371   6.388  16.240   2.720  0.0431  0.0796  0.4733
24525W        W41372  12.299   3.989   8.885 -0.2378 -0.1888 -0.0461
24526W        W41373   6.618  12.523   2.951 -0.0036 -0.3625  0.0317
24527W        W41374   6.515   4.551   0.633  0.2563 -0.0836 -0.1274
24528W        W41375  15.898   5.654  12.120  0.1008  0.3250 -0.2225
24529W        W41376  15.714  16.276  11.166  0.0584 -0.1616  0.0707
24530W        W41377   0.356   1.624   0.642  0.0286  0.3199  0.1773
24531W        W41378   1.303  19.874   0.637  0.2024 -0.2867  0.0763
24532W        W41379   9.314   1.167  11.445 -0.2401  0.0202  0.1320
24533W        W41380   3.599   8.140  12.071 -0.0759 -0.0452  0.1182
24534W        W41381  15.296   6.779  12.425 -0.1683  0.3072 -0.4106
24535W        W41382  19.172   4.311  12.295 -0.0826 -0.2576 -0.1977
24536W        W41383  10.522   2.676   1.667  0.2845  0.1501  0.1159
24537W        W41384  10.448  13.957  11.850 -0.3236 -0.0755 -0.1087
24538W        W41385   4.273  11.141  13.005 -0.0363  0.2092 -0.0945
24539W        W41386   0.698  13.516  12.980  0.0335  0.1951 -0.0099
24540W        W41387   1.584   4.287  12.111  0.3001 -0.1489  0.0745
24541W        W41388   4.076  12.136   9.992  0.1673 -0.0079 -0.3381
24542W        W41389  18.428  13.997  12.478 -0.1093 -0.1045 -0.0087
24543W        W41390   4.142   3.719  10.755 -0.0696 -0.1124  0.3257
24544W        W41391   8.336  15.751   3.399 -0.1658  0.0086 -0.4269
24545W        W41392   2.449  10.633   1.319 -0.0943  0.1427 -0.1949
24546W        W41393  14.162  12.635   2.701 -0.0968 -0.3627 -0.3660
24547W        W41394  15.929  13.567   0.942  0.2556 -0.1154  0.0882
24548W        W41395   1.911  19.020   9.183  0.2469  0.0415 -0.2757
24549W        W41396  12.750  17.357  13.851  0.1779 -0.0420  0.0850
24550W        W41397  13.929   9.123   1.216  0.1630 -0.0412 -0.0138
24551W        W41398   5.433   9.762   3.046 -0.0455 -0.1211  0.0991
24552W        W41399  17.059  17.069   3.900 -0.1163  0.1527  0.1182
24553W        W41400   5.066   4.576   2.827 -0.0521  0.0427  0.2588
24554W        W41401   7.802  18.162   0.604 -0.0504 -0.2026 -0.1066
24555W        W41402  16.842  14.169  10.321 -0.2001  0.3059  0.1669
24556W        W41403  15.942  16.084   0.957  0.2719  0.1410  0.1720
24557W        W41404   2.910  19.182   2.485  0.0004 -0.0974  0.3720
24558W        W41405   3.140   9.857   0.163  0.0268  0.0852  0.1734
24559W        W41406   7.542   5.267   3.393  0.2950  0.2320 -0.0859
24560W        W41407   0.922  10.855   2.802 -0.1403  0.1593  0.0096
24561W        W41408   4.965  10.918   4.612  0.0559 -0.2457 -0.1151
24562W        W41409  18.966  13.509   3.368  0.0663 -0.1753 -0.2982
24563W        W41410   5.801  17.209   5.474  0.0406  0.0212  0.4817
24564W        W41411   8.595  15.181   4.047  0.1121 -0.1795  0.1909
24565W        W41412  12.577  13.838  13.799 -0.4634  0.1198  0.0700
24566W        W41413  18.897   7.316   4.200 -0.0878  0.0012  0.1779
24567W        W41414   6.023   2.895  11.346  0.0832 -0.1074  0.1288
24568W        W41415  17.783  18.992  11.999 -0.2200 -0.1299 -0.0746
24569W        W41416  15.889   8.425   0.633  0.1288 -0.2706 -0.2197
24570W        W41417  11.835   5.505   1.966 -0.1401 -0.0516  0.0905
24571W        W41418   8.827  11.349  11.885 -0.0539  0.3242  0.0495
24572W        W41419   3.562  12.277  10.596 -0.0832  0.0347  0.0445
24573W        W41420  12.237   6.891   4.463 -0.2305 -0.0212 -0.0524
24574W        W41421  16.657   6.496   9.774  0.2140  0.0475  0.0433
24575W        W41422   8.870   2.484   4.082  0.1216 -0.3996 -0.2431
24576W        W41423  12.663  13.997   5.543 -0.1424 -0.1537 -0.1082
24577W        W41424  17.889   6.736   4.734  0.1279 -0.2495 -0.1516
24578W        W41425   2.273   0.189   1.371 -0.1718 -0.0844  0.3376
24579W        W41426  16.376   0.360   2.962  0.3284 -0.0902 -0.1107
24580W        W41427  10.718  11.536   0.353  0.2850 -0.2072  0.1652
24581W        W41428  12.942  18.976  13.195  0.1993 -0.2179  0.0539
24582W        W41429   1.860   1.707  10.066  0.0466  0.0182 -0.0011
24583W        W41430   4.941  17.091   0.801  0.0467  0.3421 -0.2150
24584W        W41431  13.246   1.181   2.608 -0.2457 -0.1945  0.0962
24585W        W41432   6.722   8.997  11.050  0.1466 -0.2459 -0.3971
24586W        W41433   5.055   0.548   3.571  0.2133 -0.1945  0.0535
24587W        W41434   6.023  16.104  13.846 -0.2739  0.0589 -0.2496
24588W        W41435  16.565  14.534  12.592  0.1228  0.2761 -0.1653
24589W        W41436   7.497  10.112   4.672  0.0538  0.1963 -0.0422
24590W        W41437  17.970  16.921   2.097 -0.0445 -0.0366  0.1201
24591W        W41438   4.910   9.522   0.708 -0.2411 -0.3170  0.1343
24592W        W41439  11.719   3.732   4.841 -0.0891 -0.0877 -0.1486
24593W        W41440   4.950  15.152   0.558  0.3324  0.4979 -0.0123
24594W        W41441   2.904  12.962   3.323 -0.1403  0.0841  0.0908
24595W        W41442  13.796   3.733   3.294 -0.1593  0.1356  0.0032
24596W        W41443   2.568   8.809   0.269  0.0855 -0.2662  0.1087
24597W        W41444   7.001   6.118   4.306 -0.2595 -0.2175  0.2532
24598W        W41445  11.524  16.517   4.359 -0.0563  0.3120 -0.0205
24599W        W41446   3.346  15.743  10.930  0.2008 -0.3915 -0.0887
24600W        W41447   6.963   6.328  11.243 -0.2564 -0.1487  0.2200
24601W        W41448   5.003  18.366   0.495  0.2029  0.3370  0.0285
24602W        W41449   8.270   4.378   2.313 -0.0161  0.0657  0.0051
24603W        W41450  13.326   3.277   1.181 -0.3293  0.0161  0.0221
24604W        W41451  19.485  12.932   3.690  0.2646  0.0780  0.1399
24605W        W41452  14.372  11.819   1.947  0.1481  0.0880  0.4063
24606W        W41453   5.702  17.536   2.228 -0.3108 -0.0431  0.1550
24607W        W41454   5.299   1.240   9.706 -0.3111 -0.2445 -0.1225
24608W        W41455   4.728   7.167   0.430  0.1115 -0.1577  0.0032
24609W        W41456  14.834   1.989  12.753  0.0544 -0.3968 -0.1871
24610W        W41457  19.407  10.053   3.055 -0.0025 -0.0347 -0.1929
24611W        W41458   2.978  16.191   3.350  0.1286  0.0840 -0.3015
24612W        W41459  11.552   7.470   3.429  0.0322 -0.3268  0.2158
24613W        W41460  16.630   2.462   4.855  0.2347 -0.0966  0.1268
24614W        W41461   5.163   7.487  11.081  0.1661  0.1263 -0.3782
24615W        W41462   4.655   1.997  11.041  0.0983 -0.1948 -0.0008
24616W        W41463  15.490   4.394  11.530  0.2889 -0.3080  0.0860
24617W        W41464   1.980  19.164   1.173  0.0833  0.2460  0.1564
24618W        W41465   3.828  14.088   1.072 -0.0081 -0.0875 -0.3712
24619W        W41466  16.841   8.520  11.217 -0.0519  0.0801 -0.3033
24620W        W41467  18.709   6.344  13.857 -0.0462  0.1687 -0.3222
24621W        W41468  12.016   3.276  12.589 -0.2979 -0.1020  0.0192
24622W        W41469   2.468   5.593   3.202 -0.1336 -0.0595  0.1809
24623W        W41470  13.102  10.976   1.747 -0.1528  0.1387 -0.1579
24624W        W41471  15.946  19.421  12.661 -0.3597  0.4521 -0.1677
24625W        W41472   6.792   4.599  13.008 -0.1017 -0.2472 -0.0178
24626W        W41473  19.808   8.349   4.279 -0.1166  0.3701  0.0310
24627W        W41474   1.769  13.814   1.888  0.0727 -0.0499 -0.1634
24628W        W41475  18.691   8.532   0.889 -0.1565 -0.0647 -0.0804
24629W        W41476   3.074  12.350  11.957  0.1018  0.1048 -0.2791
24630W        W41477   5.112  10.925  13.706 -0.1186  0.0086  0.0759
24631W        W41478  10.740  18.210   9.806 -0.3237 -0.1979 -0.0843
24632W        W41479   5.050   2.393   3.172 -0.3627 -0.0423  0.2110
24633W        W41480  14.645   5.853   1.566  0.1166 -0.1408  0.1370
24634W        W41481  12.506   0.812   2.207 -0.0781 -0.0613 -0.0419
24635W        W41482   4.992  19.307  11.863 -0.0683 -0.2298  0.3195
24636W        W41483   0.463   7.648   1.782  0.0322  0.1457  0.0582
24637W        W41484  13.564   6.411   0.973  0.1024  0.4375  0.3734
24638W        W41485   8.157  16.117   1.392  0.0797 -0.1814 -0.0514
24639W        W41486  17.497   3.046   0.475 -0.1518 -0.1829 -0.2580
24640W        W41487  17.532   9.661  11.852  0.0272  0.2006 -0.0922
24641W        W41488  13.707   0.701   0.297  0.1341 -0.1546  0.3008
24642W        W41489  12.668  11.259  12.134 -0.2346  0.1042 -0.0479
24643W        W41490   3.729  12.273  11.051  0.1068 -0.0499  0.1089
24644W        W41491  12.652   8.121   9.841 -0.1845  0.3816 -0.0770
24645W        W41492  12.946   1.185   3.372 -0.1271 -0.4652 -0.1518
24646W        W41493  12.224  19.139   5.146  0.1711  0.0539 -0.1319
24647W        W41494   5.558   5.651  10.966  0.5496  0.2529 -0.0484
24648W        W41495   0.665   1.613   4.590 -0.0868 -0.0701  0.1150
24649W        W41496   6.146   8.043  13.098  0.0205 -0.2537  0.1449
24650W        W41497   9.115  14.075  13.255 -0.0463 -0.1266  0.2106
24651W        W41498  10.493   6.567   0.824  0.0740 -0.1700 -0.1022
24652W        W41499  14.249   7.621   4.479 -0.1627 -0.1878 -0.0894
24653W        W41500   1.273   0.319  13.213 -0.0887 -0.2857 -0.0146
24654W        W41501   1.448  15.559  10.270 -0.2479  0.1778  0.0672
24655W        W41502   1.067  16.948  12.136  0.0517 -0.0566  0.2233
24656W        W41503   2.001   8.481  12.081 -0.0024  0.1168  0.1377
24657W        W41504   4.743  10.208  10.888 -0.1159 -0.0258 -0.0105
24658W        W41505   9.560   0.525   1.359 -0.1997  0.4824 -0.0150
24659W        W41506  14.104   6.040  12.888  0.1186 -0.1368  0.1397
24660W        W41507  10.585  17.787   1.049  0.1554 -0.3627  0.4910
24661W        W41508   7.114  11.478  10.778  0.0307  0.2312  0.3544
24662W        W41509  11.356   8.057  12.806 -0.1884 -0.1020  0.2043
24663W        W41510  11.502   0.595  12.552  0.1786  0.0728  0.0697
24664W        W41511   2.469   7.420   0.949 -0.1384 -0.0994 -0.1253
24665W        W41512  11.458   1.016  13.247  0.1220 -0.3694 -0.1707
24666W        W41513   8.990   3.263  10.508 -0.2614 -0.0477  0.0090
24667W        W41514   5.076   5.761  13.542  0.1961 -0.1682  0.1916
24668W        W41515   5.289   6.228  13.651  0.2140  0.1710  0.4422
24669W        W41516  14.396   6.093   0.879  0.1053  0.3830  0.1778
24670W        W41517  16.761   6.324   2.814 -0.1647 -0.1224 -0.0263
24671W        W41518   2.752   6.633  11.777 -0.1035 -0.0566 -0.2121
24672W        W41519   0.830   1.435   5.005  0.0474  0.0380 -0.1442
24673W        W41520  10.631   4.103   1.944 -0.1830  0.2179  0.1089
24674W        W41521   3.039  12.479   3.156 -0.0980 -0.0989 -0.0883
24675W        W41522  11.478  14.201   4.521  0.1286 -0.1557  0.0034
24676W        W41523  13.930  16.392  10.421  0.4506 -0.1111 -0.0027
24677W        W41524  15.924  10.746  13.447 -0.2176 -0.0130 -0.1194
24678W        W41525   1.280   9.353  10.758 -0.0249 -0.1474  0.0805
24679W        W41526  13.915  12.099  10.722  0.0066  0.2226  0.1316
24680W        W41527  16.204   4.551   2.436 -0.1612 -0.3893  0.2644
24681W        W41528   5.716   2.640   1.385 -0.0021  0.2059 -0.2012
24682W        W41529   2.368  15.153   3.723 -0.4469 -0.0576  0.0147
24683W        W41530   5.704  12.390   3.106 -0.0686  0.4144  0.2265
24684W        W41531  18.481   8.928  12.226 -0.0074 -0.1194 -0.1928
24685W        W41532  12.362   3.075   0.068  0.2482  0.2305 -0.1194
24686W        W41533   7.667   7.898   0.617 -0.0977 -0.1700  0.2058
24687W        W41534  11.372   8.269   0.175 -0.3220 -0.0595 -0.0166
24688W        W41535   5.252   1.046  14.233 -0.0842 -0.4058 -0.0678
24689W        W41536   3.466  12.169   0.994  0.2262 -0.1555  0.1441
24690W        W41537  17.403  11.612  11.461 -0.3901 -0.0336  0.1103
24691W        W41538  19.824   5.209   1.807 -0.0209  0.3311 -0.0220
24692W        W41539  16.718   7.636  14.351  0.2490 -0.1916 -0.1653
24693W        W41540   6.687   5.276   1.867 -0.1685 -0.1108  0.1327
24694W        W41541  12.915  13.448  12.997 -0.0775 -0.0613  0.0688
24695W        W41542   0.218  18.278  11.344  0.2761 -0.1394  0.0349
24696W        W41543   9.488  15.554  11.737  0.2426  0.2311  0.0310
24697W        W41544  19.692   8.351  12.403  0.1330  0.1227 -0.3276
24698W        W41545   4.439   3.328   3.521  0.1019 -0.0196  0.1571
24699W        W41546  18.245  10.098   0.250  0.1421  0.3821  0.2345
24700W        W41547  10.552  18.623  11.922  0.4239 -0.0852  0.1208
24701W        W41548   3.752  10.160  13.896 -0.0453  0.0489 -0.0759
24702W        W41549  10.377   8.915   2.160 -0.1205 -0.0531 -0.0657
24703W        W41550  16.930   7.593   4.065 -0.2278  0.1675  0.0660
24704W        W41551   3.468  18.483  12.554 -0.1918  0.1283  0.1207
24705W        W41552  14.786  10.808  13.869 -0.3223  0.2171 -0.2421
24706W        W41553  19.075  19.637   3.531 -0.1902  0.1844 -0.0069
24707W        W41554  15.508  17.200  13.561 -0.0602  0.0492 -0.1178
24708W        W41555   9.162   1.120   3.577 -0.0604  0.2663  0.0731
24709W        W41556  19.114   1.929  12.015  0.1183 -0.2092 -0.0102
24710W        W41557   4.488   4.021   4.315 -0.5773 -0.0227 -0.2603
24711W        W41558  15.910  18.637   2.397 -0.1178  0.5480  0.1442
24712W        W41559   3.647  17.192  13.591  0.0149  0.0643  0.0958
24713W        W41560  15.342   3.077   4.330 -0.1841 -0.0904 -0.1627
24714W        W41561   8.242   6.873  10.181  0.1133 -0.2596  0.3235
24715W        W41562   0.040   7.866  10.799  0.0795  0.3100  0.3084
24716W        W41563  14.948   0.879   0.589  0.0507  0.0206 -0.1029
24717W        W41564   0.581  18.653  13.569 -0.4415 -0.2855  0.2126
24718W        W41565  10.643  18.130  12.744  0.0644  0.0448 -0.1157
24719W        W41566  12.196  11.871  11.172  0.3888  0.1444  0.1008
24720W        W41567   7.792  10.024  12.043  0.2831  0.0770  0.2007
24721W        W41568  16.776   1.513  10.981 -0.1195 -0.0439 -0.1000
24722W        W41569  14.305  16.633  12.434 -0.1566 -0.4650  0.1184
24723W        W41570   1.545  12.869   2.783 -0.1815  0.3061 -0.0601
24724W        W41571  11.836  14.616   1.159 -0.0155  0.3010 -0.0436
24725W        W41572  10.869  13.933   3.945 -0.2127 -0.1215 -0.0171
24726W        W41573  11.114   0.046   1.412  0.2961 -0.1146  0.1838
24727W        W41574   6.438   8.221   2.709 -0.1489 -0.0492 -0.2241
24728W        W41575   8.669   1.732   2.193  0.0829 -0.2812  0.1455
24729W        W41576   9.794  13.585   2.250 -0.0317 -0.1322  0.1839
24730W        W41577   4.473  19.781   3.047 -0.3037 -0.0444  0.0376
24731W        W41578   1.296   3.138   3.474 -0.0893 -0.1400 -0.1915
24732W        W41579   9.592   5.003   2.890  0.2943  0.2237 -0.0295
24733W        W41580  17.913   1.930   3.249  0.0869  0.0071  0.0046
24734W        W41581   4.572   5.328  10.059  0.1074 -0.1291  0.0323
24735W        W41582  17.737   3.616   2.005 -0.0947  0.0859 -0.0862
24736W        W41583   7.469  16.962   1.098 -0.0688  0.2505 -0.1666
24737W        W41584   6.598   4.336  12.068  0.1489 -0.3575  0.1301
24738W        W41585   6.122   9.595   9.962  0.0393 -0.2297 -0.6195
24739W        W41586  11.616   5.631  13.624  0.1699  0.0207 -0.1961
24740W        W41587   1.212   6.473   0.612  0.1637  0.4207  0.0617
24741W        W41588   8.088  17.353   2.741 -0.3011 -0.0394 -0.2014
24742W        W41589  13.280  10.664  12.117 -0.0289  0.3206  0.0534
24743W        W41590  10.477   3.898   4.106 -0.1495  0.2350 -0.1840
24744W        W41591  14.730   9.628   0.924 -0.1345  0.1454 -0.2060
24745W        W41592   9.761   8.570   1.063 -0.3216 -0.0713 -0.1805
24746W        W41593   7.391   3.064  10.201  0.0249  0.0323  0.1274
24747W        W41594   7.575   6.972   0.647  0.2338 -0.1106  0.1175
24748W        W41595   7.344   2.456   1.262 -0.2365  0.0830  0.1630
24749W        W41596   3.221   7.782  12.363 -0.0022  0.1842 -0.1201
24750W        W41597   1.110  13.380   4.170 -0.2453  0.4250 -0.2835
24751W        W41598  10.575   9.511   3.537  0.1294  0.1245 -0.0180
24752W        W41599  14.910   1.473   0.575  0.0056  0.3334  0.4801
24753W        W41600  18.792   0.385   3.986  0.1794  0.0403 -0.0402
24754W        W41601  12.240   3.932  13.268 -0.3028 -0.1742  0.2777
24755W        W41602   5.280  17.427   2.511 -0.2236 -0.3485  0.2238
24756W        W41603  14.446   3.902  14.319 -0.1757 -0.0789  0.2756
24757W        W41604   2.699   9.000   2.040 -0.3263 -0.1100  0.1068
24758W        W41605  18.619  12.977   3.653 -0.3348  0.0580  0.1896
24759W        W41606  12.705   0.868   0.595  0.1369  0.2479 -0.1097
24760W        W41607   9.481  10.067  13.814  0.1344 -0.2184  0.4240
24761W        W41608  15.716   5.537   0.733 -0.0767 -0.1502  0.1181
24762W        W41609  11.600  12.353   9.294 -0.3071  0.0249 -0.0130
24763W        W41610   9.607  10.295   1.128 -0.0235  0.1520  0.1264
24764W        W41611  14.958   5.717   3.470  0.1738  0.0471 -0.0474
24765W        W41612  18.227  15.582   1.152 -0.0245 -0.1562 -0.1753
24766W        W41613   8.147   2.818   4.534  0.1072  0.2563 -0.1052
24767W        W41614  14.744  14.150  12.100 -0.1905  0.3288 -0.0976
24768W        W41615  16.555  16.640  10.551  0.0856 -0.4181 -0.3540
24769W        W41616   0.060   8.264   0.951  0.1957  0.0944  0.1814
24770W        W41617   8.311  13.138  13.894  0.4277  0.1219  0.1600
24771W        W41618  12.224   7.367   1.563  0.0145 -0.2164 -0.0028
24772W        W41619   1.379   8.435  12.983  0.5815  0.0241  0.0330
24773W        W41620  15.172  19.186  10.270  0.0499  0.1000  0.0710
24774W        W41621  11.321  19.607  12.345 -0.1505  0.0099  0.0253
24775W        W41622  13.016   7.329   5.167 -0.1135 -0.2212 -0.1566
24776W        W41623  10.769   4.002  10.486 -0.2366  0.1121 -0.5097
24777W        W41624   7.324  19.774  14.291  0.2030  0.2548 -0.2476
24778W        W41625  10.915   4.118   1.208  0.1870 -0.0667  0.2740
24779W        W41626  15.192   5.601  12.803 -0.4081  0.1004 -0.1670
24780W        W41627  10.554  10.811  12.662 -0.4111 -0.1404 -0.3308
24781W        W41628  14.975  11.583   2.547 -0.0804 -0.1030 -0.1321
24782W        W41629   0.177  18.648   1.634  0.3385 -0.0572 -0.2223
24783W        W41630  10.220  13.977   1.894  0.0141 -0.0483  0.0019
24784W        W41631  17.282  11.937  12.234 -0.7556 -0.0233 -0.0916
24785W        W41632  18.990   9.709  14.275 -0.0097  0.1173  0.1586
24786W        W41633  16.531   7.418   4.480  0.3870 -0.1946  0.4175
24787W        W41634   3.634   2.672   1.032  0.2398  0.0564 -0.1349
24788W        W41635  12.138   0.743  11.272 -0.0111  0.0143  0.5002
24789W        W41636   7.431   0.408   2.259  0.2538  0.0166 -0.3117
24790W        W41637  11.491  16.499   2.963 -0.0982  0.0029  0.0637
24791W        W41638  11.197   9.627   1.506  0.1186 -0.0613  0.3271
24792W        W41639  16.531   3.331   9.668 -0.0068  0.2448 -0.0358
24793W        W41640   2.362   7.540  12.284  0.2336 -0.0340 -0.2572
24794W        W41641   0.105   0.134  13.536  0.1675 -0.1045  0.2374
24795W        W41642  11.839   1.712   5.030 -0.0463  0.1937 -0.2222
24796W        W41643  12.669  16.489  13.940 -0.2317  0.0753 -0.1750
24797W        W41644   6.793  10.860   1.268  0.1173  0.2572 -0.1889
24798W        W41645  13.366  13.786   2.312  0.0935 -0.0841 -0.0886
24799W        W41646   5.346   6.136  11.092  0.1061 -0.0161  0.0355
24800W        W41647  11.411  13.550  10.766 -0.0327 -0.0632 -0.0477
24801W        W41648   6.157   4.685  13.958 -0.3038 -0.1021  0.0584
24802W        W41649   4.700   4.583   4.334 -0.0484 -0.0458 -0.2226
24803W        W41650   2.550   5.722   3.695  0.1302 -0.2243 -0.1025
24804W        W41651   5.706  17.103  12.129  0.3049  0.1646 -0.1952
24805W        W41652  16.269   6.199   1.113 -0.0090  0.0259  0.2647
24806W        W41653   8.567  15.064  11.993  0.1060  0.0633  0.2749
24807W        W41654  13.481  11.777   4.157  0.0006 -0.3102  0.4034
24808W        W41655  19.346  11.058  10.459 -0.0133  0.2639 -0.2702
24809W        W41656   0.276   5.523   3.099 -0.0465  0.2859  0.1637
24810W        W41657   7.770   3.818  10.846 -0.3231 -0.1902  0.1306
24811W        W41658   0.616  18.761  12.417 -0.1530 -0.4404  0.2047
24812W        W41659  15.538  16.291  12.867  0.3199  0.2433 -0.0321
24813W        W41660   9.147   2.328   2.390  0.4449 -0.6609 -0.0468
24814W        W41661   7.133  13.277   4.824  0.0782 -0.0989 -0.0068
24815W        W41662  17.284   4.808  10.386  0.3820  0.1567 -0.2446
24816W        W41663   5.686   3.151  12.881 -0.1244 -0.1340  0.0355
24817W        W41664   8.360  11.075   3.529  0.1401 -0.0346  0.0485
24818W        W41665  19.112   6.797   2.864 -0.3060 -0.0880  0.1847
24819W        W41666  16.789  15.726   9.742 -0.1460 -0.0693  0.1939
24820W        W41667  11.712   9.019   3.501 -0.2918 -0.2405 -0.3420
24821W        W41668  11.475  19.357   3.228  0.1341 -0.2035  0.2046
24822W        W41669   9.149  15.173   4.155  0.2748  0.1974 -0.2067
24823W        W41670  15.334   0.511  10.953  0.1112  0.2764 -0.2153
24824W        W41671   4.235   0.207   0.005 -0.1908 -0.0826 -0.1688
24825W        W41672   5.502  10.113   3.594  0.0580  0.0242 -0.0073
24826W        W41673  15.839   1.387  13.210  0.1746 -0.0263 -0.2670
24827W        W41674   2.695   6.124   3.477 -0.0838 -0.1393  0.0789
24828W        W41675   2.514   7.616  11.245 -0.0195 -0.0753 -0.3855
24829W        W41676   7.604   7.961   3.479 -0.1243 -0.2748 -0.0266
24830W        W41677   5.647  15.120   4.366 -0.2331  0.0997 -0.2556
24831W        W41678  14.213  19.124  11.228 -0.2655  0.0369 -0.3296
24832W        W41679  13.730  19.065   4.828  0.1275  0.0729 -0.3111
24833W        W41680   0.815  16.221  13.771 -0.1116 -0.0764  0.4049
24834W        W41681  10.398  10.335  14.224 -0.0638 -0.1197 -0.0827
24835W        W41682   8.705   1.066   0.548 -0.1215 -0.0336  0.0498
24836W        W41683   3.278  11.351  12.994 -0.2789  0.0419  0.0133
24837W        W41684  11.892   6.606   2.215 -0.1181  0.3626 -0.2896
24838W        W41685  17.634  17.138   9.923  0.2137 -0.1629 -0.1140
24839W        W41686   8.871  17.661   3.031  0.0555  0.2285  0.0278
24840W        W41687   5.926  11.753  10.692 -0.0259  0.0580 -0.1200
24841W        W41688  17.087   1.865   1.778 -0.0347 -0.0426 -0.5363
24842W        W41689  15.596  14.020  10.951  0.0987  0.0568  0.0750
24843W        W41690   2.860  15.765  13.635  0.0154  0.2298 -0.1567
24844W        W41691  13.415   0.757   2.437  0.0651  0.2575  0.1313
24845W        W41692   2.703  19.659   2.285 -0.1788 -0.2533 -0.0665
24846W        W41693   4.418  19.266   9.404  0.0182  0.3908  0.0148
24847W        W41694   9.825   6.192   2.356  0.3044  0.1790 -0.3275
24848W        W41695  18.273   8.627   3.803  0.5676  0.1090 -0.1551
24849W        W41696  11.132  12.797   5.003 -0.0185 -0.1189 -0.0555
24850W        W41697  18.482   6.938  12.426  0.2761  0.0358 -0.0182
24851W        W41698   3.465  14.099  11.042  0.2043  0.0168  0.1339
24852W        W41699  14.710   0.839  12.829 -0.0615  0.3700  0.0284
24853W        W41700   8.047   5.098   2.398  0.1370  0.3447 -0.0085
24854W        W41701  10.788   4.700  12.423 -0.3262 -0.1214  0.3501
24855W        W41702  10.023   8.080  12.445  0.4610 -0.0690  0.1894
24856W        W41703   8.749  19.475   0.320  0.1310  0.2222  0.3198
24857W        W41704   5.266   9.410  12.368 -0.0103  0.0779 -0.3047
24858W        W41705   7.853  15.681   1.104  0.1635  0.4870 -0.1665
24859W        W41706   2.937   7.842  11.399 -0.0886  0.2705  0.0897
24860W        W41707  19.456   0.586   0.396 -0.1806  0.1688  0.3085
24861W        W41708  12.339   4.483  11.642 -0.2311  0.0168 -0.0505
24862W        W41709  17.297  11.817   9.930  0.3983  0.0396  0.0080
24863W        W41710  12.449   7.513   3.226  0.0439  0.1307  0.0274
24864W        W41711   0.989  13.209  12.381  0.2618  0.0782  0.0301
24865W        W41712  10.972   2.785   0.245 -0.0796  0.3414  0.0920
24866W        W41713  19.163  12.731   4.017  0.0588 -0.0662  0.2478
24867W        W41714   9.193   9.329   3.609 -0.0164 -0.3089  0.0241
24868W        W41715  11.898   3.970   0.215 -0.0291  0.0737  0.1512
24869W        W41716  15.882   6.130   9.666 -0.0714 -0.1308 -0.1155
24870W        W41717   3.748   6.405  10.211 -0.0565  0.2433 -0.1516
24871W        W41718   7.229  13.745  14.210 -0.0959  0.0021  0.0928
24872W        W41719   6.081   6.427  10.735  0.1183 -0.2433 -0.1755
24873W        W41720  15.327  18.582   4.024  0.1684 -0.0847 -0.2221
24874W        W41721   7.613  16.485   4.473 -0.1302 -0.0630  0.1142
24875W        W41722  17.223  10.787  10.964  0.1167  0.1793 -0.0508
24876W        W41723  15.401   2.100  11.034 -0.1138 -0.0114  0.3091
24877W        W41724   5.392   9.555   2.076 -0.0974 -0.0458  0.1567
24878W        W41725   0.270   8.243  10.429 -0.2002  0.0768  0.0459
24879W        W41726   9.183  16.183   4.142  0.2602 -0.2789 -0.2302
24880W        W41727  13.382   0.669   1.858  0.0986  0.1224 -0.0896
24881W        W41728   7.509  10.830   2.109 -0.0869 -0.4412 -0.0468
24882W        W41729   2.783  18.703  12.701  0.0875 -0.1132  0.1143
24883W        W41730   2.536  16.403  12.961 -0.3651  0.0823 -0.3034
24884W        W41731  11.122   5.560  13.572  0.1115  0.0404  0.1105
24885W        W41732   7.085  13.498  12.397  0.2917  0.0768 -0.2044
24886W        W41733  19.667  14.383   3.916  0.0946  0.1444 -0.1553
24887W        W41734  18.749   0.247  14.234  0.4800  0.1506 -0.2552
24888W        W41735   3.856   8.755   3.371 -0.0905  0.0501  0.1163
24889W        W41736   9.784   9.866   4.038 -0.0787 -0.3368 -0.0477
24890W        W41737   8.415  19.884   0.242  0.1845  0.2318 -0.2112
24891W        W41738  19.624   1.778   9.433 -0.1303  0.0688 -0.2674
24892W        W41739   9.601  15.946  14.173 -0.0631 -0.0952 -0.0149
24893W        W41740   8.431  10.710   2.555  0.0286  0.1239 -0.0438
24894W        W41741   4.315   2.938   0.287  0.0646  0.0152  0.0486
24895W        W41742   6.429   4.622  10.240  0.0970 -0.0104  0.0884
24896W        W41743   1.365  18.140   0.112 -0.0273  0.4429  0.1646
24897W        W41744  18.496  18.999  14.086  0.0948  0.2213  0.0568
24898W        W41745   3.804  13.391   3.681  0.0834 -0.1510 -0.2962
24899W        W41746  18.937   1.499   2.150 -0.0423 -0.4481 -0.0933
24900W        W41747   0.978  15.053   0.811  0.1654  0.2082  0.4815
24901W        W41748   7.831   8.810  11.111 -0.0297  0.0314  0.1099
24902W        W41749   9.919   9.358   3.147  0.1156 -0.0625 -0.0030
24903W        W41750   3.154   4.527   3.396 -0.1516 -0.0687  0.3408
24904W        W41751   9.984  18.315  10.719  0.2266 -0.1782  0.1213
24905W        W41752  16.556   4.855   2.468  0.1732 -0.1354 -0.1183
24906W        W41753  15.690   4.629  11.947 -0.0900 -0.3433 -0.1828
24907W        W41754  11.011   8.021  12.285  0.2275 -0.0808 -0.2315
24908W        W41755  12.063   9.983  11.513  0.0247  0.2135  0.1987
24909W        W41756  10.626  16.607   4.251  0.1053  0.1375  0.0102
24910W        W41757  11.167   2.839  14.133 -0.0727  0.0782  0.2389
24911W        W41758  12.986   6.991   3.696  0.0256  0.0002  0.1015
24912W        W41759   6.028  10.681   0.123  0.4230 -0.2245 -0.3106
24913W        W41760   3.797   5.944   9.882 -0.2144  0.0698 -0.0984
24914W        W41761   5.355   7.921   4.066 -0.2083 -0.3884 -0.2176
24915W        W41762   4.419   1.275   2.812 -0.2256 -0.1839  0.2448
24916W        W41763  15.025   9.605   3.196 -0.0902 -0.1402 -0.2727
24917W        W41764  17.175   6.155  11.957 -0.2986  0.0593 -0.2792
24918W        W41765   2.065   0.336   0.905 -0.2973 -0.0673  0.3448
24919W        W41766   6.238   8.063   0.478 -0.1169  0.0408 -0.4738
24920W        W41767   6.776   1.750   1.161  0.2244  0.1090 -0.0581
24921W        W41768   0.540  10.401  10.542  0.3245  0.2364  0.1353
24922W        W41769  19.660   5.852   1.641 -0.0108  0.0215  0.1827
24923W        W41770  18.703  16.013  10.029 -0.2069  0.2688  0.0558
24924W        W41771  11.558  15.278   1.008 -0.1944  0.2971  0.2048
24925W        W41772   2.069   2.432   3.857  0.0704 -0.0250  0.2491
24926W        W41773  11.818   3.910  11.384 -0.1335  0.1974 -0.0207
24927W        W41774   0.347   4.100  14.305 -0.2514  0.2052 -0.1021
24928W        W41775  18.836   5.934   1.106  0.1441  0.0207  0.2072
24929W        W41776   1.203  16.999  10.353  0.2271  0.1346  0.2009
24930W        W41777   3.011   2.139  13.408 -0.2195  0.0395  0.3748
24931W        W41778   4.939  10.336   1.014  0.0537  0.0073  0.0933
24932W        W41779  14.809  14.601  11.836  0.0666  0.1558 -0.0479
24933W        W41780   2.581  11.960  10.310 -0.2890  0.3111  0.0696
24934W        W41781   4.612  17.599   4.783 -0.1491  0.0241 -0.1988
24935W        W41782   1.902  19.520  11.446 -0.0263 -0.1572  0.2275
24936W        W41783   7.048   6.088   3.650 -0.1894 -0.0678  0.2284
24937W        W41784   2.410   2.575   1.987 -0.0586 -0.1560 -0.1717
24938W        W41785   3.678  15.051  11.777  0.1444 -0.3466  0.0939
24939W        W41786   7.227  18.810   1.224 -0.1316  0.2103 -0.0847
24940W        W41787   9.218   7.019   1.165 -0.2959 -0.0068  0.1710
24941W        W41788   8.317   3.305   4.864 -0.0276  0.0993  0.3020
24942W        W41789  15.967   7.816  11.260  0.2200  0.0406 -0.2409
24943W        W41790   4.473   5.473   2.454  0.0995 -0.1397 -0.4522
24944W        W41791  19.462   5.493  11.518 -0.2492  0.4629 -0.3805
24945W        W41792  11.090   5.580   4.597 -0.2686  0.0107 -0.1143
24946W        W41793   9.624   6.837  11.998 -0.1836  0.0214  0.1415
24947W        W41794   3.181   6.813   5.214 -0.3052 -0.1444 -0.2126
24948W        W41795   9.320   5.913   2.380 -0.0561 -0.0354 -0.2239
24949W        W41796  17.146  14.119   2.358  0.2772  0.0199 -0.3484
24950W        W41797  14.687   0.283  13.648  0.1799 -0.2089  0.1137
24951W        W41798  17.704  18.886   1.932 -0.0732  0.0947 -0.6386
24952W        W41799  12.378  16.289  11.172  0.3595  0.3786  0.2314
24953W        W41800  17.704   3.631  13.398  0.4902 -0.4695  0.1824
24954W        W41801  15.845  19.040  13.509  0.1785 -0.1042  0.1742
24955W        W41802   3.391  19.546   3.654  0.0902 -0.2478  0.0080
24956W        W41803  15.825  15.115   2.556 -0.2736  0.1736 -0.0202
24957W        W41804  10.333  12.616   2.409 -0.0025  0.0136 -0.4305
24958W        W41805   6.478   9.678   4.288  0.3520  0.0720  0.1002
24959W        W41806   6.955   0.057   2.446  0.2628  0.3409 -0.0592
24960W        W41807   6.223  10.083   0.876  0.0191 -0.0077 -0.0374
24961W        W41808  10.518   7.291   2.454  0.1676  0.2272 -0.3143
24962W        W41809   9.351  16.545  11.760  0.2097 -0.2151  0.0309
24963W        W41810  14.924  16.059   4.659 -0.1808 -0.2104  0.0471
24964W        W41811   8.066   3.868  12.889 -0.0896 -0.0452  0.0491
24965W        W41812   7.873  10.861  12.964  0.0048 -0.0386 -0.2184
24966W        W41813  12.021  13.941   2.960  0.0627  0.2535 -0.1883
24967W        W41814  13.041  19.254  11.864  0.2582 -0.1711  0.0617
24968W        W41815   6.278   5.083   3.399  0.2246 -0.0459  0.3877
24969W        W41816  15.001   2.709  14.218  0.0401 -0.0846 -0.2906
24970W        W41817  11.913  12.742   4.122 -0.3683  0.1466  0.1109
24971W        W41818   6.564  15.220   5.399  0.0555  0.0007  0.0487
24972W        W41819   7.845  14.334  14.143  0.2153 -0.1135 -0.0876
24973W        W41820  14.442   8.806  13.339  0.2016 -0.2494 -0.1024
24974W        W41821  12.624   6.284  10.044  0.0957 -0.2890 -0.0064
24975W        W41822   1.605   7.047   1.087  0.1104  0.4252 -0.2891
24976W        W41823  19.483  13.682  13.516 -0.0609 -0.2788  0.0685
24977W        W41824  10.032   4.040  13.163  0.0295 -0.4043  0.1263
24978W        W41825   6.570   6.896   3.677 -0.4801  0.2167 -0.3471
24979W        W41826  14.696   7.230  10.718  0.2089 -0.1523 -0.4465
24980W        W41827  18.679   0.850   1.323 -0.5730  0.0200 -0.0039
24981W        W41828  12.707  17.709   4.916  0.0955 -0.2843  0.3239
24982W        W41829  15.648  11.832   3.969 -0.3006 -0.0416  0.0238
24983W        W41830   7.882  17.140   1.331 -0.2168  0.1392 -0.2230
24984W        W41831  16.447  12.959   1.030 -0.2642 -0.0643  0.0506
24985W        W41832  13.972  18.859   1.808  0.4197  0.0463 -0.0957
24986W        W41833   4.624   1.440   1.437  0.2305 -0.0156  0.3766
24987W        W41834   2.494   6.713   2.680 -0.0557  0.2557 -0.0009
24988W        W41835  15.904   9.016   1.342  0.1020  0.6377  0.1194
24989W        W41836   5.902   0.215  10.324  0.0523  0.2630  0.1358
24990W        W41837  13.592   4.709  10.604  0.3848  0.0075 -0.2160
24991W        W41838   2.863   1.644   9.926 -0.2765 -0.1106 -0.2713
24992W        W41839  13.928   3.659  12.994  0.1819  0.2148 -0.0613
24993W        W41840   9.181  13.891  12.717 -0.1800  0.0595  0.1740
24994W        W41841  13.252   5.131   3.270  0.1082  0.0439  0.2644
24995W        W41842  19.809   6.740   9.560 -0.1805  0.0028  0.0032
24996W        W41843   6.565  10.078  12.133  0.0749  0.4185 -0.3323
24997W        W41844   9.044  15.862  10.770 -0.0267  0.3241  0.2867
24998W        W41845  16.265   5.473   1.388 -0.0682  0.2072 -0.0735
24999W        W41846  12.154  12.268  13.309  0.1814  0.0555  0.1232
25000W        W41847  19.453  14.791  13.808  0.1362  0.1337 -0.1382
25001W        W41848   1.812   3.160   1.670 -0.2337  0.3850 -0.0089
25002W        W41849   9.701  11.188   2.689 -0.2032 -0.0409 -0.0443
25003W        W41850  15.776  19.784  14.185 -0.1321 -0.3347  0.0840
25004W        W41851  12.726  10.073  10.773  0.1744 -0.1952  0.1361
25005W        W41852   5.232   5.211   4.913  0.0565 -0.2044  0.1758
25006W        W41853  12.142   9.423  13.984 -0.0175 -0.1515 -0.1454
25007W        W41854  10.595  14.630  11.005 -0.0859 -0.1744 -0.1687
25008W        W41855   1.019   8.184   0.725  0.1865  0.0649  0.1457
25009W        W41856   3.414   9.339   2.385  0.0946  0.0233  0.1515
25010W        W41857   9.749   3.104   2.217 -0.0690 -0.2468  0.0975
25011W        W41858  18.083   8.718   0.302  0.0748 -0.2001  0.0151
25012W        W41859   6.778  14.349   3.337  0.4125 -0.1078 -0.0116
25013W        W41860  11.515   4.616   3.102 -0.0745 -0.0790 -0.0729
25014W        W41861   4.946  17.779   0.529 -0.1571  0.1351  0.1595
25015W        W41862  18.165   8.711   4.250 -0.2207 -0.1220 -0.2469
25016W        W41863   8.201   9.722   3.681 -0.1222 -0.1722  0.2689
25017W        W41864  13.825   3.348  11.262 -0.0979 -0.1137 -0.2916
25018W        W41865   5.926   6.228  13.058  0.1250 -0.1465 -0.6510
25019W        W41866  16.364  13.192  10.785 -0.3756 -0.0430 -0.0388
25020W        W41867   4.256  16.716  12.950  0.2404 -0.0021 -0.1546
25021W        W41868  15.996   0.567  13.401 -0.5103 -0.2658  0.1093
25022W        W41869  10.934  15.376   9.898 -0.1425 -0.1387 -0.0574
25023W        W41870   0.457   7.551   4.680  0.3371  0.2674 -0.1803
25024W        W41871   3.423  12.594   2.430 -0.0241 -0.2300 -0.1537
25025W        W41872  16.849  19.503  14.330  0.1090  0.1400  0.1919
25026W        W41873   3.427   8.590  12.782  0.2180  0.5727 -0.3276
25027W        W41874   5.947   1.422  14.087 -0.1775 -0.2235 -0.4195
25028W        W41875  12.154  19.641  12.550  0.1911  0.3000 -0.0829
25029W        W41876  14.746   7.151   2.333  0.0147 -0.5439 -0.1431
25030W        W41877   5.104   0.001   3.752  0.2037 -0.0924  0.0483
25031W        W41878  13.429  12.816  10.419 -0.4018  0.0044 -0.0885
25032W        W41879  12.178  16.966   0.013 -0.0089  0.0685  0.0700
25033W        W41880  18.955  16.675  11.703 -0.2175 -0.0817 -0.0349
25034W        W41881   8.752   7.438   3.887  0.1684 -0.0503  0.2389
25035W        W41882   5.709  13.705   4.870 -0.1696  0.0979 -0.0573
25036W        W41883   6.643   4.751   3.626  0.0597  0.1169  0.0922
25037W        W41884   4.148   6.668   3.407  0.2952 -0.0536  0.0151
25038W        W41885   8.637   2.328   2.972 -0.0277  0.0864 -0.1490
25039W        W41886  14.804   6.856   4.306 -0.0370 -0.3873  0.0744
25040W        W41887  11.574  16.118  13.641  0.1910  0.1716  0.4238
25041W        W41888   1.171   7.944  12.269  0.0418  0.2588  0.1276
25042W        W41889   5.915  14.924  12.609 -0.2664  0.1337  0.0207
25043W        W41890  11.023   3.783  12.454  0.0106  0.1186 -0.1658
25044W        W41891  14.284   6.606  10.972 -0.1946  0.0001 -0.1802
25045W        W41892   1.114   5.627   0.549  0.0828  0.3031  0.0877
25046W        W41893  13.201   9.765   1.015  0.2270 -0.0774  0.1801
25047W        W41894  15.748   8.819  12.628  0.0794  0.0863  0.0041
25048W        W41895   6.368  14.681  13.329 -0.1017  0.1477  0.1849
25049W        W41896  14.747   1.779   1.681 -0.0976  0.1099  0.1864
25050W        W41897  12.196   3.039   9.897  0.0888  0.0455  0.1398
25051W        W41898  18.311   5.332  14.274 -0.0374  0.1985 -0.2095
25052W        W41899  10.869   9.760  13.072  0.2174  0.2217  0.1304
25053W        W41900  19.274  16.665   3.770  0.1872 -0.2248 -0.0420
25054W        W41901   9.944   2.184   1.387  0.1862  0.1281  0.1768
25055W        W41902  11.832  19.061  10.045  0.3129 -0.0976  0.4676
25056W        W41903  14.092   3.309   0.682 -0.0606  0.0753  0.0889
25057W        W41904   5.280  14.303  12.213  0.0600 -0.2857  0.0127
25058W        W41905   0.489   9.548   4.536 -0.0134  0.0254  0.2041
25059W        W41906   2.518  18.706   0.843 -0.0065 -0.0680  0.4030
25060W        W41907   3.553   1.391   3.982  0.0743 -0.0629  0.1155
25061W        W41908   5.630   4.924  13.206 -0.1998  0.2501 -0.2762
25062W        W41909   2.520   5.490  13.147  0.0432  0.0928  0.4813
25063W        W41910   1.119  19.668   2.229 -0.3427  0.1102 -0.1914
25064W        W41911   8.208  18.060  13.314 -0.0753 -0.1531  0.0714
25065W        W41912   3.179  18.293  11.479 -0.0540  0.2692  0.0459
25066W        W41913  18.912  11.754   2.390  0.0388 -0.0720  0.1580
25067W        W41914  10.885  18.311  11.744 -0.1415 -0.2592  0.1582
25068W        W41915   2.132  13.973   2.364 -0.1632  0.0465 -0.0025
25069W        W41916  17.825   2.345  12.285 -0.2603  0.2596 -0.0443
25070W        W41917   2.079   5.717   1.231 -0.0252  0.0539 -0.3290
25071W        W41918  13.855  16.521   0.632 -0.1203 -0.3314 -0.3773
25072W        W41919  17.924  18.647   2.948  0.2916 -0.0655 -0.3055
25073W        W41920   1.938  18.304  12.163  0.1183 -0.1224  0.0678
25074W        W41921   7.035   1.412   1.477  0.0489  0.0303 -0.1984
25075W        W41922  13.767   8.684  12.014 -0.2496  0.1730 -0.0077
25076W        W41923   7.697   9.416   0.596 -0.0657  0.0594 -0.3361
25077W        W41924  14.263   9.967  13.427 -0.1114 -0.1083 -0.1361
25078W        W41925  14.882   3.860   4.288  0.0764  0.2426  0.0763
25079W        W41926  12.060  16.140  13.773  0.1525 -0.0182 -0.2745
25080W        W41927   4.788   0.126  13.334  0.1080 -0.3093 -0.3787
25081W        W41928  18.847   0.244   2.644  0.0443  0.0958 -0.1238
25082W        W41929   7.821  11.466   1.519 -0.2077  0.1829  0.0160
25083W        W41930   0.499  13.005  13.110  0.2265  0.1156 -0.2050
25084W        W41931  15.463   7.075  13.672  0.1671  0.3329  0.0142
25085W        W41932  19.379  18.229  10.111  0.1723 -0.0384  0.2127
25086W        W41933   1.489  15.210   1.420 -0.1157 -0.2153 -0.3654
25087W        W41934   2.539   7.315  11.735  0.0384  0.2524  0.2038
25088W        W41935  13.147   0.275  10.186  0.1999  0.0389 -0.1658
25089W        W41936  11.796  19.724  12.814  0.0887 -0.0979 -0.1284
25090W        W41937   1.342   9.909  11.299  0.0366 -0.2408  0.0950
25091W        W41938  11.568  11.072  13.927 -0.3030 -0.0082  0.0798
25092W        W41939   9.813   9.629  11.660 -0.2872  0.1537  0.1860
25093W        W41940   1.407   5.343   1.976 -0.1850  0.1501  0.1896
25094W        W41941   3.736  12.322  12.621 -0.2839 -0.0571 -0.1019
25095W        W41942   8.551  11.056   4.569 -0.2675 -0.0291 -0.0392
25096W        W41943  11.383  14.035  10.947  0.0320  0.3553  0.2368
25097W        W41944   8.065   5.286  11.319  0.4985  0.0538 -0.1464
25098W        W41945  14.886  18.240   1.106  0.3390 -0.3769 -0.0166
25099W        W41946  16.830  18.480  11.488  0.0200 -0.1615  0.0449
25100W        W41947  18.920  16.352   4.117  0.2271  0.2099 -0.0110
25101W        W41948   9.165  19.433  13.114 -0.0167 -0.1647 -0.1441
25102W        W41949   5.391   5.897   2.315  0.1952 -0.0311 -0.0085
25103W        W41950   4.390  19.798  11.692 -0.3771  0.1318  0.2210
25104W        W41951   6.764  14.287   5.385 -0.0568 -0.3142 -0.0797
25105W        W41952   9.046   3.789   9.795 -0.0298 -0.0259  0.1544
25106W        W41953   2.725   7.457  10.739  0.1505  0.1212  0.3993
25107W        W41954  11.164  16.614   2.567 -0.2133  0.2199  0.0530
25108W        W41955   0.763  17.778  13.668  0.0847  0.4254 -0.0835
25109W        W41956  18.294   9.830   0.868 -0.2199 -0.2739 -0.1600
25110W        W41957   2.615   3.931   1.647  0.1167 -0.2223  0.2032
25111W        W41958   9.703  14.145   2.000  0.3687  0.1649 -0.1243
25112W        W41959   0.355  15.275  11.730  0.2247  0.0719  0.0580
25113W        W41960  16.209  19.352   2.865  0.0994 -0.3264 -0.0389
25114W        W41961   8.687   3.793  10.865  0.0801 -0.1455 -0.2655
25115W        W41962   0.407  11.112   3.719  0.2345  0.1967 -0.3559
25116W        W41963  17.636   1.128   4.198 -0.2774 -0.2179  0.0185
25117W        W41964   8.423  16.569   1.614  0.2279 -0.0462  0.1782
25118W        W41965   6.220  18.352   3.077  0.2361 -0.0222  0.0590
25119W        W41966   8.539   5.859  10.304  0.0218 -0.2967  0.0896
25120W        W41967   5.365  13.726   0.770 -0.1677  0.2585 -0.0133
25121W        W41968   9.137   5.773  13.477 -0.0069  0.1269  0.0692
25122W        W41969   3.557  13.458  11.970 -0.0457 -0.0346 -0.1375
25123W        W41970   6.460  10.446  12.975  0.3562  0.0868  0.0150
25124W        W41971  19.381   2.980  10.732  0.1969 -0.0565 -0.2216
25125W        W41972   8.019  15.284   4.040 -0.0100 -0.1685  0.0280
25126W        W41973  18.923   0.727   0.431 -0.3481 -0.1443 -0.1120
25127W        W41974  18.938   1.024   1.861  0.0142  0.0572  0.3793
25128W        W41975   2.629  10.254   2.310 -0.0941 -0.0687  0.2564
25129W        W41976   1.355   9.776  13.996  0.0830  0.1994 -0.1695
25130W        W41977   3.177   3.352  12.287  0.2070  0.0960  0.2463
25131W        W41978  13.492  10.491  13.623 -0.1227 -0.2238 -0.6320
25132W        W41979   4.841  19.594   0.560  0.1697  0.0024 -0.0175
25133W        W41980   6.739  15.412   4.458  0.1858  0.2793 -0.2530
25134W        W41981  17.122   4.188   2.585 -0.0314 -0.2491 -0.3223
25135W        W41982   8.368   9.169  11.219 -0.0676  0.0517  0.1106
25136W        W41983   6.730   7.039   4.465 -0.1789  0.0964 -0.1352
25137W        W41984  13.356   5.524   9.903  0.0830  0.2640 -0.2200
25138W        W41985  18.337   3.165   4.114 -0.0191  0.1116  0.1157
25139W        W41986   8.970   6.045   2.949 -0.1835 -0.3419 -0.0691
25140W        W41987  19.431  18.207   1.470 -0.0160  0.0949  0.0259
25141W        W41988   8.784  10.200  13.159  0.2890 -0.1358 -0.1170
25142W        W41989   7.961   9.248   0.183  0.2452 -0.0894  0.2369
25143W        W41990  14.558  12.298   9.945  0.1413  0.0822 -0.3614
25144W        W41991   0.716   4.197   1.743 -0.0982 -0.4467  0.0935
25145W        W41992   5.765  15.757  13.022 -0.2181  0.2033  0.0793
25146W        W41993  17.576   7.791   1.401 -0.0298  0.1044 -0.0508
25147W        W41994  12.524  18.116   4.162 -0.1679 -0.2819  0.1948
25148W        W41995  11.221  14.342  11.748  0.0511 -0.0339 -0.1325
25149W        W41996  13.383   6.619  13.778  0.2583 -0.1990 -0.0177
25150W        W41997   4.048  19.412  13.182  0.2240  0.0725  0.1952
25151W        W41998   8.237   2.453   3.255 -0.1212  0.1095 -0.0869
25152W        W41999  18.206  10.168   3.987  0.2927 -0.0419  0.2432
25153W        W42000   1.501   9.024   1.706 -0.1012 -0.1836 -0.1123
25154W        W42001  14.748  11.280   3.588 -0.0154 -0.0714 -0.0880
25155W        W42002  13.298  18.658  13.934  0.0482 -0.0492  0.0788
25156W        W42003   9.523   7.565  12.906  0.2395  0.4248 -0.1263
25157W        W42004  16.632   2.012  13.505  0.0460  0.0360 -0.0847
25158W        W42005   6.537  10.684   2.743  0.2036 -0.2371  0.1045
25159W        W42006   2.013  19.296  10.992 -0.0729 -0.3311  0.0430
25160W        W42007  14.306   0.603  12.590 -0.2701 -0.3505 -0.4512
25161W        W42008  12.943  15.680   3.244 -0.0259 -0.1238  0.0119
25162W        W42009   7.103   0.128  11.032  0.0186 -0.0596  0.0999
25163W        W42010  16.260  15.985  10.744 -0.2935  0.2725  0.2438
25164W        W42011  17.157  17.207  14.142 -0.2740  0.1213 -0.2309
25165W        W42012   2.607  12.628   0.826  0.0090 -0.1137 -0.0908
25166W        W42013  10.757  15.418  13.336 -0.0311  0.0557 -0.1999
25167W        W42014  14.247  14.925   0.050  0.3717  0.1561  0.0082
25168W        W42015   9.420   2.478   4.037 -0.0708  0.2172  0.4580
25169W        W42016  11.437  13.611   1.460  0.1344 -0.4210 -0.0629
25170W        W42017   8.837  11.560   2.421 -0.1279  0.1553  0.0026
25171W        W42018  18.191  12.574  10.640 -0.1048 -0.1621 -0.3190
25172W        W42019  10.355  12.463   1.907 -0.1085 -0.0798  0.3842
25173W        W42020   8.914  10.733  10.992  0.3551  0.1135 -0.0420
25174W        W42021   2.540   9.826   3.889 -0.1449  0.0673 -0.1865
25175W        W42022  14.520   4.536  12.713 -0.0156 -0.0182 -0.2234
25176W        W42023   9.654   3.488   2.628 -0.0041  0.0973 -0.2711
25177W        W42024  19.043   6.472   2.088 -0.1008 -0.3581  0.3800
25178W        W42025   4.578  13.139   2.905 -0.3312 -0.0413  0.2042
25179W        W42026  13.030  16.547   3.459 -0.1800  0.1229  0.1915
25180W        W42027  13.410   3.229   2.627  0.0412  0.4836  0.1763
25181W        W42028   1.348   3.400  11.499 -0.1589  0.0101 -0.2004
25182W        W42029   0.819  17.867   4.205  0.2371 -0.2389 -0.1699
25183W        W42030  11.018  15.410  10.879  0.1168 -0.2167  0.4007
25184W        W42031   1.687  11.150   1.903  0.1931  0.0595  0.0444
25185W        W42032  18.385   1.896   5.046  0.2204 -0.1185  0.0555
25186W        W42033  13.593   7.834  12.642  0.0198  0.5036 -0.2571
25187W        W42034   6.187  19.183   3.362  0.1713  0.0981 -0.2958
25188W        W42035   8.324   7.110   0.053  0.2142 -0.0449 -0.1326
25189W        W42036   2.166   4.221   2.372  0.1860 -0.1141 -0.0278
25190W        W42037  16.369  15.309   2.485 -0.1726 -0.0097 -0.3551
25191W        W42038  12.394  19.531   0.206  0.1406  0.3891 -0.1829
25192W        W42039  11.802  18.916   4.860 -0.1148  0.1142 -0.0244
25193W        W42040  15.781  15.471  12.108 -0.3878  0.0085  0.2738
25194W        W42041   9.756   8.423   9.605  0.0783  0.0289 -0.1196
25195W        W42042   3.900   0.184   9.997 -0.2736  0.2062 -0.1753
25196W        W42043  11.334  14.703  13.212  0.1073  0.1046  0.0657
25197W        W42044  10.883  14.315   3.308  0.1067 -0.2051  0.2495
25198W        W42045  11.774   3.242  10.091 -0.1006  0.2188 -0.1482
25199W        W42046   5.923   6.395   2.082  0.0487  0.3452  0.3095
25200W        W42047  13.813   1.088   2.533  0.2196  0.1416  0.0799
25201W        W42048  17.946  17.907   2.146 -0.3164 -0.0270 -0.0076
25202W        W42049   3.278   8.050   0.771  0.0951 -0.0508  0.4137
25203W        W42050  17.038  16.364  12.970  0.3497 -0.2582 -0.2231
25204W        W42051  18.443   4.303  11.784  0.0856 -0.0281  0.2773
25205W        W42052   3.488   6.790  11.369  0.0591 -0.2118  0.1206
25206W        W42053   6.658  18.264   3.218  0.1421 -0.1831  0.3741
25207W        W42054  18.958   9.255   8.924  0.2152  0.0137  0.1711
25208W        W42055   0.570   6.328   1.991  0.3521 -0.0962  0.3933
25209W        W42056  14.929  14.646  13.642  0.2134 -0.0163 -0.2912
25210W        W42057  11.273  16.887   3.892  0.0384 -0.0933 -0.1710
25211W        W42058   4.740  13.903   1.708 -0.0340  0.2585  0.1147
25212W        W42059   8.654  10.691   0.260  0.0709  0.1140 -0.0002
25213W        W42060  18.269  16.096   4.188  0.1156  0.0127 -0.1134
25214W        W42061   8.963  10.257   9.793  0.0245  0.1973  0.1666
25215W        W42062   4.962  12.895  12.639  0.1120  0.2261  0.1301
25216W        W42063  11.342   4.728  11.294  0.1426 -0.2737 -0.1563
25217W        W42064  15.646   2.075  11.659  0.1098  0.6669  0.0572
25218W        W42065   0.915  11.074   0.141  0.1000 -0.1114  0.0317
25219W        W42066   7.987   0.601  10.932 -0.3589 -0.0289 -0.2268
25220W        W42067   1.500   4.781  11.934 -0.0178  0.0699 -0.1196
25221W        W42068  18.853  16.008  13.922  0.2116  0.0521  0.0796
25222W        W42069   2.410  12.567   4.313 -0.0577  0.4009 -0.0483
25223W        W42070   8.472   7.156   2.416 -0.1084  0.2361  0.0417
25224W        W42071  15.345  10.115   1.703  0.2206  0.2059  0.0883
25225W        W42072   9.923  18.568   1.297  0.1400 -0.2386 -0.2953
25226W        W42073  16.239   6.208   1.775  0.0537 -0.0559  0.2008
25227W        W42074   2.454  10.199  13.354  0.0296 -0.4264  0.3312
25228W        W42075   5.363   3.050   2.673 -0.2501  0.1022 -0.2660
25229W        W42076  10.565  17.298   4.996  0.2256  0.4354 -0.0299
25230W        W42077  11.681  19.039  14.328 -0.1435 -0.3863 -0.2914
25231W        W42078   1.386  15.001   2.815  0.2262 -0.0904 -0.0294
25232W        W42079   3.887   7.999  13.403 -0.3594 -0.4889 -0.0684
25233W        W42080   3.098   0.099   3.512  0.1519 -0.2834 -0.0945
25234W        W42081   4.893   2.141   1.942 -0.0133  0.1795  0.0441
25235W        W42082  10.624  11.194  10.549 -0.4696  0.1359  0.0306
25236W        W42083  10.168  19.566   3.371 -0.2414  0.3037  0.1292
25237W        W42084   2.953  14.692   4.878 -0.1103  0.2209  0.1490
25238W        W42085   0.863  12.040   1.905 -0.0788  0.1203 -0.1529
25239W        W42086  19.859  17.032   2.113 -0.1724 -0.1810  0.4725
25240W        W42087   2.637   4.540  12.905  0.0896 -0.1466  0.3305
25241W        W42088  18.700  10.387  13.420  0.2046 -0.2073 -0.0090
25242W        W42089   4.611  19.576   1.694 -0.3077  0.1422  0.1501
25243W        W42090  17.148  18.833   2.051 -0.4197 -0.2001  0.2247
25244W        W42091  17.115  14.320   1.179  0.0088  0.0069 -0.0985
25245W        W42092  11.670   0.162  11.076 -0.0642  0.0683 -0.0193
25246W        W42093  11.488   9.839  10.098  0.2188  0.1329  0.1261
25247W        W42094   1.971   1.124  11.108  0.1840  0.2076  0.0270
25248W        W42095   2.563   8.519  11.082  0.0185 -0.3388  0.0634
25249W        W42096  19.436  16.497   2.871  0.0503  0.0761  0.3031
25250W        W42097   0.218   8.511   2.756  0.0756  0.0296 -0.3224
25251W        W42098   5.745   7.841   1.800  0.2453  0.1346 -0.2726
25252W        W42099   1.699   2.486  11.906  0.0102  0.2676  0.0770
25253W        W42100  17.123   7.573  11.832  0.0886  0.1331  0.0814
25254W        W42101   6.218   2.706  14.210 -0.0190 -0.2541 -0.0751
25255W        W42102   2.443   9.911   2.623  0.0519  0.1752 -0.0081
25256W        W42103   6.388   5.233  14.091  0.0426 -0.4184  0.1319
25257W        W42104   0.937  12.427  13.878 -0.1284 -0.1486  0.2409
25258W        W42105  19.646   6.861   1.409 -0.0031  0.0678  0.2376
25259W        W42106   7.690   5.861  10.177 -0.2749 -0.1231  0.2229
25260W        W42107   2.869  14.200  13.154 -0.0568 -0.2420  0.0233
25261W        W42108  11.474  15.480  12.291 -0.0828  0.2181  0.3668
25262W        W42109   8.117   8.746   1.439  0.0834  0.2701  0.0067
25263W        W42110  18.172  17.573  10.484  0.2136  0.1812  0.0309
25264W        W42111  18.849   5.565  14.259 -0.1136 -0.0543  0.1149
25265W        W42112  13.814   2.637  13.817  0.2330 -0.0271 -0.4234
25266W        W42113  12.907  14.826   1.998  0.0732  0.2825  0.0725
25267W        W42114   1.295  13.867  11.858  0.2268  0.0670  0.3295
25268W        W42115  12.639   7.838  12.489  0.0520  0.1384 -0.1396
25269W        W42116  15.209   5.067   4.055  0.1310  0.0688 -0.1588
25270W        W42117   4.370   9.020  11.795 -0.1261  0.1031 -0.2049
25271W        W42118   6.944  15.903  11.370 -0.0246 -0.1998 -0.2647
25272W        W42119   3.370  10.169  12.595  0.0053  0.1546  0.0569
25273W        W42120  15.905   2.341  10.458  0.2390 -0.0235  0.0101
25274W        W42121   6.042   9.589   5.525 -0.0399  0.0509  0.0650
25275W        W42122   1.550  18.258   3.203  0.1884 -0.1912 -0.0875
25276W        W42123  15.637  18.349  11.886  0.2255  0.3166 -0.1352
25277W        W42124  18.248   0.890  13.829  0.2283 -0.0654  0.3385
25278W        W42125  15.852  16.853   4.573  0.0296 -0.0218  0.2808
25279W        W42126   6.606   2.512   0.327  0.0397  0.0826 -0.1941
25280W        W42127   1.642   8.478   0.843  0.2466  0.2033 -0.2035
25281W        W42128  14.484   0.502   3.916  0.0812  0.1409  0.1837
25282W        W42129  12.862   5.006  13.933 -0.1227  0.0474 -0.1711
25283W        W42130  10.506  17.018   0.007  0.0559 -0.1968  0.4657
25284W        W42131  17.540   8.527   9.895  0.0652  0.1982  0.2755
25285W        W42132   4.270   8.477  13.077 -0.0405 -0.2082  0.3348
25286W        W42133   3.911   4.054   1.854 -0.1504 -0.1631  0.0163
25287W        W42134  18.368  16.601   2.871  0.1716  0.0421  0.3048
25288W        W42135   1.777  11.787  13.538 -0.2434 -0.1318  0.1497
25289W        W42136  12.554   1.474  10.342  0.2352 -0.2035  0.0840
25290W        W42137   3.933   1.974   0.222 -0.3126  0.3039 -0.2707
25291W        W42138  14.125   5.584  12.713  0.1166 -0.1066 -0.0674
25292W        W42139   7.079   6.268  14.313 -0.0929  0.0885  0.2082
25293W        W42140   4.983   8.538  12.516  0.3471  0.0432  0.1180
25294W        W42141   1.992  15.832  14.091  0.0449 -0.1251  0.2297
25295W        W42142  15.613  17.066   1.769  0.1686 -0.0458  0.4236
25296W        W42143   0.214   0.618   4.258 -0.1441 -0.1753  0.1065
25297W        W42144  17.852  19.564  10.770  0.2212 -0.1960 -0.1859
25298W        W42145   1.171   5.213   0.154 -0.0362 -0.1359  0.1005
25299W        W42146   2.557   4.588   0.667 -0.1652  0.0440  0.2276
25300W        W42147   9.333   5.071   9.158  0.0547 -0.1328  0.0304
25301W        W42148  18.881   1.985  13.886 -0.0506 -0.4691  0.0210
25302W        W42149   4.964  17.526   2.867 -0.2876  0.0196 -0.0858
25303W        W42150   3.094  13.196  12.951  0.1391 -0.0032 -0.2125
25304W        W42151   3.083  11.336   9.241  0.1263  0.0904 -0.1196
25305W        W42152   5.988   7.077   1.302  0.1577 -0.2001  0.1796
25306W        W42153  10.935   6.787  11.896  0.0619  0.2244  0.3626
25307W        W42154  19.378   1.585   0.020 -0.0294  0.3800 -0.0305
25308W        W42155   6.206   3.876  10.516 -0.1855 -0.1923 -0.2982
25309W        W42156  18.792   8.365  13.849  0.0024  0.1498  0.5124
25310W        W42157  19.815  18.560  10.985 -0.1420 -0.0922  0.2441
25311W        W42158   1.559   2.906  12.716  0.2335 -0.0250 -0.2588
25312W        W42159  11.135  16.518   0.454 -0.1046  0.1227  0.2109
25313W        W42160  16.280   7.098  14.356  0.2510 -0.0844 -0.2050
25314W        W42161   2.548   2.883  13.853 -0.1643 -0.0577  0.0766
25315W        W42162  11.362   1.662  11.110  0.2638 -0.2904 -0.3056
25316W        W42163  10.965   9.770  11.443 -0.1650 -0.1620  0.0705
25317W        W42164  16.960  16.760   4.433  0.1038 -0.1158  0.0601
25318W        W42165   0.332  18.241  10.185  0.0897 -0.1460 -0.0915
25319W        W42166   7.678   5.652   0.412 -0.1942 -0.2038 -0.1740
25320W        W42167  10.427   5.526   3.526  0.2104 -0.1217  0.0956
25321W        W42168   2.092   4.098   9.958 -0.0640  0.2055 -0.2107
25322W        W42169  16.388  18.022  12.359 -0.0920 -0.1550  0.1251
25323W        W42170  12.028   7.024   1.886  0.1009 -0.1624 -0.4009
25324W        W42171   9.772  12.557  10.880 -0.0418  0.5019  0.0406
25325W        W42172  12.417   0.309   4.191 -0.0577 -0.0628  0.1561
25326W        W42173   3.496   9.075   0.798  0.0878 -0.0998 -0.0062
25327W        W42174  17.259  13.677   4.885 -0.2575 -0.1259 -0.0683
25328W        W42175   9.539  12.342   0.460  0.0632 -0.2505 -0.2994
25329W        W42176   0.117   9.913   0.293  0.1875 -0.2189  0.0561
25330W        W42177   4.046   4.667   2.557  0.1177  0.0173 -0.2701
25331W        W42178  14.802   1.952   4.066 -0.0279 -0.1944 -0.0493
25332W        W42179   6.204  10.037  11.776  0.0173 -0.0046  0.0292
25333W        W42180   7.051   7.236   4.951 -0.2409 -0.1033  0.0874
25334W        W42181   9.539   7.118   0.189  0.1344  0.2498  0.2308
25335W        W42182   4.616  16.484  12.128 -0.0150 -0.0742 -0.0161
25336W        W42183   2.854  11.506  10.269 -0.1431  0.3099  0.0747
25337W        W42184  18.019  12.825  10.242  0.1826  0.0004  0.4724
25338W        W42185  10.583   7.523   0.944 -0.1282  0.1174  0.0890
25339W        W42186   5.817  13.261   2.160  0.3119 -0.2613  0.4351
25340W        W42187   9.278   4.389   2.833 -0.2297  0.2486  0.1809
25341W        W42188   5.617   1.257   3.716  0.2019  0.0409  0.2150
25342W        W42189  14.740  17.743  13.724 -0.2564  0.0859 -0.1434
25343W        W42190  17.057  12.398  11.018 -0.0285  0.3478  0.0246
25344W        W42191   1.857   2.926   1.239 -0.1398  0.2486  0.2345
25345W        W42192  16.560   1.320  12.923  0.0409  0.0676 -0.1072
25346W        W42193  10.028  12.119  10.815 -0.0386  0.0409 -0.2010
25347W        W42194  10.520   5.687   1.025  0.0220  0.1176 -0.0569
25348W        W42195  18.027  10.535  12.754 -0.1109 -0.1807 -0.1333
25349W        W42196   6.301   7.502  13.096  0.1508  0.3591 -0.1571
25350W        W42197  16.230  13.236   2.248  0.0111 -0.2701  0.2267
25351W        W42198  11.811   2.167  13.725  0.2997 -0.1219 -0.2452
25352W        W42199   5.718  14.204   3.183 -0.3806 -0.0511  0.2186
25353W        W42200  11.276  11.840   2.361 -0.1967  0.1026  0.1776
25354W        W42201   4.031   1.342  14.008  0.0454 -0.0864 -0.1731
25355W        W42202  15.603  13.855  13.367 -0.0024  0.1248  0.2671
25356W        W42203  13.396  13.984  14.230 -0.0146 -0.1674 -0.1475
25357W        W42204  10.382   6.525  13.123  0.2191  0.1514 -0.1237
25358W        W42205  10.918   9.072   1.616 -0.2921  0.0665 -0.1965
25359W        W42206   7.483  17.527  12.354  0.1169 -0.0647  0.2363
25360W        W42207   1.299   0.111  12.253 -0.3403 -0.1050 -0.2291
25361W        W42208   9.817  14.987   2.509  0.0806  0.1321 -0.3066
25362W        W42209  10.081  19.617  10.661 -0.0683 -0.5311 -0.1513
25363W        W42210   6.832  19.476  13.965 -0.1858 -0.4185  0.3331
25364W        W42211  16.560   3.475   3.175  0.0163 -0.3378  0.1284
25365W        W42212   5.942   8.793  11.505  0.1393  0.2017 -0.1280
25366W        W42213  10.583  19.596  10.615  0.0587  0.2529  0.0599
25367W        W42214  19.207  13.644  11.872 -0.0329 -0.3778  0.2421
25368W        W42215   6.948  11.000  10.976  0.1396 -0.0516  0.2417
25369W        W42216   9.773  17.426   3.351  0.0029  0.0945  0.0873
25370W        W42217  19.678  19.667   0.624 -0.0034  0.3064  0.0178
25371W        W42218  14.632   4.413  14.095 -0.3039 -0.0979  0.0187
25372W        W42219   6.217  14.153   2.246  0.0050 -0.2758 -0.1065
25373W        W42220  17.195   5.481  11.769  0.0495 -0.1867 -0.0825
25374W        W42221  11.153  14.207  13.358 -0.0215  0.1560 -0.0836
25375W        W42222  19.751  17.409   2.536 -0.2348  0.3005  0.2081
25376W        W42223  16.547  19.491  11.481 -0.1531 -0.0059 -0.0149
25377W        W42224   7.742  11.285   1.969  0.6266 -0.2727 -0.0596
25378W        W42225   2.380   6.076   3.126  0.0060  0.0851  0.0090
25379W        W42226  13.270  15.561  11.684 -0.0803 -0.2386  0.0655
25380W        W42227  17.611   9.443   0.482  0.2993  0.2321 -0.0223
25381W        W42228  17.017  15.121   3.539  0.1044  0.1387 -0.0526
25382W        W42229   5.781   2.144   1.572 -0.2532  0.1008  0.0207
25383W        W42230   9.490   4.968  10.808 -0.0334  0.0507 -0.1057
25384W        W42231   4.652   2.285  13.832 -0.0680  0.0359 -0.1669
25385W        W42232  10.524   0.408   4.898  0.0232 -0.0745  0.2225
25386W        W42233  15.479  13.380  11.509 -0.1620 -0.2650  0.0355
25387W        W42234   4.775   4.667   2.056  0.0069 -0.0697 -0.4695
25388W        W42235  11.765   1.092   4.915 -0.1160  0.1795  0.2374
25389W        W42236   1.852   7.042  11.864 -0.2712 -0.3022 -0.0738
25390W        W42237  14.500   1.688  12.544  0.2310  0.2125 -0.0851
25391W        W42238   0.577  15.622  11.152  0.0560  0.4218  0.1340
25392W        W42239  16.825   4.397   0.292 -0.0484  0.1540 -0.0870
25393W        W42240   2.500  13.998  10.910  0.0169 -0.2347 -0.0685
25394W        W42241   2.050  18.951  14.200 -0.1741 -0.0995 -0.0075
25395W        W42242   3.014   7.264   2.000  0.0554  0.1117  0.2413
25396W        W42243  18.814  18.902  10.035  0.0034  0.1784  0.0114
25397W        W42244   7.844   7.032  10.449 -0.0753  0.1924 -0.0463
25398W        W42245  10.171  14.700   4.110  0.2416  0.1713  0.0479
25399W        W42246  17.794  10.894   2.220 -0.1231 -0.1332  0.2461
25400W        W42247   7.000   3.384  10.413 -0.0181 -0.0344 -0.4410
25401W        W42248  13.434   4.571   1.064  0.1135  0.0692 -0.0381
25402W        W42249  17.060   6.717   2.043  0.4094  0.2310 -0.0523
25403W        W42250   1.163  10.012  12.859 -0.3362  0.3039  0.0834
25404W        W42251  17.483  19.495   3.115  0.1713  0.0047  0.0091
25405W        W42252  15.228   4.608   2.449  0.1336  0.0861 -0.1215
25406W        W42253  12.976  10.505   1.850 -0.0594  0.2561 -0.2361
25407W        W42254   7.942  17.394   4.126  0.0024 -0.1118  0.1596
25408W        W42255  15.456   7.989   3.759 -0.0914  0.0876  0.0382
25409W        W42256  15.751   2.026   2.213  0.1067 -0.1019 -0.2846
25410W        W42257   7.776  18.900  12.112 -0.0585 -0.1974 -0.3748
25411W        W42258  14.793  12.876   3.396 -0.1507 -0.2221  0.1880
25412W        W42259  18.508   7.144   5.481  0.1086 -0.1328  0.1531
25413W        W42260   9.259  12.513   3.192 -0.0377 -0.1173 -0.1757
25414W        W42261  19.020  10.503   0.323  0.2937 -0.1680 -0.4920
25415W        W42262  14.383  16.260  10.717 -0.2249  0.2102 -0.3594
25416W        W42263   9.083   5.698  11.592  0.0711  0.0954 -0.0198
25417W        W42264  18.437  10.649  12.445  0.0583 -0.1011 -0.2474
25418W        W42265   4.741  13.884  12.597  0.1765  0.0664  0.2289
25419W        W42266  11.802   4.205  12.853  0.0825  0.0039  0.3575
25420W        W42267  18.176   1.418   2.449  0.3421 -0.0585 -0.0821
25421W        W42268  16.291   6.610   1.344 -0.2442  0.4169  0.1667
25422W        W42269  12.494  15.431  12.330  0.1265 -0.2534 -0.1674
25423W        W42270  14.875  17.950   2.770 -0.1840  0.2840 -0.0882
25424W        W42271  10.067  13.501   3.630 -0.3018 -0.2864  0.0286
25425W        W42272   0.119   9.677  11.528  0.1899  0.1178  0.2738
25426W        W42273   2.393  16.637   0.832 -0.3668  0.1941 -0.4690
25427W        W42274   5.706   9.530  12.550 -0.0501  0.3420 -0.0257
25428W        W42275  16.040  16.261  12.772  0.2966  0.1932 -0.3137
25429W        W42276  10.299   1.699  13.528 -0.1474  0.1979  0.0325
25430W        W42277   2.822  15.364   3.991 -0.1288  0.2073  0.1092
25431W        W42278  18.886   0.322  12.638 -0.4671 -0.0096  0.1460
25432W        W42279   3.960  13.626   1.138  0.1530 -0.1416 -0.1131
25433W        W42280  16.663   7.241   0.466  0.0154 -0.0362  0.0279
25434W        W42281  19.436   1.659  13.219 -0.1140  0.1988 -0.2306
25435W        W42282  17.587   1.008   1.865  0.1442 -0.1405  0.1849
25436W        W42283  19.630  10.431   3.283  0.2521  0.4692 -0.2049
25437W        W42284  10.048  12.691   3.234  0.0896  0.1727  0.0473
25438W        W42285   0.999   5.047  11.754 -0.3195 -0.1351  0.0184
25439W        W42286   1.686   8.967  11.232  0.3724  0.0709 -0.0719
25440W        W42287   1.459   3.864  10.789  0.3092 -0.2273 -0.1899
25441W        W42288   7.814  12.604  12.815  0.1669  0.1952 -0.0609
25442W        W42289  15.567  19.813   0.319  0.3963  0.2526 -0.0167
25443W        W42290  13.799   5.194   0.429  0.1900  0.4257 -0.3643
25444W        W42291   2.051   3.884  10.828  0.2777 -0.3029 -0.0377
25445W        W42292   5.108   6.121   4.871  0.0087 -0.1461 -0.0234
25446W        W42293  18.570   6.743   8.809 -0.1267 -0.0519 -0.1026
25447W        W42294  11.621   2.397  13.284 -0.1535  0.1383  0.1203
25448W        W42295  17.912  11.383   0.820 -0.3442  0.2509 -0.0099
25449W        W42296   4.486  13.241  11.497  0.0631  0.3111  0.4297
25450W        W42297   6.366   4.373  12.947 -0.0893  0.1887 -0.1616
25451W        W42298   2.184  14.956   0.448  0.0957  0.1913  0.2160
25452W        W42299  16.185   2.843   4.587 -0.1149 -0.1158 -0.0286
25453W        W42300  10.906  10.568  11.813 -0.1554 -0.0377  0.2878
25454W        W42301   1.557  13.322   5.060  0.1749  0.0280  0.2238
25455W        W42302  13.262   2.913   0.289 -0.0170  0.1920 -0.1264
25456W        W42303  10.103   8.493   3.919 -0.1953  0.1933  0.0579
25457W        W42304  16.303   6.772   2.431  0.0128 -0.0347  0.1140
25458W        W42305  15.090   2.802   3.377 -0.1235 -0.0398  0.0154
25459W        W42306  17.781   2.489   3.208 -0.0709  0.0822 -0.0505
25460W        W42307  14.396   4.656   1.656 -0.1222 -0.1126  0.2130
25461W        W42308   6.718   8.061   3.087  0.0875 -0.0969 -0.2842
25462W        W42309  11.941   7.259  11.768  0.0304 -0.0016 -0.3207
25463W        W42310   5.170   7.512  13.617  0.0451  0.2306  0.3752
25464W        W42311  12.243   9.497   1.359 -0.0044  0.0750  0.3392
25465W        W42312   8.179  18.504   2.813 -0.1401 -0.1279  0.0647
25466W        W42313  18.506   5.234   3.241 -0.2248 -0.1850 -0.1275
25467W        W42314  13.152   0.463   0.127 -0.0909  0.0203  0.1678
25468W        W42315  14.943   0.589   0.975 -0.4497 -0.0085  0.1953
25469W        W42316   2.289   9.236  11.185  0.2136  0.2453 -0.2267
25470W        W42317   1.959  10.974   2.754 -0.1261  0.3258  0.0915
25471W        W42318  13.444  11.645  12.180  0.2471 -0.4427  0.0299
25472W        W42319  11.241  12.286   2.658 -0.2465 -0.0042  0.1238
25473W        W42320   2.184   3.970   1.350 -0.0609 -0.3915 -0.4596
25474W        W42321   9.099  13.298  12.683 -0.1217  0.0357 -0.3740
25475W        W42322   0.703   7.394   2.401 -0.5233  0.1414  0.0139
25476W        W42323   3.277  14.966   3.290  0.2709 -0.2038 -0.0726
25477W        W42324  10.743   8.853  14.136  0.1911  0.0524 -0.0182
25478W        W42325   2.890   4.617  13.417 -0.0329 -0.1977 -0.1281
25479W        W42326   0.626  17.566   0.711 -0.0559  0.0199  0.0231
25480W        W42327   2.750   8.008  10.976 -0.0923  0.0391 -0.1216
25481W        W42328   9.005  15.289  11.017 -0.1805  0.0367  0.0216
25482W        W42329   9.826  11.145  11.474  0.0615  0.1537 -0.2018
25483W        W42330   3.737  18.594   1.530  0.0911  0.2455  0.1951
25484W        W42331  11.055   1.871   4.478  0.4274  0.0312  0.1280
25485W        W42332   6.079  10.944  11.422  0.1924  0.0761  0.1800
25486W        W42333  15.052   7.152  13.032  0.0996  0.0242 -0.0400
25487W        W42334  11.111   0.995  11.751  0.2408 -0.2067  0.0120
25488W        W42335  12.553  11.256  13.174 -0.1049  0.0498  0.1599
25489W        W42336  13.602  14.463   2.273  0.1609  0.5896 -0.1107
25490W        W42337   6.411  17.851  13.613  0.2557  0.5621 -0.0554
25491W        W42338  11.010  10.789  12.347 -0.2297  0.0151 -0.2337
25492W        W42339  13.547  12.190  11.431  0.2124  0.1276  0.1506
25493W        W42340  13.788  15.550  10.589  0.0666  0.3559  0.2624
25494W        W42341   7.781   2.520   4.734 -0.0094 -0.2293  0.1075
25495W        W42342   7.539   2.730   3.753  0.1763 -0.1405 -0.1162
25496W        W42343   0.069  16.050   0.647  0.2214  0.1545 -0.1037
25497W        W42344  18.137  16.361   4.634  0.3693 -0.0520  0.2199
25498W        W42345  16.760   7.609   1.953 -0.1593 -0.0801 -0.0432
25499W        W42346  17.274  10.593   1.211  0.2565 -0.1195 -0.4238
25500W        W42347  15.956  11.631  13.515 -0.1913 -0.3884 -0.0915
25501W        W42348   1.306  12.025  12.206  0.1557  0.0023 -0.0496
25502W        W42349   3.015  10.877  12.890 -0.1262  0.1317 -0.0601
25503W        W42350   1.124  16.379   4.305  0.0924  0.1540 -0.3366
25504W        W42351  15.332   8.660  12.225 -0.1392 -0.3473 -0.0679
25505W        W42352   6.825   8.801   4.675  0.1589 -0.0459 -0.2053
25506W        W42353   4.825   2.195   9.414 -0.0022 -0.1741  0.0922
25507W        W42354  18.989  18.515   4.243  0.1364 -0.0250 -0.0830
25508W        W42355  10.023  16.672   5.591 -0.3235  0.2832 -0.1266
25509W        W42356   0.666  11.909  11.449  0.3106 -0.0421  0.2554
25510W        W42357  12.976   7.677   3.073 -0.0286  0.0473 -0.1528
25511W        W42358  15.906   7.114   3.324 -0.1032 -0.1751 -0.2363
25512W        W42359  19.606  11.027   2.482  0.0033 -0.0606 -0.1555
25513W        W42360  18.573   5.131  11.548  0.2357 -0.2662  0.5309
25514W        W42361   0.758   5.793  10.802 -0.1634 -0.0997 -0.3158
25515W        W42362   4.104  12.758   1.379 -0.1705 -0.4285 -0.1353
25516W        W42363   6.984  15.392  11.510  0.2134 -0.1409  0.0870
25517W        W42364   0.195  18.135  11.842  0.0062  0.4100 -0.3328
25518W        W42365  17.763  14.692   3.202  0.2486 -0.0820  0.0099
25519W        W42366  18.509  17.051  10.845  0.4370  0.1629 -0.0096
25520W        W42367  13.728  19.130  12.905  0.0170  0.0838  0.2973
25521W        W42368  16.539  10.994   3.259 -0.0210 -0.3085  0.0692
25522W        W42369  11.404   9.060   1.494  0.1388  0.5400 -0.2139
25523W        W42370   0.661  14.333   3.677  0.3285  0.1421  0.3449
25524W        W42371   1.051  17.271   5.464 -0.2027  0.0307  0.1550
25525W        W42372  19.788   7.478  14.110 -0.0354  0.1937  0.2418
25526W        W42373  17.694   3.795   4.237 -0.3308  0.2271 -0.1552
25527W        W42374   8.498   8.239   1.843  0.2423 -0.0403  0.0657
25528W        W42375   7.228  13.135   3.150  0.0162  0.1795 -0.1069
25529W        W42376   0.693  16.105   0.706 -0.0774  0.0482 -0.1828
25530W        W42377   7.116   8.345   1.736  0.0102 -0.1859 -0.1693
25531W        W42378  17.832  19.593   1.923 -0.3966 -0.3013  0.3719
25532W        W42379  13.037   9.302   0.797 -0.0093  0.0958 -0.3477
25533W        W42380  14.521  13.144   1.279  0.2461 -0.2436 -0.2333
25534W        W42381  19.000  11.949  12.289 -0.1589  0.0532  0.0199
25535W        W42382   2.458  14.015   1.531 -0.1897  0.0540  0.1983
25536W        W42383  10.114  14.276   3.562  0.1292 -0.0752  0.0637
25537W        W42384   1.912  18.150  13.536  0.1352 -0.1590 -0.2044
25538W        W42385   2.277   4.414   1.757  0.0681 -0.2081 -0.4286
25539W        W42386  14.175   3.286   4.327 -0.2517  0.0268  0.3952
25540W        W42387   8.804  10.947   3.705 -0.2314  0.2016  0.1095
25541W        W42388   4.587   9.464   5.762 -0.0913 -0.1343 -0.1702
25542W        W42389  17.198  14.402   0.267 -0.2308  0.1231  0.0162
25543W        W42390  13.232   8.059  10.636 -0.2418 -0.2795  0.3855
25544W        W42391  14.347  16.583   0.957  0.2071 -0.0236  0.1652
25545W        W42392  13.131  19.656  10.144  0.0840 -0.2510  0.0671
25546W        W42393  13.055  15.598   2.214  0.3525 -0.4310  0.0752
25547W        W42394  14.064   8.246   3.108  0.1013 -0.0358 -0.0010
25548W        W42395  14.415   9.046   1.013 -0.1341 -0.2299  0.0888
25549W        W42396   0.514   1.469  10.691 -0.5922  0.3119  0.0056
25550W        W42397  19.059  18.349  11.877  0.1138  0.2661  0.1921
25551W        W42398  14.744   5.193   4.956  0.0074 -0.2769  0.0596
25552W        W42399  19.437   7.419   0.672  0.0942  0.1136 -0.4451
25553W        W42400   0.806   3.848  10.259  0.0320 -0.2485 -0.2076
25554W        W42401  10.006   6.973  14.198  0.2145  0.0538  0.1581
25555W        W42402   6.506   7.249   1.021  0.2733 -0.3115 -0.3648
25556W        W42403   1.679  15.886   4.592 -0.0307  0.2330 -0.1536
25557W        W42404   2.289   8.047   9.819  0.1628 -0.0336 -0.0646
25558W        W42405   8.152   4.518  10.551 -0.2843  0.0462  0.0457
25559W        W42406   0.212  13.877  12.266 -0.1386 -0.1225  0.3194
25560W        W42407  13.366  16.877  11.873  0.1279 -0.1819  0.1275
25561W        W42408   3.995   8.449   2.102  0.3088 -0.0042  0.1245
25562W        W42409  17.318   3.327  10.765  0.0954  0.1253 -0.0439
25563W        W42410   8.841   4.193   2.987  0.4903  0.1050  0.2949
25564W        W42411  16.965   9.061   1.941  0.2200  0.0707 -0.0853
25565W        W42412  12.574  13.662   0.702 -0.1317  0.1460 -0.5412
25566W        W42413  16.600  16.174   1.170  0.4153 -0.4687  0.1532
25567W        W42414  15.631   8.324   2.510 -0.4092 -0.1152  0.2436
25568W        W42415  19.660  10.443   1.488  0.1464 -0.0359 -0.3068
25569W        W42416   3.963   1.470  10.224  0.1846 -0.0931 -0.2442
25570W        W42417  17.671  15.255  10.594  0.2627  0.0602  0.0736
25571W        W42418   4.512   9.234  12.398  0.0506  0.0001 -0.0101
25572W        W42419   9.066  12.034   0.670  0.0905  0.1998 -0.0927
25573W        W42420  13.502  14.468  11.706  0.1064 -0.1315 -0.1459
25574W        W42421   1.719  14.572   3.472 -0.0771 -0.2387 -0.0786
25575W        W42422  14.408   1.149  12.526  0.3643 -0.1510  0.3430
25576W        W42423   7.902  10.157  14.151 -0.3606 -0.1227 -0.2286
25577W        W42424   3.215   5.433  12.614 -0.2042 -0.1307 -0.2974
25578W        W42425  10.369   6.106   3.963 -0.0571 -0.0191 -0.0819
25579W        W42426   7.308   3.752   9.469  0.2112  0.0339  0.2444
25580W        W42427  17.448  16.710  10.035 -0.0495  0.0598  0.0337
25581W        W42428  16.603   1.779  11.373 -0.0285  0.0103  0.0432
25582W        W42429   8.010   2.114   0.675 -0.1132  0.2041  0.1204
25583W        W42430   5.248  13.980   1.642  0.0959  0.3685  0.0017
25584W        W42431   7.319  12.520  12.586  0.0823  0.1753  0.1869
25585W        W42432  12.378   4.177  10.344 -0.0295 -0.1521  0.0221
25586W        W42433  15.389   9.802  14.113  0.3503 -0.2340  0.0531
25587W        W42434  12.822   7.334   4.011  0.0020  0.0903  0.2767
25588W        W42435   1.942  14.110   1.245 -0.0092 -0.0902 -0.1238
25589W        W42436   3.165  14.447  11.199 -0.1571 -0.0726 -0.1486
25590W        W42437   7.393  11.599  11.171  0.2531  0.1439 -0.1480
25591W        W42438  12.088  14.832  11.386  0.1618  0.3434  0.0106
25592W        W42439  18.012  12.944   4.825 -0.0271 -0.0058  0.0114
25593W        W42440   6.635   6.302  12.643  0.2620  0.0673  0.0402
25594W        W42441   7.279   7.253  11.342 -0.0221  0.1341  0.1574
25595W        W42442   6.890   9.058  10.213  0.3125 -0.1036  0.0216
25596W        W42443  15.376  13.697   1.129  0.5184 -0.1151 -0.0206
25597W        W42444  17.168   4.155   3.067  0.0555  0.1403  0.1305
25598W        W42445   5.116  10.779   3.066 -0.4076  0.0952  0.1576
25599W        W42446   6.947  17.518   4.015  0.2430 -0.1666  0.4038
25600W        W42447  19.567   7.368  11.320  0.1399 -0.1507 -0.1941
25601W        W42448  14.816  14.993   2.760 -0.1782  0.0324  0.2616
25602W        W42449  16.507  13.545  12.071 -0.3043 -0.1646  0.1295
25603W        W42450  18.359   4.912  13.830 -0.0541  0.3051  0.1020
25604W        W42451  13.591  10.398   9.254  0.0352 -0.0044  0.1052
25605W        W42452   4.870  10.518  11.358 -0.1984  0.0999 -0.0216
25606W        W42453   4.375   5.415  11.660  0.1442  0.2650  0.0034
25607W        W42454   7.573  15.408   2.570  0.0869 -0.1524  0.0069
25608W        W42455   8.307  19.762   0.745  0.0144  0.0110 -0.0517
25609W        W42456   3.200   9.187   4.694 -0.3214 -0.0391 -0.0588
25610W        W42457   9.319   7.146  13.641  0.3017  0.0988 -0.0691
25611W        W42458   0.975  19.518   0.808 -0.1244 -0.3182 -0.0264
25612W        W42459   9.828  12.080  12.155  0.3506  0.1768  0.0574
25613W        W42460  19.869  11.600   0.845  0.1370 -0.3832 -0.0621
25614W        W42461   3.522  19.006   0.732 -0.0572  0.1916 -0.0503
25615W        W42462  18.652   2.441  10.116  0.4165  0.0325  0.1664
25616W        W42463   7.887  12.078   1.497  0.0631 -0.1788  0.0264
25617W        W42464   1.221  10.816   3.383  0.0300 -0.1518 -0.1431
25618W        W42465   8.361  18.840  13.726 -0.0564  0.1826 -0.0537
25619W        W42466  17.016   7.096  11.919 -0.1852  0.1077 -0.2772
25620W        W42467   2.843  13.376  12.545  0.3140 -0.0428  0.2278
25621W        W42468  12.211  19.229   1.195 -0.2449 -0.0364 -0.1245
25622W        W42469   1.500   6.572   0.191  0.1372 -0.1054  0.2695
25623W        W42470   0.981  15.805  14.056  0.0022  0.2794 -0.1654
25624W        W42471  16.806  12.821  11.475  0.1074  0.3798  0.1207
25625W        W42472   2.672  15.368  11.485  0.0626 -0.2957  0.0077
25626W        W42473   0.602  13.062   0.329 -0.0464 -0.3186  0.0902
25627W        W42474  16.750   0.401  13.116 -0.1243  0.3078 -0.2051
25628W        W42475  18.931   3.349   4.084 -0.0007 -0.1496  0.0730
25629W        W42476   2.361   9.637   1.289 -0.0604 -0.2245  0.1515
25630W        W42477  10.136   3.156  10.624  0.1791 -0.1603 -0.3849
25631W        W42478   3.828   1.937  12.247 -0.0862  0.1670 -0.1865
25632W        W42479  11.221  15.693  10.443 -0.1233 -0.0589  0.1713
25633W        W42480   9.792   1.469  13.632 -0.2451  0.0582  0.0648
25634W        W42481  16.053  18.428  12.225 -0.1462 -0.0670 -0.0350
25635W        W42482   5.461   5.812   2.766 -0.0526 -0.0716 -0.0616
25636W        W42483  16.503  19.207   1.255  0.2887  0.2093  0.1529
25637W        W42484   4.538   0.240   2.169  0.3772 -0.1551  0.1744
25638W        W42485  16.772   7.525  12.692 -0.0778 -0.0273  0.3357
25639W        W42486  11.214  10.635  13.171 -0.0383 -0.2667  0.0173
25640W        W42487  14.446  10.043  12.569 -0.1560  0.2164  0.0774
25641W        W42488  13.902  13.449  13.633  0.0912 -0.1259  0.3159
25642W        W42489  17.867  11.774   1.690  0.0064 -0.1024 -0.0765
25643W        W42490   7.714  13.919  13.975 -0.2346 -0.0510 -0.0162
25644W        W42491   7.504  12.659  10.659  0.1188 -0.0999  0.1796
25645W        W42492  14.900  19.420   9.212 -0.0693 -0.0665 -0.1568
25646W        W42493   5.726  19.524  13.589 -0.3606  0.2485  0.1034
25647W        W42494   7.642  12.016  14.058  0.0098 -0.0643 -0.0937
25648W        W42495  11.124   3.621   2.965 -0.0001 -0.2374  0.0693
25649W        W42496  15.877   0.702   4.299  0.2159  0.1760  0.0862
25650W        W42497   6.075  10.971  13.543  0.2880  0.0439  0.0983
25651W        W42498   4.774  16.533  14.315 -0.1025  0.0447 -0.3718
25652W        W42499  15.342   6.297   9.869 -0.0409 -0.0133  0.1710
25653W        W42500   3.799  12.392   9.680  0.2108  0.1534 -0.2578
25654W        W42501   7.023   8.394  11.972  0.2105 -0.1822  0.3152
25655W        W42502   0.057   9.475  12.295 -0.0062  0.1854 -0.0691
25656W        W42503   9.676   1.834  14.033 -0.1387  0.0348  0.0373
25657W        W42504   1.348  11.762   3.085  0.3666  0.0868 -0.0807
25658W        W42505  14.636  17.389   4.738 -0.0008  0.1122 -0.1025
25659W        W42506  13.780   7.294  12.135  0.0458  0.3303 -0.2761
25660W        W42507   1.751  15.277  11.893  0.0762 -0.0943  0.0493
25661W        W42508  15.227  16.984  10.826 -0.2489  0.1266  0.1910
25662W        W42509  12.873   3.626  10.852  0.1071  0.1958  0.3881
25663W        W42510  11.821   1.184   1.099  0.0211  0.0265 -0.1505
25664W        W42511  11.749   5.691   0.815 -0.1468  0.0518  0.2421
25665W        W42512  15.675   2.768  13.518  0.0556 -0.0726 -0.1294
25666W        W42513   1.578  12.879  13.138 -0.2314  0.0751  0.3003
25667W        W42514  15.374   8.057   4.577  0.0108  0.2169 -0.0879
25668W        W42515  11.632  14.414   2.127  0.1615 -0.0305 -0.2445
25669W        W42516   7.241   2.527  10.742 -0.4513 -0.0691  0.1064
25670W        W42517   4.483  12.393   1.279  0.0426 -0.1594  0.3658
25671W        W42518   0.915   9.482  11.493  0.1335  0.0333  0.2377
25672W        W42519   4.807  10.546  13.815 -0.0133 -0.0740 -0.0505
25673W        W42520   7.540   1.376  10.907  0.2044 -0.2227 -0.0416
25674W        W42521   1.215   0.630  12.502  0.0022 -0.1168  0.1354
25675W        W42522  14.977   4.857   0.313  0.0207 -0.1039 -0.3794
25676W        W42523  17.535  15.948   0.966  0.0574  0.3167 -0.1524
25677W        W42524  14.845   2.824   2.881  0.0852  0.4641  0.0195
25678W        W42525  19.299  17.460  11.374  0.2854 -0.0136  0.0660
25679W        W42526   3.346  16.254   5.016 -0.0081  0.0116  0.3522
25680W        W42527   3.613  18.888  11.877  0.0768 -0.0274  0.3420
25681W        W42528   5.130   5.396   4.020  0.2561  0.0176 -0.0357
25682W        W42529  10.018  13.250   0.554 -0.2978 -0.0898 -0.2398
25683W        W42530  11.759  16.781   3.850 -0.0288  0.0994 -0.2437
25684W        W42531  10.954   7.557  11.105 -0.3147 -0.2382  0.0742
25685W        W42532   7.697   1.826  11.044 -0.0951  0.0897  0.0663
25686W        W42533  17.056   5.037  12.807 -0.3511 -0.3164  0.0676
25687W        W42534  13.577   0.432  12.818 -0.3597  0.1245  0.0158
25688W        W42535   9.112  15.216   3.109  0.0267  0.0581 -0.2395
25689W        W42536  13.195   6.976  13.034 -0.0384 -0.0781 -0.0319
25690W        W42537   0.204   6.238  14.206 -0.0305  0.1709  0.0150
25691W        W42538   0.370  15.726   0.877 -0.1550  0.0305  0.3245
25692W        W42539   1.530  15.286  12.818  0.2803  0.0656  0.1410
25693W        W42540   0.713   8.858   1.426 -0.2594 -0.2769 -0.0300
25694W        W42541  19.586  12.327  13.557  0.1860  0.0406  0.2825
25695W        W42542  15.363   8.380   0.699  0.1453  0.0713  0.0450
25696W        W42543   6.084  11.766   4.686 -0.0586  0.0185 -0.0968
25697W        W42544   6.417  17.274   0.164 -0.0975  0.2596  0.0029
25698W        W42545   4.320   0.484   4.588 -0.3538  0.1687  0.0734
25699W        W42546  11.087  11.581  11.516 -0.0637 -0.0825  0.1175
25700W        W42547  17.905  17.217   2.879  0.1669 -0.1202 -0.0948
25701W        W42548  11.652   2.762   9.878 -0.1019  0.1842 -0.1314
25702W        W42549   7.665   5.758   1.008  0.4283  0.2946 -0.2401
25703W        W42550  18.020  15.375   1.636  0.2987  0.4946  0.1126
25704W        W42551  10.091   7.584   1.062  0.1430 -0.0891 -0.0475
25705W        W42552  15.492   8.909  11.596 -0.0855  0.1643  0.3518
25706W        W42553  15.718  15.156   1.988 -0.2595 -0.2829  0.0569
25707W        W42554  10.187   6.111   4.490 -0.0199 -0.0927  0.0124
25708W        W42555  17.688   6.103  11.065  0.3835 -0.1526  0.4062
25709W        W42556   6.746   3.852  10.484 -0.1522 -0.0493 -0.2248
25710W        W42557  18.001  17.348  12.330  0.0543  0.1432  0.1374
25711W        W42558   1.810  11.205  12.392  0.0951  0.4244  0.2270
25712W        W42559   2.946   7.004  13.211 -0.0026  0.0652  0.0710
25713W        W42560  16.815   4.401  14.127 -0.1690 -0.2814  0.1227
25714W        W42561   3.712   8.765  14.359  0.1932 -0.0922  0.1752
25715W        W42562   5.880  18.929   1.193 -0.0446  0.2516 -0.1687
25716W        W42563  19.076  13.798  12.918 -0.0266  0.0333  0.0705
25717W        W42564  15.724   0.921   1.306 -0.0851  0.3455  0.1906
25718W        W42565  17.395  12.265   9.625  0.0846 -0.0422  0.0651
25719W        W42566  17.249   5.799   4.099  0.3469  0.1261  0.2121
25720W        W42567  18.756  19.261  10.379 -0.1033 -0.1269 -0.1299
25721W        W42568   2.562   4.401   2.720 -0.1607 -0.0542 -0.1814
25722W        W42569  13.021   8.001  12.785  0.0265  0.1368  0.0005
25723W        W42570  11.875   9.713   2.288 -0.0528 -0.0758  0.1186
25724W        W42571  13.360  11.231   0.838  0.0988 -0.3394  0.1626
25725W        W42572   3.572   9.859  14.297 -0.0761 -0.3562 -0.0967
25726W        W42573  13.026   1.915   2.494  0.0384  0.1862  0.0070
25727W        W42574  19.458  11.773  12.207  0.1786  0.0111 -0.1503
25728W        W42575   1.465   4.014   3.616  0.0672 -0.0896  0.1819
25729W        W42576  14.967   5.114  10.197 -0.1596  0.0877 -0.1241
25730W        W42577   4.124  13.049  13.146  0.0216 -0.0197 -0.1190
25731W        W42578  11.018   3.925   9.929  0.3600  0.1510  0.0831
25732W        W42579   0.303   7.393  10.382  0.4626  0.0223 -0.4618
25733W        W42580   7.178  15.587  14.104  0.1146  0.2604  0.0267
25734W        W42581  16.183  17.646  11.441  0.0637  0.1765  0.3298
25735W        W42582   9.202  19.851  12.352 -0.1626  0.1501 -0.4539
25736W        W42583  13.941   3.768   2.738 -0.1879  0.0627 -0.3482
25737W        W42584   9.043  19.412  12.064 -0.3537 -0.0962 -0.0984
25738W        W42585   3.522   9.422   3.155  0.0922  0.2263  0.1095
25739W        W42586   8.935  13.272  11.556  0.0595  0.1645  0.1166
25740W        W42587   5.514   3.620  12.653  0.1921 -0.1146 -0.0805
25741W        W42588   4.493   5.991  13.956  0.1447  0.0431 -0.0747
25742W        W42589  17.318  15.314   2.185  0.0243  0.0526  0.0428
25743W        W42590  16.116  14.899   2.262 -0.1079  0.0732  0.1509
25744W        W42591  17.849  13.744   2.831  0.0196 -0.3108  0.1200
25745W        W42592  10.268  10.826   0.825 -0.2754  0.2155  0.0729
25746W        W42593  18.606   9.675   3.017 -0.1054 -0.2501 -0.0342
25747W        W42594   8.818  11.872  12.071  0.1634 -0.1218  0.1647
25748W        W42595  12.976  19.580   9.665  0.2867  0.0188 -0.2924
25749W        W42596   4.620   8.284  12.103  0.1816  0.0790 -0.0761
25750W        W42597   2.874  16.796  13.171  0.3630 -0.0258 -0.1959
25751W        W42598   7.545   7.409   0.916 -0.0479  0.2074  0.2012
25752W        W42599  13.261   0.024   2.533 -0.1538 -0.0825 -0.3075
25753W        W42600  15.625   7.259  13.151 -0.3056  0.0752  0.1067
25754W        W42601   9.151   2.203  11.725 -0.0440 -0.1972  0.2735
25755W        W42602   6.671   4.200   3.681  0.1242 -0.1827 -0.1534
25756W        W42603  14.736  13.093  11.181  0.2899  0.2105  0.2053
25757W        W42604   7.259  16.336   2.385  0.0319 -0.0458 -0.0954
25758W        W42605   0.055   3.644   0.441  0.0226 -0.2423 -0.2475
25759W        W42606  12.579  19.583   9.354 -0.3091  0.0826 -0.0982
25760W        W42607  13.168   5.956   0.221  0.0526  0.2495  0.4510
25761W        W42608  17.159  14.801  13.366  0.1968 -0.0988  0.1614
25762W        W42609  16.838  16.176   3.706  0.0068  0.1644  0.1073
25763W        W42610  19.123   5.138   2.601  0.1239 -0.2501  0.0603
25764W        W42611  15.298   2.896  10.984 -0.0039 -0.0161 -0.2074
25765W        W42612   5.845  17.689   4.002 -0.0862 -0.0692  0.2531
25766W        W42613  18.082   8.027  10.499 -0.0130 -0.2215 -0.0955
25767W        W42614   3.492   2.535   3.504  0.0959 -0.1600  0.0091
25768W        W42615  12.997  10.857   0.469  0.2040 -0.2906  0.1851
25769W        W42616   9.323  11.127   4.188  0.4623  0.0725  0.1260
25770W        W42617  17.396   3.791  12.003  0.0282  0.1814  0.0824
25771W        W42618   1.574  18.139  11.423  0.2670  0.0734  0.0149
25772W        W42619  16.364   8.734  10.820  0.0033 -0.0976 -0.4720
25773W        W42620   2.781  12.854   2.307 -0.1569 -0.0855  0.2695
25774W        W42621   3.753  10.974   1.370 -0.3708 -0.1041  0.0943
25775W        W42622   5.708   3.741   9.678  0.1736  0.0484  0.0835
25776W        W42623   1.350  19.176   4.369 -0.1155  0.0683  0.2272
25777W        W42624  12.602   6.908  13.408  0.0957  0.1079  0.0347
25778W        W42625   4.858   3.993   5.089  0.1503  0.0984  0.1555
25779W        W42626   4.025  16.580  11.645 -0.0604  0.0058 -0.0396
25780W        W42627   5.311   5.557   9.936 -0.3415  0.3272  0.4695
25781W        W42628  16.788   1.028   1.406 -0.2182 -0.2722 -0.2079
25782W        W42629  18.295  13.050   4.043  0.1776  0.0426 -0.2165
25783W        W42630  16.125  13.014  13.115  0.1047  0.0329  0.1500
25784W        W42631  10.455   7.193   4.987 -0.2769  0.0353 -0.1597
25785W        W42632  13.519  12.244   2.921 -0.2373  0.2702 -0.2496
25786W        W42633  19.367  16.258  10.574  0.4388 -0.2785  0.1154
25787W        W42634   9.376  14.623   2.451  0.1959 -0.2798 -0.0616
25788W        W42635  16.519  17.671   5.138  0.1191  0.0059 -0.0424
25789W        W42636  13.166  13.079  13.271 -0.0755 -0.0631 -0.4474
25790W        W42637   3.852   4.415   4.733 -0.0726 -0.0518 -0.2178
25791W        W42638   1.952  10.445  13.775  0.0585 -0.0098 -0.2090
25792W        W42639  17.681  14.389   3.745 -0.3801 -0.1552 -0.0490
25793W        W42640  11.208  14.628   9.281  0.1094 -0.0594  0.2053
25794W        W42641  12.290   8.697  11.542  0.0938  0.2135  0.2224
25795W        W42642   0.032   2.042   2.493 -0.0062 -0.0898  0.1901
25796W        W42643  15.316   7.620  12.874  0.1034  0.1078 -0.1176
25797W        W42644   7.354  16.050   1.997 -0.0700 -0.1575 -0.0319
25798W        W42645   1.983   5.729   2.957  0.2164  0.1325  0.0655
25799W        W42646  11.150   6.198   4.407 -0.0652 -0.1455  0.2582
25800W        W42647  14.553   5.674  10.703 -0.0201  0.2066 -0.1360
25801W        W42648  18.027  13.267  12.111  0.2719  0.3071  0.0554
25802W        W42649  15.780   7.356  14.035  0.0876 -0.2189  0.0818
25803W        W42650   1.516   9.797  12.185  0.0875  0.0438  0.2806
25804W        W42651   4.958   6.351  10.284 -0.3290  0.1167 -0.0063
25805W        W42652   8.745   2.247   2.028  0.2582 -0.4103 -0.0475
25806W        W42653  10.062   8.028   0.313  0.2023 -0.0687  0.1226
25807W        W42654   1.740   9.173  10.778 -0.1052 -0.0649  0.1633
25808W        W42655  13.956  17.067   4.176  0.0000  0.1337  0.2550
25809W        W42656   8.919   2.830   0.791  0.1739 -0.2100  0.2797
25810W        W42657  18.310  15.809  11.977 -0.0780 -0.0248  0.2070
25811W        W42658   6.432   7.133  13.892  0.0325  0.1000 -0.0785
25812W        W42659   0.486   2.584   0.072 -0.1521  0.2457  0.3754
25813W        W42660   7.884   5.398   0.747 -0.2951 -0.0343 -0.3106
25814W        W42661   8.534   2.566  12.962 -0.3477 -0.0815 -0.2066
25815W        W42662   9.451   0.930  12.228 -0.0738 -0.3953 -0.0119
25816W        W42663  19.787  11.144  11.654 -0.0155  0.2324  0.0442
25817W        W42664  10.272   4.708   8.965 -0.1105 -0.1121  0.0448
25818W        W42665   3.960  14.238  11.100  0.2310 -0.0891  0.2569
25819W        W42666   3.879   8.258  13.882 -0.1757  0.2318  0.2807
25820W        W42667  12.291  14.589   0.660 -0.4210 -0.0238  0.1483
25821W        W42668   7.334  10.172   0.532  0.0181  0.1011  0.0394
25822W        W42669   1.430  15.264  12.289 -0.1458 -0.2292  0.2843
25823W        W42670  11.737  10.319  11.708  0.0678 -0.1724  0.2121
25824W        W42671  11.117  15.076   9.467  0.1137  0.2570 -0.2379
25825W        W42672  14.691  16.905  12.081  0.0177 -0.0252  0.0948
25826W        W42673   5.001   1.654   1.114  0.0142 -0.2812  0.5189
25827W        W42674  15.088   8.093  13.757 -0.0802  0.2615  0.0089
25828W        W42675  19.582   7.853  12.644 -0.0363  0.1358 -0.2127
25829W        W42676   8.853   5.072  12.867 -0.2167 -0.1961  0.1381
25830W        W42677  11.912  14.207  11.134  0.3723  0.2692  0.1868
25831W        W42678   4.886   9.030   3.887  0.0864 -0.1369  0.1612
25832W        W42679  18.633   7.563   0.017 -0.1437 -0.1156 -0.1378
25833W        W42680  11.499  11.022   2.535  0.1659 -0.1228 -0.1655
25834W        W42681  17.766  15.293   1.197 -0.0743  0.1274 -0.0260
25835W        W42682  15.257  19.080   9.787 -0.2310 -0.1139  0.0710
25836W        W42683  12.662   4.887   0.741  0.2827  0.1682 -0.0393
25837W        W42684  15.414  13.768   3.273  0.2106 -0.2096 -0.0547
25838W        W42685   7.322   3.113   2.805  0.2893  0.0086 -0.1826
25839W        W42686   2.566   1.026   0.984  0.1623 -0.1400 -0.3088
25840W        W42687   4.455   7.103   2.052  0.0704  0.1748  0.0962
25841W        W42688   9.354   8.000   2.907 -0.2557 -0.1318  0.0614
25842W        W42689   1.013  16.472  10.877  0.0293 -0.3104 -0.1220
25843W        W42690  19.102  13.218   3.854 -0.0847  0.2479 -0.0848
25844W        W42691  11.454   4.602   1.546 -0.1108 -0.0927  0.1621
25845W        W42692  10.186  13.801   0.444  0.0824 -0.0140  0.1132
25846W        W42693  17.836   7.191   3.779 -0.0249 -0.1506  0.2050
25847W        W42694   0.136   0.604  13.442 -0.1493  0.0903 -0.3055
25848W        W42695  16.184  12.579  13.991 -0.0276  0.4282  0.3806
25849W        W42696  16.363   7.575   0.768 -0.0927 -0.0748  0.0322
25850W        W42697   9.519  16.730  10.281  0.0264  0.2059  0.0051
25851W        W42698  10.846  10.956   1.571  0.1430  0.2848  0.3494
25852W        W42699   0.849   2.084   1.713  0.1093  0.0902  0.1724
25853W        W42700   2.129   4.887  10.612  0.1455  0.1442  0.0372
25854W        W42701   1.603   3.109   0.306  0.0522 -0.1343 -0.1127
25855W        W42702  18.882  19.794   1.950  0.0614 -0.3311 -0.0558
25856W        W42703  15.630  12.193  10.218 -0.2260  0.0274  0.0702
25857W        W42704  11.949   2.311  12.876  0.0046 -0.0098  0.1537
25858W        W42705  19.823   4.167  11.353 -0.1555 -0.0600 -0.1531
25859W        W42706   6.251   4.242  14.220  0.3196  0.2248 -0.0425
25860W        W42707   5.875   0.306  14.314 -0.1530  0.0742  0.2670
25861W        W42708   5.523  18.359   1.586  0.2574 -0.1946  0.1446
25862W        W42709   8.565   3.090  13.167  0.1033  0.2813  0.3256
25863W        W42710   9.615   3.795   9.912 -0.1351  0.0172  0.1163
25864W        W42711   9.681  18.795  12.402 -0.0415 -0.1336  0.2622
25865W        W42712   0.901  15.014  14.106  0.5255 -0.0725 -0.1673
25866W        W42713   7.944  19.739   0.361 -0.3060  0.1808 -0.1436
25867W        W42714   1.640  16.401  10.153  0.0773  0.1632 -0.2172
25868W        W42715   9.272   4.160  10.148  0.0229 -0.1986  0.0293
25869W        W42716   4.760   1.778  14.067  0.0218  0.1419  0.1122
25870W        W42717  10.213   3.460   2.380 -0.0621 -0.1481  0.0452
25871W        W42718  17.044   5.666   9.544  0.3825  0.1236 -0.3202
25872W        W42719   9.275  14.536   3.512  0.1478 -0.0946  0.3855
25873W        W42720  14.684   5.817  12.837  0.1473 -0.4337 -0.0994
25874W        W42721  18.740   6.522  12.182 -0.2233  0.2277  0.1177
25875W        W42722  11.968  16.298   4.371 -0.2696  0.0012  0.2342
25876W        W42723   2.814  18.379  13.619 -0.0756  0.2032 -0.1543
25877W        W42724  12.743   3.902   4.694  0.0245  0.1002 -0.1486
25878W        W42725  10.206  19.806   4.679  0.1274  0.1828 -0.0475
25879W        W42726  15.043   0.398   3.160  0.2106  0.0878 -0.1036
25880W        W42727  15.884  16.064   3.452  0.1714 -0.2990  0.0643
25881W        W42728   9.057   3.920  14.133  0.1212  0.0288 -0.1605
25882W        W42729  17.577   4.347   3.275  0.1966 -0.3123  0.1653
25883W        W42730   9.766  19.576   3.068 -0.2438  0.2259 -0.1507
25884W        W42731  19.297  11.787   1.458 -0.0907 -0.2528 -0.0249
25885W        W42732  19.249  13.345   0.780 -0.1456  0.1166  0.0976
25886W        W42733  12.497   1.143   1.228  0.1119 -0.1331  0.0888
25887W        W42734  10.320   6.466  10.575  0.1993 -0.2852 -0.2630
25888W        W42735  12.456  10.151   3.491  0.1142  0.0336  0.0588
25889W        W42736   4.266   2.344  11.248  0.0050  0.1348  0.1772
25890W        W42737   9.642   6.681   2.274 -0.1669 -0.0481 -0.1902
25891W        W42738  12.368  11.205  14.020  0.0399 -0.1961  0.0665
25892W        W42739  17.964   7.873   0.738 -0.2357 -0.0953  0.1353
25893W        W42740   0.358  14.194   0.057 -0.0470 -0.2003 -0.1234
25894W        W42741   2.688   2.409  10.507  0.1799  0.1801  0.3305
25895W        W42742  15.706   4.918  10.150 -0.0796 -0.0241  0.2361
25896W        W42743   2.917   4.974  14.205  0.0848 -0.0539 -0.2313
25897W        W42744   4.140  11.522   4.080  0.0045  0.3250 -0.2927
25898W        W42745  13.848  13.444   9.897  0.0508  0.0012  0.1278
25899W        W42746  15.984   3.436   2.778  0.1916 -0.0468 -0.0309
25900W        W42747   9.307  19.687  13.618  0.1699  0.0714  0.0490
25901W        W42748   7.038  10.442   2.103 -0.1067  0.0339 -0.3943
25902W        W42749  16.663  12.787  12.512  0.0351 -0.0099  0.2557
25903W        W42750   4.487   8.333  14.333  0.3098 -0.1599  0.3219
25904W        W42751  10.919  16.475  11.483  0.0311 -0.0929  0.1576
25905W        W42752  18.467   0.304  11.397 -0.0002 -0.0407  0.0196
25906W        W42753  11.945  10.392   1.441  0.3308 -0.2290  0.0582
25907W        W42754  10.553  13.116   4.290  0.0608 -0.3349  0.0003
25908W        W42755   0.022   9.247  10.073  0.3382  0.4342 -0.0473
25909W        W42756   1.259  14.521   4.802  0.2543  0.1824  0.1391
25910W        W42757  17.061   7.945   4.996 -0.1320 -0.0258 -0.0755
25911W        W42758  19.354   9.642  10.729  0.1529 -0.1083 -0.2411
25912W        W42759  10.619  16.209   4.810 -0.3915  0.0434  0.2193
25913W        W42760  16.044   0.296  13.817 -0.3570 -0.0651 -0.2168
25914W        W42761  12.229  17.963   5.018  0.0454  0.0910  0.1381
25915W        W42762   8.745   9.691  13.299 -0.1450 -0.0829  0.0865
25916W        W42763   5.702  11.911   4.989 -0.0105 -0.1036  0.0036
25917W        W42764  15.700  14.879   3.540  0.0297  0.0316  0.0486
25918W        W42765  13.404  18.437   3.534  0.0863 -0.0467  0.1813
25919W        W42766  16.365   3.066  13.964  0.2001  0.1809 -0.0775
25920W        W42767   9.794   4.288  10.051  0.0880 -0.0706  0.2014
25921W        W42768   3.561  16.688   4.738  0.0820 -0.0766 -0.3404
25922W        W42769  19.300  15.671  12.696 -0.0340 -0.0128 -0.0548
25923W        W42770   0.445  11.298   3.290 -0.2587  0.3769  0.0001
25924W        W42771  18.043  15.495   4.342  0.1084  0.0545  0.2930
25925W        W42772   5.530   3.402  13.649  0.0161 -0.1876 -0.4582
25926W        W42773   3.133   2.611   2.333  0.3075  0.1892  0.0427
25927W        W42774  18.607  13.555  11.533  0.1415 -0.1020 -0.1551
25928W        W42775  15.444   6.839   1.959 -0.1860 -0.0061 -0.0023
25929W        W42776   5.829   2.116  13.464  0.0627 -0.2853 -0.1487
25930W        W42777   7.214   0.322  10.099  0.3099  0.0553 -0.2081
25931W        W42778   5.287   3.554  14.134  0.0896  0.1311 -0.0418
25932W        W42779  16.692  16.180  10.623 -0.2169  0.2223 -0.1708
25933W        W42780   1.365   7.781   5.055  0.2063 -0.0293  0.0924
25934W        W42781   5.117   4.289   1.250 -0.0505 -0.0165 -0.4469
25935W        W42782  11.061  19.451   3.584  0.0897  0.0268  0.0478
25936W        W42783  18.515   3.740  10.897  0.1784  0.3469  0.3334
25937W        W42784  18.929  12.555   4.597  0.0632  0.3094  0.0126
25938W        W42785  17.681  10.149  11.778  0.5270 -0.1144  0.1195
25939W        W42786   5.038  15.542  11.923 -0.2683 -0.3506 -0.0908
25940W        W42787  17.624   2.228   0.306 -0.0203  0.0676 -0.0897
25941W        W42788  15.073   2.867   4.701  0.0105 -0.0478 -0.0398
25942W        W42789   8.918  16.396   0.164  0.1539  0.0958 -0.1904
25943W        W42790  16.601   9.642  11.847  0.0896 -0.2977 -0.1401
25944W        W42791   1.698   8.584   3.695 -0.0388 -0.0919 -0.0793
25945W        W42792  13.500  18.618   0.554 -0.3644 -0.0295  0.0102
25946W        W42793   6.633  10.164   3.500  0.1042 -0.2107  0.2024
25947W        W42794   5.063   5.130   0.793  0.1847  0.3513  0.2738
25948W        W42795   3.397   7.576  11.446 -0.0271 -0.1882 -0.1514
25949W        W42796  16.249   1.908   2.191  0.0719  0.3456 -0.1063
25950W        W42797  17.731  17.905  13.088 -0.0192  0.2434  0.1580
25951W        W42798   8.117   5.931   3.593 -0.1779 -0.1651  0.1155
25952W        W42799  18.157  18.751  11.862  0.2418 -0.0934 -0.0567
25953W        W42800   6.191  16.545   1.120 -0.3504  0.1726  0.1545
25954W        W42801  10.536  17.128   4.351 -0.0733  0.0519 -0.0085
25955W        W42802  12.972   1.472   2.275 -0.2252  0.1598  0.0450
25956W        W42803   1.579  10.428  10.739 -0.0681 -0.1839  0.1580
25957W        W42804  19.563   2.401  12.882 -0.0396  0.0671 -0.2724
25958W        W42805   2.287  18.493  13.436 -0.1750  0.0429  0.0967
25959W        W42806   5.970  11.009  12.976 -0.0375  0.0085 -0.2023
25960W        W42807  12.812   1.041  12.322  0.1521  0.2543  0.0428
25961W        W42808  15.652   7.602   5.460  0.3425 -0.4475  0.1783
25962W        W42809   7.026   4.341   0.589  0.1278  0.3462  0.2153
25963W        W42810   5.636  19.327  10.987 -0.0114  0.0600 -0.0875
25964W        W42811   3.737   9.838   5.616 -0.0936 -0.0840 -0.0296
25965W        W42812  16.691  14.324   0.949  0.5465  0.0388 -0.1504
25966W        W42813   4.108   6.326   0.831  0.1009  0.0873  0.1175
25967W        W42814   2.230   7.992  12.098  0.0181 -0.0705  0.1708
25968W        W42815   9.301   3.246   4.406 -0.0652  0.1773 -0.2618
25969W        W42816  10.760   3.593  13.507  0.0725 -0.2657 -0.0467
25970W        W42817  15.815  14.912  10.322 -0.4171 -0.0801 -0.3796
25971W        W42818  19.555   7.275   2.724 -0.0266 -0.1623  0.0882
25972W        W42819   3.702   2.886   4.722 -0.1996  0.0831 -0.1882
25973W        W42820   9.859   2.332   3.962 -0.0906 -0.1164  0.0947
25974W        W42821  14.587   3.627  13.865 -0.1536 -0.3765 -0.0653
25975W        W42822   3.128   5.332   5.014 -0.1404 -0.0778 -0.0409
25976W        W42823  16.256  19.816  14.061  0.3081 -0.1282 -0.3104
25977W        W42824   2.522   1.811   1.352 -0.0944  0.1018 -0.0242
25978W        W42825   7.593  18.319  11.291 -0.1592  0.0995 -0.1356
25979W        W42826   9.443   1.833  12.585  0.1815  0.0977  0.3600
25980W        W42827  17.871   1.884  12.581 -0.0497 -0.1702  0.0078
25981W        W42828   7.385   4.098   1.732  0.4351  0.0692 -0.3088
25982W        W42829   0.877  10.717  14.118  0.0825 -0.1084 -0.1545
25983W        W42830   5.253   7.249   4.623 -0.0900  0.2174 -0.1741
25984W        W42831   7.446   2.251   4.286 -0.0328 -0.0316 -0.1498
25985W        W42832   2.421   7.576  10.402  0.0801  0.0422 -0.0493
25986W        W42833  12.827  12.897   3.939  0.0782  0.2087 -0.1609
25987W        W42834   0.112  15.273   2.941  0.0312 -0.3645  0.2429
25988W        W42835  14.498   7.025  14.318 -0.0748 -0.1106  0.0431
25989W        W42836  10.730   9.330  13.401  0.0239  0.2952  0.0587
25990W        W42837   1.008   3.724   9.237 -0.1591  0.0454 -0.0745
25991W        W42838   3.783   4.745  12.215  0.2412  0.0586  0.0129
25992W        W42839  10.472  18.974   4.021  0.0090 -0.4036 -0.2199
25993W        W42840   0.172   5.208  12.066  0.2420 -0.1666 -0.2312
25994W        W42841  14.310  13.407  10.469  0.1096 -0.1036  0.2134
25995W        W42842  10.948   9.000  10.248  0.1575  0.0808 -0.1502
25996W        W42843  18.753  15.124  13.148  0.1408  0.0327 -0.1090
25997W        W42844   0.956  14.547   0.808  0.1402 -0.0636  0.0431
25998W        W42845  11.322  10.461  12.565  0.2686 -0.0027 -0.1882
25999W        W42846  18.855   8.966   1.786 -0.0779  0.0152  0.0093
26000W        W42847   9.912  13.846  11.038  0.1296 -0.0617 -0.0806
26001W        W42848  16.727   4.939  10.474 -0.1168  0.1449  0.1550
26002W        W42849   3.554   4.708  11.559 -0.1444  0.3494 -0.1213
26003W        W42850   2.569  10.133   0.887  0.1062  0.2093 -0.0887
26004W        W42851  19.738  13.757   2.767 -0.0566  0.2218  0.1114
26005W        W42852  12.145  14.468   9.176  0.0709  0.0767 -0.1837
26006W        W42853  13.359  19.178  12.266  0.3082  0.2343 -0.0661
26007W        W42854   0.437  19.278   1.994  0.0601  0.1940  0.1145
26008W        W42855   3.545  19.858  12.859  0.1421  0.0360 -0.2320
26009W        W42856  10.064  10.022   1.416 -0.0863  0.2290  0.0185
26010W        W42857  12.535   5.253  10.160  0.1796  0.1256  0.3944
26011W        W42858   1.151   1.622   3.211 -0.2909 -0.0655  0.2621
26012W        W42859  12.083  11.775  12.915  0.1501 -0.0992 -0.2298
26013W        W42860   9.354   6.793  12.379  0.0276 -0.1961  0.0453
26014W        W42861  17.450   9.015  13.716 -0.1729 -0.0670 -0.0086
26015W        W42862   6.957   8.833  13.106 -0.2031  0.1030  0.3497
26016W        W42863  12.026  15.179  13.797  0.0443 -0.2157  0.0644
26017W        W42864  15.626  18.281  11.364 -0.1492  0.1514 -0.2531
26018W        W42865   8.953   8.340  14.033 -0.0404  0.1205 -0.2067
26019W        W42866  17.262   9.852  11.274  0.0868  0.1436 -0.0854
26020W        W42867   6.978   6.251   9.605  0.0161 -0.1059  0.2184
26021W        W42868  13.895  14.079  11.870  0.0915  0.1098  0.0015
26022W        W42869  16.815  11.780  12.199  0.0589 -0.0423 -0.0069
26023W        W42870   9.213   7.768  12.075 -0.1243  0.2352  0.2214
26024W        W42871   6.834   2.486  12.624  0.0698 -0.1765  0.3908
26025W        W42872   4.650  12.669  13.326 -0.2529 -0.3941 -0.0068
26026W        W42873   3.623  15.819  11.335 -0.3452 -0.0932 -0.2143
26027W        W42874  19.093   5.983  14.010  0.0897  0.1881 -0.0799
26028W        W42875   4.224   2.279   3.291 -0.1263 -0.1229 -0.0441
26029W        W42876  16.848  10.762  12.510  0.1241  0.0247  0.1704
26030W        W42877  11.928   3.131  12.125  0.0986 -0.1592 -0.0191
26031W        W42878   6.219  17.163  11.479 -0.0612  0.0384 -0.0775
26032W        W42879  13.592  10.173  13.283 -0.0052  0.2034 -0.3861
26033W        W42880   7.036   2.838   3.561  0.1177 -0.1720 -0.0468
26034W        W42881   5.399  14.143   3.978 -0.0972 -0.2217  0.1823
26035W        W42882   9.362   1.816  13.513  0.1829 -0.1912  0.0826
26036W        W42883   1.079   9.691  13.506 -0.2215 -0.1569 -0.0649
26037W        W42884   4.715  12.857  13.993  0.0557  0.0799 -0.1732
26038W        W42885   7.425   1.268   0.828  0.7495 -0.0196  0.2239
26039W        W42886   6.290  15.741  12.262  0.1751  0.1791  0.2303
26040W        W42887   7.092   9.733  10.818  0.3663 -0.2446  0.1436
26041W        W42888   5.233  11.477  11.842  0.0045  0.0756 -0.0840
26042W        W42889   7.465   4.417   0.899 -0.0609  0.1118 -0.3088
26043W        W42890  12.808   5.651  11.061 -0.7348  0.0311 -0.0068
26044W        W42891  11.384   0.138  13.651  0.2541 -0.2348  0.0376
26045W        W42892   6.066  12.545   4.303 -0.1977 -0.3777 -0.0567
26046W        W42893  17.334  14.797   1.263 -0.0515  0.0815 -0.0783
26047W        W42894  19.231   7.466  14.350  0.1827  0.0363 -0.2363
26048W        W42895   2.362   7.404   5.190 -0.0083 -0.4581  0.1058
26049W        W42896  12.885   8.944   2.900  0.0977 -0.1625  0.1487
26050W        W42897  15.902  16.724  13.459  0.0959 -0.0344  0.6926
26051W        W42898  17.038  11.500   2.663 -0.1436 -0.0747 -0.0278
26052W        W42899  13.422  12.348  10.747 -0.2290 -0.1259 -0.1113
26053W        W42900  12.800   8.493   2.348  0.0982  0.0267  0.3691
26054W        W42901   8.530  19.693  12.154  0.0496 -0.1784  0.3401
26055W        W42902  17.336  13.400   2.410 -0.4764 -0.2863  0.1598
26056W        W42903   3.673   1.223   1.473  0.0369 -0.1889  0.1280
26057W        W42904  17.265   2.340  12.524  0.2219 -0.0341  0.2620
26058W        W42905   8.057  18.811  10.316 -0.0360 -0.3120 -0.0117
26059W        W42906  10.290   1.992   4.877 -0.1918 -0.0795 -0.2460
26060W        W42907   6.232   0.555   3.940  0.1849  0.0131 -0.2643
26061W        W42908  18.124   7.609   2.252 -0.0740  0.2441 -0.4342
26062W        W42909  11.519  11.925  12.667  0.0385  0.1821 -0.0112
26063W        W42910   9.004   2.766  12.670  0.1891  0.2861 -0.0892
26064W        W42911   4.128  11.554  10.828  0.1984 -0.0203 -0.0250
26065W        W42912  15.801  19.657   2.443 -0.2262  0.3494 -0.1564
26066W        W42913  14.389   5.554   3.362 -0.0877 -0.1052  0.0680
26067W        W42914  18.930  18.222   2.321 -0.1070  0.0345 -0.1270
26068W        W42915   2.073  17.302  10.533  0.0315 -0.1752 -0.1706
26069W        W42916   1.395  10.167   2.874  0.2231 -0.3696  0.0434
26070W        W42917  15.419  14.919   3.184 -0.0766 -0.0920  0.2142
26071W        W42918   1.523   7.661   0.306  0.0386 -0.0840 -0.0237
26072W        W42919   7.708   6.709  12.122 -0.2745 -0.0127  0.0942
26073W        W42920   7.545  14.917   0.551 -0.1385 -0.1422 -0.0500
26074W        W42921  14.189  16.211   0.371 -0.1557  0.1807 -0.1715
26075W        W42922  12.936   2.783   1.645  0.4446  0.0040  0.0561
26076W        W42923  15.700   6.831   2.384  0.1111 -0.3639 -0.0099
26077W        W42924  15.239   1.031   1.107 -0.2583  0.0160  0.1161
26078W        W42925  12.858  10.572   0.013  0.2253 -0.0804  0.1372
26079W        W42926  15.683  18.103  10.231  0.0338  0.1071  0.1321
26080W        W42927   7.271   6.237   3.235  0.3885 -0.3841  0.0614
26081W        W42928  17.871   3.138   1.698 -0.3762 -0.0780  0.3304
26082W        W42929   6.260  19.247   2.521 -0.1842  0.1100  0.1136
26083W        W42930  13.751  13.539  11.283  0.0329  0.1738 -0.2090
26084W        W42931  10.581   2.648  11.428  0.2114 -0.3818 -0.3121
26085W        W42932  17.372   7.502  13.212  0.0253 -0.0530 -0.0372
26086W        W42933   7.385  15.090  10.998  0.0087  0.2137 -0.1197
26087W        W42934  15.858   4.829   1.812 -0.2427 -0.0882 -0.5474
26088W        W42935  10.115  14.076   2.365 -0.0170  0.1544 -0.1650
26089W        W42936  15.314  10.141  12.397 -0.1762 -0.2336 -0.0393
26090W        W42937   5.115   5.511   4.525 -0.0344  0.3933  0.1238
26091W        W42938  19.585   2.683   1.904  0.2244 -0.0957  0.1874
26092W        W42939   0.307   6.761   1.727 -0.1223  0.1579 -0.0963
26093W        W42940   6.398  16.401   1.970  0.0166 -0.1045  0.0835
26094W        W42941  19.442   0.109   0.359  0.0673  0.2412  0.0211
26095W        W42942   8.581   9.002   4.865 -0.0442 -0.0506  0.1852
26096W        W42943   4.159  12.029  11.114 -0.1033  0.2393  0.0575
26097W        W42944  18.381  12.111   5.105 -0.0673  0.1733  0.0326
26098W        W42945   4.372  17.364   2.282 -0.0716  0.4566 -0.1331
26099W        W42946  11.210   3.309  13.352 -0.0006 -0.3846  0.0826
26100W        W42947  14.019  11.634  10.290  0.0289 -0.2034 -0.0288
26101W        W42948  12.064   6.779  10.580  0.0266 -0.2424 -0.1109
26102W        W42949  14.254  12.972   3.146  0.0651 -0.0672  0.1068
26103W        W42950   9.710   4.598  14.227 -0.1104 -0.3092 -0.2150
26104W        W42951  18.753   5.291   4.789 -0.2234  0.1445 -0.0457
26105W        W42952  17.282  11.557  12.498 -0.0448 -0.0307 -0.1453
26106W        W42953   1.322  18.728   2.846 -0.1421  0.3822  0.1221
26107W        W42954  13.971   6.960   1.289  0.0424  0.1356 -0.2223
26108W        W42955   6.241   3.243   2.154 -0.2187  0.0349 -0.1585
26109W        W42956   8.084  18.413   3.976 -0.4431  0.2291 -0.3325
26110W        W42957   4.607  17.362  10.611 -0.2259 -0.1068 -0.1737
26111W        W42958  19.132   6.359  13.077 -0.0504 -0.0389  0.0665
26112W        W42959  10.798   4.704  10.332  0.0316  0.1289 -0.1220
26113W        W42960   4.903  12.306   1.984 -0.2861  0.0280 -0.1261
26114W        W42961  19.014   8.381   0.530 -0.0724  0.0955 -0.0273
26115W        W42962  11.405   2.559   1.682 -0.1681  0.0852 -0.3995
26116W        W42963   3.388  15.569   2.695 -0.1759  0.2150  0.0227
26117W        W42964  18.436   8.408  10.534 -0.2018 -0.4083 -0.0839
26118W        W42965  18.023  13.984   2.067  0.2188  0.1061 -0.5533
26119W        W42966   3.659  13.284  10.867 -0.0903 -0.3961  0.0937
26120W        W42967   2.075  15.240   2.796  0.0279 -0.1450 -0.1261
26121W        W42968  16.423  15.867   3.225  0.1814  0.1782  0.2602
26122W        W42969   2.623   9.989   5.064 -0.0429  0.0573  0.2884
26123W        W42970  10.099  10.975   1.905 -0.0307  0.3037 -0.5773
26124W        W42971  10.985  14.858  10.781  0.1961  0.1709 -0.3453
26125W        W42972  14.108  16.741   4.518  0.0301 -0.1081 -0.0246
26126W        W42973  16.463   5.941  12.851  0.2200  0.1304  0.1146
26127W        W42974  14.658  10.047  11.265  0.0170  0.3795 -0.0629
26128W        W42975   1.420   6.427  11.253 -0.0303 -0.0301  0.1157
26129W        W42976   6.506  18.190  10.640 -0.2924 -0.0708  0.2413
26130W        W42977   3.477   2.060   2.673 -0.2464  0.2374  0.2385
26131W        W42978  12.138  10.466  10.018  0.2033  0.0757  0.0923
26132W        W42979   9.912   5.551  13.720  0.1489  0.1385  0.0933
26133W        W42980  10.929  19.495   5.196 -0.0172  0.1059 -0.1158
26134W        W42981   2.981  11.250   4.563 -0.1810 -0.0121 -0.2838
26135W        W42982  19.755  17.247   0.320  0.0320  0.0706 -0.1755
26136W        W42983  12.580  17.055   4.411 -0.2558 -0.0111  0.3258
26137W        W42984   7.038   7.010  13.400  0.2923 -0.1281 -0.2243
26138W        W42985   4.162  14.405   1.413  0.2366 -0.5706  0.0138
26139W        W42986  12.919  10.571  11.805 -0.3121 -0.0364 -0.0864
26140W        W42987   5.299  11.054  11.089  0.1087  0.0209  0.0333
26141W        W42988   0.174   1.620  11.529  0.2901  0.0188  0.0522
26142W        W42989  14.047  13.603   1.162  0.1980  0.0721  0.1573
26143W        W42990   9.592  19.222   1.943 -0.3352 -0.1190 -0.2293
26144W        W42991   2.430  10.395  13.955 -0.2558  0.0762  0.0643
26145W        W42992  11.204  14.689   1.956 -0.0855  0.1364 -0.0425
26146W        W42993  17.262   2.410   2.953 -0.1563  0.1388 -0.2309
26147W        W42994  12.332   4.422  12.407  0.1996 -0.2179  0.1018
26148W        W42995  13.335   2.475  11.602  0.1884 -0.3081 -0.0222
26149W        W42996   0.351  19.596  10.377 -0.1287 -0.2139  0.0553
26150W        W42997   9.485  11.688   5.182  0.2454 -0.0047  0.3141
26151W        W42998  13.904  14.391  12.349  0.1629 -0.0478  0.2222
26152W        W42999  17.725  12.210   1.928  0.0872 -0.0130  0.1584
26153W        W43000   7.001   7.779   1.643  0.1619 -0.3217 -0.0179
26154W        W43001  11.995   9.971  12.105 -0.3588  0.1885 -0.1469
26155W        W43002  14.538  19.711   2.056 -0.1025  0.1688  0.0948
26156W        W43003  16.067   3.274   0.506 -0.5042 -0.0844  0.3218
26157W        W43004  16.529  16.210   9.681  0.1463 -0.0319  0.0921
26158W        W43005  13.263  13.578  11.293  0.0133  0.4606 -0.1370
26159W        W43006   7.250   4.521  10.471 -0.0966 -0.0910  0.5283
26160W        W43007   5.947  17.966  11.268 -0.0949 -0.0405 -0.1573
26161W        W43008   6.157   3.334   4.623 -0.0690 -0.1075 -0.1081
26162W        W43009   7.831   0.205   0.933  0.1761  0.2958  0.2604
26163W        W43010   9.960  14.966  10.609  0.2372  0.0076 -0.3944
26164W        W43011  14.396  10.647  11.202  0.0425  0.0473 -0.0397
26165W        W43012   9.457  11.953  14.135 -0.1266  0.2423 -0.0974
26166W        W43013   6.350  16.592   9.586 -0.0831  0.0863  0.1373
26167W        W43014   1.110   2.981  13.586  0.2624  0.2110 -0.2596
26168W        W43015  14.545  17.107   5.915  0.0578  0.0036 -0.0669
26169W        W43016   9.128  10.519  11.970  0.1285 -0.2107  0.1036
26170W        W43017  13.968  11.325   2.833  0.0613  0.1661  0.1259
26171W        W43018  12.503  16.587  12.169 -0.1920 -0.0119  0.1159
26172W        W43019   0.885  18.738   3.100  0.0207  0.0690  0.0426
26173W        W43020  15.542   1.173   2.413 -0.2657  0.0150  0.0718
26174W        W43021   3.769   8.432  13.054 -0.2514  0.0652  0.2497
26175W        W43022   4.545  12.423  12.373 -0.1219 -0.1576  0.2223
26176W        W43023  10.416  18.600  13.062  0.0960 -0.0529 -0.1634
26177W        W43024  11.183   2.232   3.041 -0.0376 -0.0874 -0.1558
26178W        W43025  10.944  16.954  12.308 -0.0745 -0.1312  0.1983
26179W        W43026   1.340   0.479  10.476 -0.3462  0.0719  0.1323
26180W        W43027   5.884  19.027   4.236  0.0568  0.3505 -0.1875
26181W        W43028   6.610  14.960   4.487  0.1035 -0.2183 -0.1935
26182W        W43029  15.763   3.679   9.902 -0.1615  0.0785  0.0886
26183W        W43030   2.728   3.433   1.338 -0.0340 -0.0203 -0.1128
26184W        W43031  14.873   2.769  13.767 -0.0008 -0.0779 -0.0402
26185W        W43032   5.968   4.805   0.046 -0.1742 -0.0339  0.1106
26186W        W43033  14.214   5.276   9.901 -0.1929  0.1697 -0.0733
26187W        W43034  13.513   0.884   9.970  0.2012 -0.4585  0.2160
26188W        W43035   7.087  16.321   2.865  0.0047  0.0489  0.2446
26189W        W43036  12.554  17.720  11.399 -0.1147  0.1959  0.0270
26190W        W43037  11.496  14.176  14.340  0.0269  0.3551 -0.0941
26191W        W43038  17.072  19.515  13.888  0.1197  0.1175  0.2784
26192W        W43039   8.742  14.541   0.929 -0.0617  0.0753 -0.2078
26193W        W43040   6.141  18.729   2.723 -0.0259  0.1417 -0.0454
26194W        W43041  12.183  18.039   2.034  0.1813  0.0589  0.0972
26195W        W43042   7.256  11.377   1.887 -0.0565 -0.4106 -0.2783
26196W        W43043   1.578  14.240  10.244  0.0657 -0.1726  0.0543
26197W        W43044   9.129  10.317   0.333 -0.0346 -0.1910 -0.3356
26198W        W43045   1.949   1.038  11.624 -0.2158 -0.1441 -0.1081
26199W        W43046  16.023  12.017   9.585 -0.1976  0.2185  0.3234
26200W        W43047   1.632  17.736  11.823  0.1540 -0.0454 -0.1981
26201W        W43048   4.732   5.888   0.727  0.4054  0.1028  0.2996
26202W        W43049   9.446  15.254   1.724 -0.1253 -0.1999  0.1055
26203W        W43050  19.641   8.478   3.208 -0.0416 -0.1666 -0.0557
26204W        W43051  15.241  18.157  11.649  0.1409 -0.0673  0.0378
26205W        W43052  18.357  12.829  12.808 -0.1629 -0.1476 -0.1024
26206W        W43053   0.741  10.882   3.330 -0.4465  0.1043  0.0774
26207W        W43054   2.917   0.804   3.926 -0.0227 -0.0764  0.1771
26208W        W43055   0.564  18.397   3.361  0.3096  0.0476  0.0799
26209W        W43056   8.500   5.523   4.052 -0.4985  0.1311 -0.2815
26210W        W43057  11.813   4.956   3.345 -0.0235  0.2794  0.2988
26211W        W43058   3.990  10.573   4.571 -0.1926  0.0222 -0.1129
26212W        W43059   7.419  18.505   2.278 -0.4575 -0.0938  0.0832
26213W        W43060   6.110   3.879  11.023  0.2391 -0.1201 -0.2209
26214W        W43061  19.619   0.485   2.084  0.0374  0.3730 -0.0629
26215W        W43062  15.530  16.255   2.399 -0.1500 -0.2786  0.3051
26216W        W43063  15.625  17.730   1.162 -0.0815  0.0986 -0.1139
26217W        W43064  10.151  13.441   4.129 -0.0037  0.1727  0.1712
26218W        W43065   9.071  10.179   0.812  0.0401  0.3058 -0.2170
26219W        W43066  10.917   9.367  11.790  0.2033  0.0543  0.1423
26220W        W43067   1.390  13.126  12.021 -0.0464 -0.0555  0.0756
26221W        W43068   6.666   2.253   3.879  0.1362  0.2163  0.1249
26222W        W43069  18.814   7.301   3.260  0.1755  0.0756 -0.1342
26223W        W43070  17.266  19.415   9.592  0.2110 -0.0768 -0.2409
26224W        W43071   2.956  11.515   1.816  0.0142 -0.0053 -0.0527
26225W        W43072  13.661   5.580   1.211  0.0016  0.2098 -0.1250
26226W        W43073  18.880   7.180   1.711 -0.0877 -0.0587 -0.1017
26227W        W43074   0.093  13.272   0.288 -0.0573  0.0004  0.0049
26228W        W43075  10.442   2.762   0.356 -0.1558 -0.1295 -0.3303
26229W        W43076  10.358   6.807   1.251  0.0382  0.0627  0.0168
26230W        W43077   5.666   7.398   1.061 -0.1866  0.0101 -0.1937
26231W        W43078  19.355  15.961  13.219 -0.1299  0.0649 -0.0412
26232W        W43079  14.619  11.318   9.786 -0.4543  0.0442 -0.2930
26233W        W43080  12.346  15.637  10.984  0.0413 -0.0741 -0.0244
26234W        W43081  12.866  13.296  10.810 -0.0282  0.4168 -0.1943
26235W        W43082  16.862   6.546   3.296 -0.0641 -0.0071 -0.0464
26236W        W43083   2.778  19.335   3.989  0.1125 -0.1124 -0.2202
26237W        W43084  12.698  17.999   0.765 -0.1774  0.1306  0.2470
26238W        W43085   2.913  14.150  12.245  0.1764  0.0772  0.2044
26239W        W43086   7.189   3.499   0.559  0.1479 -0.0850 -0.2007
26240W        W43087   1.222   8.987  13.456 -0.0900 -0.0090 -0.0503
26241W        W43088  19.830  12.510   0.948 -0.1237  0.1236 -0.0529
26242W        W43089  16.265  13.890   3.769  0.2352 -0.1571 -0.1231
26243W        W43090  17.207  15.264  13.997  0.0939  0.1723 -0.1143
26244W        W43091  18.805   2.865   2.340 -0.1911  0.0824 -0.1349
26245W        W43092  12.195   8.026   3.808  0.2292  0.0426 -0.0801
26246W        W43093  18.456  19.420   4.359  0.0698 -0.0451 -0.0143
26247W        W43094   1.426  19.042  13.993  0.0934  0.2548  0.1066
26248W        W43095  11.017   5.806   0.404 -0.2268  0.0655 -0.1694
26249W        W43096  13.737  14.161  11.414 -0.1332  0.1870  0.1936
26250W        W43097  13.901  18.728  13.281 -0.0581  0.0395  0.2730
26251W        W43098   1.575   1.589  13.104 -0.2888 -0.2103  0.0903
26252W        W43099  12.161   6.111   1.855 -0.1269 -0.0996 -0.2269
26253W        W43100   3.213   6.739   0.491 -0.2033 -0.1621  0.1478
26254W        W43101   1.075  14.190  10.578  0.2383  0.2379 -0.0338
26255W        W43102  17.739   8.568  12.477 -0.0466  0.2093 -0.0105
26256W        W43103  10.441   0.867  10.909  0.1471 -0.0285 -0.0868
26257W        W43104  17.424   8.251   2.204 -0.0968  0.0911 -0.2990
26258W        W43105   7.187   7.523  10.857 -0.1433 -0.2677 -0.3134
26259W        W43106  13.174   3.684  14.264  0.0957 -0.2066  0.1136
26260W        W43107   6.787   5.356  10.228  0.2277 -0.2067 -0.0143
26261W        W43108   2.716   5.795   0.181 -0.3383  0.2481 -0.0670
26262W        W43109  11.331   6.451   3.191  0.1627  0.0817 -0.3064
26263W        W43110  13.147   8.543  10.547 -0.0502  0.0720 -0.2146
26264W        W43111   9.699   2.706  10.202  0.1703  0.2532 -0.1034
26265W        W43112   7.300   9.269  12.307  0.2432 -0.2321  0.4270
26266W        W43113   2.802  13.891   1.920 -0.1152 -0.0766 -0.2635
26267W        W43114  13.680  12.306   3.423  0.3005  0.0432 -0.1117
26268W        W43115  19.697   8.434  10.448  0.1480  0.0022 -0.1351
26269W        W43116   5.985   0.649  10.872 -0.1889  0.2782 -0.2463
26270W        W43117  10.117  15.438  10.852  0.3083 -0.0166  0.1084
26271W        W43118   8.221   7.975  12.108  0.0008  0.2410  0.4420
26272W        W43119  16.595   7.834   3.568 -0.1405  0.0660 -0.1522
26273W        W43120  17.265  12.881   2.602  0.6661 -0.1180  0.3872
26274W        W43121   9.009   5.995   1.174  0.1260 -0.0787  0.0500
26275W        W43122  19.783  17.910   1.762  0.3117 -0.2210 -0.2340
26276W        W43123  10.752   0.665   2.010 -0.0926  0.0747 -0.2769
26277W        W43124  10.189  12.002  12.479  0.0132  0.1528  0.2151
26278W        W43125   0.596   7.723   2.879  0.2843  0.0695  0.2941
26279W        W43126   3.474  11.287   1.063 -0.0548  0.2937  0.0653
26280W        W43127   7.931   8.617  12.001  0.1039 -0.1682 -0.1170
26281W        W43128   2.596   3.600   0.095  0.1209 -0.1441 -0.0456
26282W        W43129   4.362  19.862   1.287  0.3331 -0.2489 -0.3371
26283W        W43130  14.346  17.509  12.966 -0.1563  0.3075 -0.0840
26284W        W43131   7.981  19.813  14.061 -0.1941 -0.0876  0.0242
26285W        W43132  14.067  12.235   3.049  0.2416 -0.0814 -0.0409
26286W        W43133   7.533  10.389  11.316 -0.3082 -0.1079 -0.1989
26287W        W43134   0.333   0.359  10.492 -0.0553  0.2374 -0.0830
26288W        W43135   4.135   7.456   1.983  0.0369  0.1459  0.0974
26289W        W43136  15.641  13.338   2.949  0.2495  0.1342  0.1833
26290W        W43137   5.701   0.683   0.440 -0.0033  0.0408 -0.2719
26291W        W43138  19.135  12.448  13.486  0.0630 -0.2195 -0.1757
26292W        W43139   3.355   2.635   1.528 -0.2637 -0.1440  0.1019
26293W        W43140  19.286   6.155   3.177 -0.1942 -0.0994 -0.0424
26294W        W43141  17.997  12.655   4.352 -0.0581  0.1290 -0.3167
26295W        W43142   0.272   7.229   1.923  0.1000 -0.0467 -0.0563
26296W        W43143   0.997   3.474   3.743  0.2920 -0.0350  0.2973
26297W        W43144   8.014   8.294   1.227 -0.1033 -0.2353  0.1530
26298W        W43145  14.459   3.305   1.976 -0.2381  0.1789  0.2321
26299W        W43146   8.343   5.594  13.748  0.1857 -0.2973  0.1081
26300W        W43147  18.706  12.455   2.749 -0.0494  0.0040 -0.0675
26301W        W43148   7.522  12.555   3.371 -0.0168 -0.0655  0.0461
26302W        W43149  10.662   8.582  11.383 -0.1093  0.2146  0.0094
26303W        W43150  16.638   7.466  11.646 -0.1442 -0.0446  0.1094
26304W        W43151   7.118  18.776  13.074 -0.1688  0.0314 -0.1066
26305W        W43152   6.868  11.694   0.674 -0.1095  0.0985  0.2375
26306W        W43153   2.703  12.544   3.580 -0.1168 -0.3043  0.0618
26307W        W43154   6.367   8.586   4.860  0.1119 -0.0062  0.3192
26308W        W43155  19.550   7.963  10.497  0.0276 -0.0755 -0.0393
26309W        W43156   5.606   1.726   9.088 -0.1858 -0.0571 -0.1693
26310W        W43157  12.628   5.548   1.397  0.1377  0.3054 -0.1366
26311W        W43158  10.581   3.925  12.716 -0.1358 -0.2457 -0.0367
26312W        W43159   0.649  17.033  10.491 -0.0448  0.0749 -0.1627
26313W        W43160   2.423   5.584  14.139  0.0502  0.0648  0.0644
26314W        W43161  14.931  19.826   2.967  0.1110 -0.0683 -0.0811
26315W        W43162   1.382   5.399   5.135 -0.4798 -0.0848 -0.0712
26316W        W43163   1.976   4.597   1.376 -0.0688  0.0789  0.1138
26317W        W43164   3.223   5.094  10.357  0.2174  0.3333 -0.1118
26318W        W43165  17.902   0.672  12.184  0.1325  0.1058 -0.2812
26319W        W43166   7.649  18.149   3.727  0.2475  0.1275 -0.2945
26320W        W43167   5.868   3.147   2.824 -0.0258  0.0224  0.0340
26321W        W43168   5.733  13.978  12.259  0.1347  0.0300  0.2064
26322W        W43169  18.148   7.102   1.153 -0.2255 -0.3130 -0.1629
26323W        W43170   7.902  15.909  11.674 -0.0340 -0.1754 -0.0292
26324W        W43171  19.189  10.225   1.728 -0.0744  0.0688 -0.0802
26325W        W43172  15.251  10.052   3.182  0.1439 -0.2122  0.0911
26326W        W43173  18.909  14.606  12.213  0.1274  0.1152  0.0101
26327W        W43174   9.853  14.892   3.351  0.1106 -0.1564  0.1897
26328W        W43175   5.488  12.480  13.993 -0.0947  0.2316  0.1153
26329W        W43176  10.432  10.288  10.645 -0.1830  0.3285 -0.0672
26330W        W43177  13.092  18.787   1.419 -0.1685 -0.1255  0.2018
26331W        W43178   1.610  19.069   1.625 -0.1597 -0.1054  0.0425
26332W        W43179   5.757  19.142   0.521 -0.1694  0.1660 -0.0061
26333W        W43180  14.444  18.156   1.323 -0.1242  0.3432 -0.0756
26334W        W43181  11.717  15.235  14.237  0.1389  0.1457  0.3371
26335W        W43182  10.327   8.582  14.107 -0.1398  0.1777 -0.0394
26336W        W43183   0.530  13.189  13.618 -0.0651  0.1963 -0.1063
26337W        W43184   7.560  14.663   4.767  0.3239  0.1555  0.1921
26338W        W43185   9.678   1.299   3.527 -0.1242  0.0433 -0.0209
26339W        W43186  10.999   6.974   9.887 -0.3312 -0.1382 -0.0479
26340W        W43187   7.039  15.123   0.632  0.2864 -0.2116  0.1447
26341W        W43188  19.096   3.161  10.311 -0.0569 -0.0468 -0.0891
26342W        W43189  10.274  10.129   0.337  0.0318 -0.1706  0.0401
26343W        W43190  16.339   6.523   0.710  0.1370  0.1670 -0.2103
26344W        W43191   4.576   2.495   3.883 -0.5090  0.2870  0.0252
26345W        W43192  18.318   2.255  12.403  0.0993  0.2581 -0.0313
26346W        W43193   8.942   7.744  10.774 -0.0076 -0.0812  0.0421
26347W        W43194  14.743   0.064   4.387 -0.3241  0.0594  0.1239
26348W        W43195  13.935  17.774  13.302  0.1735  0.1225 -0.0966
26349W        W43196   1.756  10.977   0.016  0.1760  0.0620 -0.1203
26350W        W43197  11.544  18.483   4.800 -0.1877  0.1146  0.1274
26351W        W43198  16.117  10.623   3.441 -0.1035 -0.1794 -0.1193
26352W        W43199   2.203  15.334   9.632  0.0304 -0.0606  0.0935
26353W        W43200  14.644  10.177   3.696 -0.1775 -0.3345  0.1105
26354W        W43201   4.962  18.635   0.938 -0.3588  0.3314  0.1096
26355W        W43202   6.581  16.646  10.044 -0.0286  0.0449  0.0259
26356W        W43203   0.521   8.878  13.094  0.0507  0.1953 -0.0233
26357W        W43204   8.345  11.877   3.385  0.1124 -0.3517 -0.0729
26358W        W43205  17.030   8.041  10.959 -0.0806 -0.3637  0.0436
26359W        W43206   7.384  19.082   3.024  0.0442  0.2382 -0.1642
26360W        W43207   8.341  11.279  10.400 -0.1636 -0.0057  0.4588
26361W        W43208   8.316  12.689   1.163 -0.0578  0.0474 -0.3051
26362W        W43209   4.876  15.074   3.255  0.1402 -0.0543 -0.1647
26363W        W43210  17.661  11.455   0.333  0.0632  0.1233  0.0059
26364W        W43211   2.429  15.671  14.299 -0.0088 -0.0541 -0.3064
26365W        W43212   3.893   4.272  11.626 -0.2219  0.1459  0.3637
26366W        W43213  10.848  12.229   2.181  0.0018  0.1377 -0.1939
26367W        W43214  17.290  12.284  10.114 -0.0478  0.2113 -0.1795
26368W        W43215   2.977  15.126   0.341  0.5353  0.1409 -0.0200
26369W        W43216  18.853  14.320   1.753  0.1976  0.1036  0.0627
26370W        W43217  13.650   2.934   9.634  0.1111  0.0948 -0.1475
26371W        W43218   2.898   7.392   0.026  0.2428 -0.0219 -0.0499
26372W        W43219  13.744  11.102   4.784  0.1422  0.1758  0.0740
26373W        W43220  18.068  18.135   3.064 -0.0975  0.4370 -0.0798
26374W        W43221   1.059   8.294  13.949 -0.3128 -0.0517 -0.1092
26375W        W43222   3.595  13.240  12.856  0.1413 -0.0751  0.2210
26376W        W43223   8.268   0.728   5.437  0.3436 -0.2551  0.0049
26377W        W43224   2.660   3.056   0.096  0.1315 -0.0222  0.1070
26378W        W43225  19.669   4.798   1.298  0.0084 -0.1036 -0.2868
26379W        W43226  19.397  18.998  10.923  0.2113 -0.3188 -0.1339
26380W        W43227   4.997   5.979   2.638  0.0010  0.0414  0.0059
26381W        W43228  16.704  17.541  12.375  0.2090 -0.0188 -0.1143
26382W        W43229   3.718  10.360  12.313  0.0488  0.2521 -0.3394
26383W        W43230   9.683  14.324   3.244 -0.2131 -0.1665  0.2111
26384W        W43231  12.610  18.733  13.450 -0.1015  0.1616  0.0707
26385W        W43232   5.208   4.489  12.525 -0.2316  0.2850 -0.2167
26386W        W43233   0.554   5.637   3.463 -0.1511  0.1438 -0.0164
26387W        W43234  18.872  18.291   3.451  0.3224 -0.1024 -0.1323
26388W        W43235   1.461  11.037   2.413 -0.0775  0.1665  0.1569
26389W        W43236  13.426   3.650   1.811 -0.0242  0.0296  0.1331
26390W        W43237   2.854   1.730   3.373 -0.3438 -0.1289  0.1542
26391W        W43238   5.515   8.600  11.306 -0.1367  0.2056  0.3280
26392W        W43239   8.903   3.431  11.570 -0.2919  0.0467 -0.2040
26393W        W43240  17.509  14.314  13.887 -0.0155  0.0753 -0.0438
26394W        W43241   9.882  18.045   3.275 -0.3431  0.2371  0.1759
26395W        W43242  10.132  10.434   1.959 -0.1047  0.1854 -0.1232
26396W        W43243  15.449  18.571  12.315 -0.1621  0.2786  0.0110
26397W        W43244  11.806  14.265   2.577 -0.1387 -0.0207 -0.1404
26398W        W43245   7.718   0.711   4.913  0.0353 -0.2397  0.2612
26399W        W43246   9.289   4.119  13.738 -0.3099  0.1958  0.0493
26400W        W43247   5.439  12.257   1.994  0.1239  0.0422  0.2041
26401W        W43248  15.968   8.282  14.278 -0.0705 -0.0680 -0.0253
26402W        W43249   2.876   9.163  13.637  0.1533  0.1901 -0.0014
26403W        W43250  15.520  14.419  10.606 -0.1956 -0.4067 -0.2048
26404W        W43251  16.779  19.511   9.729  0.1641 -0.0086 -0.2827
26405W        W43252  16.245  15.813   3.660  0.0206  0.0101 -0.2991
26406W        W43253  11.054   7.118  11.445  0.0047  0.2228  0.0794
26407W        W43254   3.811  10.633   3.463 -0.0841  0.0165  0.0786
26408W        W43255  19.113   3.320   0.325  0.1362  0.0340 -0.2057
26409W        W43256   5.159  18.138   1.862 -0.1019 -0.3074 -0.1620
26410W        W43257  12.512   3.232   3.217 -0.4035  0.0864  0.3525
26411W        W43258   5.527   0.557  12.325  0.1536 -0.0705  0.1027
26412W        W43259  12.014   6.217  11.050  0.4983 -0.0505  0.1010
26413W        W43260  12.442  15.337   5.760  0.2059  0.0174 -0.1445
26414W        W43261   0.234  11.367  10.878  0.3374 -0.2431 -0.0996
26415W        W43262   9.509  11.526   1.773  0.1061  0.0221  0.0358
26416W        W43263  16.708  14.160   1.972 -0.0608 -0.0501  0.2583
26417W        W43264  17.554  14.044   1.168 -0.2941 -0.0984  0.0305
26418W        W43265  18.559  16.981   0.586 -0.0957 -0.1343 -0.1461
26419W        W43266  13.667  18.012  12.010 -0.1939  0.0273 -0.0503
26420W        W43267   9.031  14.821  11.241 -0.2206  0.0915  0.0015
26421W        W43268  19.478   9.187  10.862 -0.1845 -0.2645 -0.0363
26422W        W43269   8.051  13.265   4.326  0.1187 -0.1463 -0.1593
26423W        W43270   1.593   0.775   1.926 -0.1741 -0.3077  0.5046
26424W        W43271  11.691   6.396  11.545 -0.0429  0.0366 -0.0546
26425W        W43272   5.127  18.244   1.298 -0.2756 -0.1479 -0.1952
26426W        W43273  11.778  18.555   0.825  0.1180 -0.0616  0.1226
26427W        W43274   5.358  14.227   0.337 -0.0299  0.3594 -0.0080
26428W        W43275   2.248   5.332   3.582 -0.0138  0.1590  0.0210
26429W        W43276   6.176   4.055  12.661  0.2216  0.0644 -0.1600
26430W        W43277   2.280  13.355  11.836 -0.0693 -0.2335  0.1991
26431W        W43278  10.968  15.733  12.519 -0.0337  0.3466 -0.1232
26432W        W43279  18.440  15.571   5.036  0.0793  0.0251  0.0279
26433W        W43280  10.358   5.923   5.058 -0.0122 -0.1021 -0.4446
26434W        W43281  17.644  13.635  13.005 -0.1157 -0.0494  0.1928
26435W        W43282  15.949   3.251  14.185 -0.1719 -0.2595 -0.0458
26436W        W43283   4.643   8.542   3.744 -0.0498 -0.2320 -0.3714
26437W        W43284   7.509   3.512  11.227 -0.0773 -0.3042  0.1021
26438W        W43285   3.495   8.075   2.956 -0.1805  0.0043 -0.2806
26439W        W43286  12.334   6.638  14.329  0.2544  0.4808  0.0602
26440W        W43287   5.959   9.835  10.625 -0.0515 -0.3202  0.1589
26441W        W43288  11.836   9.077  14.257 -0.1985  0.0226 -0.2087
26442W        W43289  12.703  13.594  11.266  0.2235  0.3033  0.3327
26443W        W43290  16.167  14.537  10.320  0.1868  0.4044 -0.2426
26444W        W43291  11.690  14.479  11.650  0.1214 -0.0880  0.0500
26445W        W43292  19.667  16.919   2.646 -0.0167 -0.1819  0.2320
26446W        W43293  15.345  17.930   1.934  0.2204 -0.1658  0.1048
26447W        W43294   7.482  16.668  11.484 -0.0783  0.3067  0.1286
26448W        W43295  10.942  13.455   3.500 -0.0507  0.1655  0.0648
26449W        W43296   9.558  18.119  10.817 -0.0189 -0.4003 -0.1218
26450W        W43297  16.390   4.188   4.575 -0.3531 -0.0125  0.0811
26451W        W43298   3.458  10.642  12.645 -0.1245  0.2064  0.3106
26452W        W43299  13.334   8.613  11.014  0.3122  0.2226 -0.1411
26453W        W43300   7.464  14.000   3.266 -0.2552 -0.3496  0.5493
26454W        W43301   5.657   8.754   4.377 -0.0915  0.0683  0.0764
26455W        W43302   5.626  11.836   2.273  0.0920  0.0632  0.0338
26456W        W43303   5.802  12.018  13.390  0.0080  0.1042  0.1017
26457W        W43304   1.758  17.031  12.473 -0.1842 -0.1956 -0.1469
26458W        W43305  13.303   0.298  13.777  0.2333 -0.1469 -0.1434
26459W        W43306  17.013  16.780  13.926 -0.2397 -0.0481  0.4124
26460W        W43307  16.228  16.653  11.320 -0.1173  0.2707 -0.0593
26461W        W43308  17.569   7.320   0.758  0.1869 -0.0432 -0.2717
26462W        W43309   1.904   4.275   3.517 -0.1962  0.0615  0.2338
26463W        W43310   8.250   5.268   3.099 -0.0915 -0.0722  0.0873
26464W        W43311   6.233  12.683  10.744 -0.1575  0.0542 -0.0895
26465W        W43312   5.914   1.504  12.366  0.0303 -0.2356 -0.0798
26466W        W43313   7.513  16.382   5.055 -0.0119 -0.4564 -0.0849
26467W        W43314   0.569   0.577   2.153 -0.0666 -0.1592 -0.1739
26468W        W43315  12.831   3.481   1.903 -0.2088 -0.1098 -0.0020
26469W        W43316  13.063  13.160   1.549  0.1670 -0.0652  0.0121
26470W        W43317   0.023  15.497  13.533  0.2294  0.3185  0.4513
26471W        W43318   7.187  10.556   1.649  0.1353  0.3264  0.3547
26472W        W43319   1.838  18.085   0.270 -0.0719 -0.0613 -0.1243
26473W        W43320   2.135   6.921  14.142  0.0415  0.5273  0.0660
26474W        W43321  11.395   8.746  11.859  0.3003 -0.1414  0.2509
26475W        W43322  13.462   1.266   2.187 -0.0009 -0.1820  0.1586
26476W        W43323   8.919  16.890   5.458  0.3941  0.0544  0.0923
26477W        W43324  12.068  11.400   9.820  0.0533  0.0915  0.1223
26478W        W43325  15.304   8.579   5.100 -0.1426 -0.0374  0.2069
26479W        W43326  19.027  17.896   3.159 -0.1396 -0.1296 -0.0697
26480W        W43327  13.387  19.697   0.156 -0.1562  0.0305  0.0410
26481W        W43328  15.461  13.489  12.154  0.1550  0.2879 -0.0955
26482W        W43329  10.045   2.306   2.558 -0.2968 -0.0309 -0.0513
26483W        W43330   0.631   8.567  10.212  0.1053 -0.3768  0.3437
26484W        W43331  14.136   1.402   1.834 -0.3063  0.2225 -0.0966
26485W        W43332   0.999   6.013   5.377  0.0268 -0.1958 -0.2306
26486W        W43333   5.680  17.819   1.820  0.0320 -0.2762 -0.1780
26487W        W43334  14.619  14.201   2.246  0.1169 -0.1760  0.1775
26488W        W43335   3.128   1.673  13.507 -0.0472 -0.1235 -0.3549
26489W        W43336  15.627  17.439   3.143 -0.0865  0.0075  0.0101
26490W        W43337   6.118  13.329   4.713  0.0491  0.0732  0.0515
26491W        W43338  14.214   5.396   0.190  0.0001 -0.2917 -0.0938
26492W        W43339   4.788  12.681   0.577 -0.0994  0.1385  0.1163
26493W        W43340  13.755  12.607  12.409  0.0602 -0.3140 -0.1469
26494W        W43341  12.368   0.403  13.938  0.3490 -0.0274  0.0187
26495W        W43342   8.125   6.679  11.272 -0.0213  0.0686  0.2451
26496W        W43343  10.607  13.656   0.692  0.0434  0.3097  0.1989
26497W        W43344   7.147   3.011   0.589  0.0410 -0.1142  0.3243
26498W        W43345  15.764  11.278  10.158  0.2045 -0.0021 -0.1712
26499W        W43346  16.166   3.477  13.673  0.0159 -0.1509  0.0631
26500W        W43347  14.593   2.802  12.137  0.4789  0.2209  0.0094
26501W        W43348  14.982  14.411   1.900  0.3671 -0.1750 -0.0190
26502W        W43349  15.433   7.109   3.061  0.0650 -0.0564 -0.1440
26503W        W43350  11.395   9.296  11.678 -0.0234 -0.0251 -0.2612
26504W        W43351   4.267  15.153  14.139 -0.1893  0.0505 -0.1699
26505W        W43352  18.880  17.958   1.444 -0.3396  0.2076 -0.0774
26506W        W43353   4.484  15.637   2.135  0.4969  0.0790  0.0247
26507W        W43354   7.906   7.164  13.620  0.1020  0.0332 -0.1559
26508W        W43355   3.010   1.696  11.962 -0.0474  0.0019  0.4291
26509W        W43356   4.620   3.842  12.854  0.1040  0.0808  0.1740
26510W        W43357   1.143   6.264   2.586 -0.0018 -0.2054  0.0573
26511W        W43358  14.786   2.838   0.768  0.0946  0.0325  0.1187
26512W        W43359   1.341   2.957  12.277 -0.0249 -0.2503 -0.0249
26513W        W43360  18.661   0.095   4.894 -0.1715  0.2470  0.1860
26514W        W43361  10.647   3.626  13.992 -0.2102  0.2248  0.2893
26515W        W43362  14.228   2.241   2.431 -0.0132 -0.3494  0.0324
26516W        W43363  11.037  18.605  10.792  0.0869  0.1064  0.2027
26517W        W43364   7.102  12.510  11.189  0.3478  0.0089  0.0320
26518W        W43365   1.009  16.531   0.301 -0.2289 -0.0339  0.3127
26519W        W43366   9.625   7.568   1.365  0.1100  0.2022 -0.2150
26520W        W43367   2.334   3.486  10.775 -0.2749  0.2293  0.1638
26521W        W43368  17.919   4.242  11.680 -0.1990 -0.0332  0.2812
26522W        W43369   1.062   1.743   2.537 -0.0058  0.3961 -0.0655
26523W        W43370   1.882   3.764  14.040  0.0406  0.1899  0.0757
26524W        W43371   2.921  16.247  12.190 -0.2224 -0.2101 -0.3300
26525W        W43372  16.445  13.158   8.743 -0.2768 -0.0049 -0.1933
26526W        W43373   0.374  10.559   4.417  0.2187  0.0656  0.1064
26527W        W43374   7.312  14.866  13.297 -0.0430  0.1282 -0.0072
26528W        W43375   1.079   7.345   0.957  0.1539  0.2488 -0.0980
26529W        W43376  13.472  12.318   1.367  0.2997 -0.2959 -0.0965
26530W        W43377   8.534  19.365   2.012 -0.0020  0.0627  0.0954
26531W        W43378  19.842  13.139  11.330 -0.2907  0.0526  0.2992
26532W        W43379  16.946   7.847  13.174  0.1633  0.0966  0.3001
26533W        W43380   4.500   9.806   4.154  0.0741  0.4409  0.4361
26534W        W43381  16.816  10.647   1.107 -0.0334 -0.1354  0.0517
26535W        W43382   8.375  16.422   9.964 -0.1079  0.1280  0.1821
26536W        W43383  12.708  16.948   5.000  0.0331 -0.0355 -0.0163
26537W        W43384  12.934   1.375  11.154 -0.0246 -0.2145 -0.1567
26538W        W43385   5.461  12.846  11.786 -0.0755 -0.1654  0.1403
26539W        W43386   6.676   8.297  13.687 -0.0590 -0.2019  0.0904
26540W        W43387   3.987   8.855  13.224  0.2324 -0.5236  0.1277
26541W        W43388   3.149   8.373  10.838 -0.0021 -0.0561 -0.4142
26542W        W43389  15.207  15.173   1.241  0.4046  0.0318 -0.1598
26543W        W43390   9.088  14.979   0.984 -0.1833  0.0230 -0.0906
26544W        W43391   9.185  18.262   4.933  0.2503 -0.3729 -0.0182
26545W        W43392   9.522  12.150   1.695  0.0251 -0.0262 -0.0268
26546W        W43393   2.330   5.089   4.518  0.0962 -0.0704  0.0805
26547W        W43394  18.634  19.808  10.321 -0.3680 -0.0199 -0.2831
26548W        W43395  11.333  11.833  10.614 -0.0414  0.2550 -0.2258
26549W        W43396  10.868  19.100   1.024  0.3051  0.1523 -0.0851
26550W        W43397   3.520   1.297  13.284 -0.0273  0.3571  0.0396
26551W        W43398  17.425  14.808   2.291 -0.0232 -0.1983 -0.1451
26552W        W43399   9.166   5.004  10.443 -0.0164 -0.2832 -0.1155
26553W        W43400   4.680  16.886  10.420  0.0253  0.0542 -0.1212
26554W        W43401  19.771   6.245  10.926  0.3006 -0.2458 -0.1910
26555W        W43402  18.482  10.831  10.791 -0.0854 -0.1358 -0.1922
26556W        W43403   3.856  15.402  10.304 -0.2294  0.3956 -0.2299
26557W        W43404   1.522   4.375  10.667  0.1678 -0.0547 -0.1290
26558W        W43405   3.518   1.559   4.518  0.0092  0.4598  0.1357
26559W        W43406  13.268   2.360   0.166  0.0640 -0.2442 -0.0304
26560W        W43407   9.605   7.986  13.565  0.2275 -0.3355  0.1340
26561W        W43408   9.386   3.678   0.293 -0.0127  0.0430 -0.0978
26562W        W43409   8.353  11.581   2.609 -0.3486 -0.3573 -0.0914
26563W        W43410  13.101   4.110   2.891 -0.0367  0.2264 -0.0000
26564W        W43411  17.351  11.581   1.771  0.0446 -0.2031 -0.0901
26565W        W43412  19.340   6.968   4.185 -0.0717  0.1149  0.0780
26566W        W43413   4.197   3.277   4.024  0.0797 -0.1544 -0.4198
26567W        W43414  10.357  16.281   0.131  0.3314  0.2602  0.0060
26568W        W43415   0.781   7.770  11.490  0.1901 -0.1529  0.2051
26569W        W43416  17.155   5.393   9.135  0.0584  0.2878  0.1998
26570W        W43417  10.031   1.784   2.643  0.2127  0.0653  0.0306
26571W        W43418  19.020   8.390   4.426  0.1718  0.3576 -0.1967
26572W        W43419  15.745   8.677  10.282 -0.0870  0.2789 -0.1318
26573W        W43420   5.255  11.942   1.127 -0.0179  0.0113 -0.0523
26574W        W43421  11.630   9.704  14.247  0.5288 -0.0158 -0.2211
26575W        W43422  13.183  17.464  12.960  0.0243 -0.0740  0.0155
26576W        W43423  19.504  14.633  12.858 -0.0407 -0.2581  0.2587
26577W        W43424  16.713  14.591   0.008 -0.0174  0.0489  0.1818
26578W        W43425  16.139   3.647   4.463  0.2081  0.1386  0.2804
26579W        W43426   4.636  15.692   9.837  0.3529  0.0735 -0.0039
26580W        W43427  10.945   5.526   0.008 -0.0221 -0.2824  0.0426
26581W        W43428   3.187  15.142   4.904  0.1565 -0.1076 -0.0540
26582W        W43429   3.248   4.780   9.860  0.1494 -0.0954  0.3284
26583W        W43430  15.346   3.778   2.117  0.0615  0.0090 -0.1841
26584W        W43431   7.522  10.987   4.739  0.0833 -0.0626  0.0369
26585W        W43432  17.312  11.252  11.103 -0.1867 -0.3428 -0.5147
26586W        W43433  18.701   1.603  11.367 -0.1188 -0.1286 -0.0878
26587W        W43434   3.650  15.104  12.724  0.1997 -0.2204  0.1169
26588W        W43435  11.134   1.308  12.142  0.2156  0.0025 -0.2177
26589W        W43436   0.936   6.756  12.457 -0.3012  0.0687  0.2433
26590W        W43437  11.427  12.623  12.032  0.1552  0.1797 -0.0599
26591W        W43438  18.728  19.417   0.428 -0.1552  0.0528  0.0467
26592W        W43439  14.136  18.588  11.211 -0.4323  0.0565 -0.0539
26593W        W43440   7.905  18.362   3.240 -0.1138  0.0793  0.1037
26594W        W43441  19.027   1.180   2.899  0.1380 -0.3813 -0.1640
26595W        W43442   6.658  12.521  14.047 -0.0400  0.4531 -0.1197
26596W        W43443   9.220  10.275   2.529  0.1413 -0.0556 -0.1098
26597W        W43444   1.479   4.134   4.356  0.1684 -0.1233 -0.1100
26598W        W43445   0.269   3.938  12.402 -0.0671 -0.1520  0.4256
26599W        W43446  11.845  19.250   4.018  0.1347  0.1831 -0.1163
26600W        W43447  17.913   9.019   1.939 -0.0626 -0.4900  0.0765
26601W        W43448   0.501  14.201   9.608  0.2324 -0.1648 -0.1260
26602W        W43449   6.469   3.181   9.689 -0.0188 -0.0437  0.3392
26603W        W43450   4.381  11.681  14.299 -0.0665 -0.0219 -0.0101
26604W        W43451  15.301  11.152  10.282  0.0073  0.1302 -0.2785
26605W        W43452  10.962   7.542  10.097  0.3816  0.1595 -0.1689
26606W        W43453  16.755   3.267  14.123  0.0297  0.0238  0.1512
26607W        W43454  19.029   6.641   4.738 -0.0065 -0.0544  0.0192
26608W        W43455  13.863   4.266   3.620  0.1507 -0.1167 -0.1050
26609W        W43456   9.542  15.443   2.530 -0.1248 -0.0033  0.1769
26610W        W43457   8.590  13.630   2.654  0.1242 -0.3679 -0.2698
26611W        W43458  19.340  18.883   3.550 -0.2179  0.1140 -0.0607
26612W        W43459   4.192  12.353   3.462  0.4054  0.0260  0.2255
26613W        W43460   1.958   9.297  11.605  0.0666 -0.2749 -0.0480
26614W        W43461   3.153  16.247   2.722 -0.0051  0.1411  0.1884
26615W        W43462   0.057  12.615   4.367 -0.1093 -0.0667  0.0068
26616W        W43463  11.737   2.551   3.889  0.1709 -0.0936  0.4040
26617W        W43464   0.494   9.422  13.983 -0.1044  0.1526 -0.1374
26618W        W43465   3.171  12.402   9.943 -0.0266 -0.0524 -0.0417
26619W        W43466  18.700  14.702   1.003 -0.2030  0.0279  0.1432
26620W        W43467   1.073  17.921   5.166 -0.2477  0.1812 -0.2973
26621W        W43468   5.223   8.728   2.305 -0.1486 -0.3427 -0.1648
26622W        W43469   7.321   2.351  11.812  0.2833  0.0003  0.0243
26623W        W43470   2.733  16.777  13.722  0.0642 -0.2638 -0.0511
26624W        W43471  19.153  14.692   4.288  0.2198  0.4647 -0.0957
26625W        W43472  15.866  11.597  14.034 -0.2939  0.1406  0.1543
26626W        W43473   6.306  19.001   0.485  0.3058 -0.1046  0.1195
26627W        W43474  18.321  19.006   9.933 -0.0586  0.0465 -0.0989
26628W        W43475  17.143   9.839  10.775 -0.2765 -0.0385 -0.1659
26629W        W43476   1.096  13.728  14.318 -0.1072  0.1421  0.0692
26630W        W43477   5.191  15.394   0.939 -0.1631 -0.1802 -0.2549
26631W        W43478   3.510   1.136   0.196  0.1429 -0.0022 -0.0759
26632W        W43479   0.687  16.015  10.834  0.0823 -0.2209  0.2308
26633W        W43480  15.086   1.074  11.822 -0.3354  0.0503 -0.0643
26634W        W43481   7.008   2.950  13.731 -0.0861 -0.3162  0.1346
26635W        W43482  19.725   0.117   3.578 -0.0538  0.2604 -0.0437
26636W        W43483  19.783  15.238   1.733  0.0493  0.2399 -0.1872
26637W        W43484   7.850  18.255   4.377  0.2503 -0.1111 -0.0645
26638W        W43485   6.774   8.116   0.198  0.1454 -0.1495  0.0545
26639W        W43486  11.886  12.201   2.190  0.0553  0.0340 -0.1116
26640W        W43487   8.755  13.568   0.698 -0.0547 -0.0004  0.3488
26641W        W43488   3.919  15.707   1.604  0.0356 -0.1339 -0.2519
26642W        W43489   1.859   0.978   1.580 -0.2817 -0.2071  0.1433
26643W        W43490   1.967  18.540   3.249 -0.0545  0.0299 -0.2529
26644W        W43491  17.884  17.801  14.031 -0.0465 -0.0600 -0.2243
26645W        W43492  13.153   4.877  11.544 -0.0081 -0.1254  0.0347
26646W        W43493   4.295   7.992  11.192 -0.0523  0.3863  0.3185
26647W        W43494   5.213   3.888   2.267 -0.0832 -0.0088  0.0723
26648W        W43495   8.909   7.005  13.277 -0.2363 -0.0173  0.1123
26649W        W43496   3.120  15.788   4.272 -0.0292  0.0347  0.3228
26650W        W43497   8.466   6.530   4.528  0.0184 -0.0673  0.1038
26651W        W43498  10.424   1.852  12.037 -0.0190 -0.1461  0.3752
26652W        W43499  10.161  14.603  12.631  0.1534 -0.0672  0.2640
26653W        W43500   6.204   4.519  12.445 -0.0895 -0.1246 -0.1072
26654W        W43501   3.518  18.623  11.456 -0.3802  0.0471 -0.1781
26655W        W43502  19.686   1.356   0.543  0.0002  0.2026  0.0702
26656W        W43503   4.142   3.619  13.577  0.0625 -0.1630  0.0465
26657W        W43504  11.699   5.881   1.628  0.0623  0.0635 -0.1871
26658W        W43505   8.479  18.993   2.958 -0.1940  0.1477 -0.0122
26659W        W43506  11.821  15.546   3.261 -0.1620 -0.1181  0.2511
26660W        W43507  11.421  15.061   8.973 -0.1011  0.1559 -0.1902
26661W        W43508   0.048   6.572  10.005  0.1243 -0.3421 -0.1818
26662W        W43509  12.027   0.605   2.279  0.0801 -0.1101 -0.2095
26663W        W43510   6.757  16.782  10.809  0.2492 -0.2958 -0.2733
26664W        W43511   0.957   6.988   3.246  0.0310 -0.2873  0.1962
26665W        W43512  18.454   6.449   0.789 -0.0914  0.3180 -0.0550
26666W        W43513  10.789   0.001   0.649  0.3143 -0.0000 -0.1869
26667W        W43514   2.700  19.817  13.215  0.0083 -0.2404  0.2644
26668W        W43515  14.482  11.648   1.163 -0.2959 -0.0995  0.1196
26669W        W43516   7.885   1.153   0.984 -0.1955  0.0164 -0.1863
26670W        W43517  13.976   1.857   4.435  0.2104  0.1492 -0.2386
26671W        W43518   2.945   4.030   1.315  0.3012  0.1148  0.2053
26672W        W43519   6.656  15.473  10.607  0.0962  0.1876 -0.2033
26673W        W43520  11.148   0.941  12.737 -0.3458  0.3447 -0.1935
26674W        W43521  15.317  15.147  11.762 -0.1651 -0.0302  0.2391
26675W        W43522   4.774  17.109   1.330  0.1097  0.0079  0.2068
26676W        W43523   9.363  13.573  14.343 -0.0238  0.0676  0.1359
26677W        W43524   7.570   7.800   2.911  0.0112  0.1875  0.0070
26678W        W43525  11.650  18.448  13.652 -0.2484  0.3392 -0.1784
26679W        W43526   1.216   4.581   2.940  0.0044 -0.0446  0.4013
26680W        W43527  13.202   3.398   2.202 -0.1854  0.2072  0.0997
26681W        W43528   6.871   5.246   4.661  0.2374 -0.1463 -0.0105
26682W        W43529   0.944   9.520   4.702 -0.0362 -0.1482 -0.2086
26683W        W43530  17.344   7.953  12.838 -0.1070 -0.2310  0.3702
26684W        W43531   2.958   0.462   3.052  0.2894  0.0225 -0.2393
26685W        W43532   0.445  12.281   0.009  0.0373 -0.1863 -0.2508
26686W        W43533  15.832  17.441   2.104  0.1199 -0.0416 -0.2653
26687W        W43534  15.451   9.782  12.764  0.1852  0.0087  0.2618
26688W        W43535  15.459   2.172  10.343 -0.0937  0.2174 -0.0487
26689W        W43536  12.549  16.873  13.532 -0.1124 -0.1389 -0.1936
26690W        W43537  12.380   1.908   1.672 -0.0282 -0.0130  0.0889
26691W        W43538  15.422   7.473   2.734 -0.1139 -0.2140  0.2227
26692W        W43539   4.240  19.864   9.146 -0.3561 -0.1187 -0.0904
26693W        W43540   1.775   4.478   5.369  0.3672 -0.2336 -0.1611
26694W        W43541   1.415  16.686  11.138 -0.0264  0.1148  0.1084
26695W        W43542   9.042   3.844   2.722 -0.0156  0.3104  0.2386
26696W        W43543  17.004   6.035   3.194  0.0720 -0.2140  0.1281
26697W        W43544  16.494  18.018   2.170 -0.1183 -0.3172 -0.2436
26698W        W43545   5.922  18.825   3.223  0.1749  0.1834 -0.2338
26699W        W43546   8.202  14.073  13.704 -0.0665 -0.0058 -0.3922
26700W        W43547   6.085  10.496  13.295 -0.3576 -0.1163  0.2493
26701W        W43548  11.536  12.954   2.813 -0.2017  0.0792  0.0707
26702W        W43549   6.738  16.348  12.895  0.0748  0.2931 -0.2417
26703W        W43550   9.152  12.724   1.283 -0.0877 -0.0154 -0.0439
26704W        W43551  19.173   7.051   1.307  0.1274  0.1943 -0.2698
26705W        W43552  18.605  12.808  13.768 -0.2349 -0.0924 -0.0462
26706W        W43553  18.762  11.351  12.763 -0.2913  0.0621 -0.0919
26707W        W43554   6.761   3.471   2.022  0.0148 -0.3426  0.1848
26708W        W43555  10.786  13.931   2.119  0.3328  0.1204  0.0153
26709W        W43556   9.466  11.320  10.431 -0.0891 -0.1776  0.1081
26710W        W43557   6.746   6.879   0.728  0.0416  0.2739 -0.1492
26711W        W43558   2.234  11.115   1.282 -0.4611 -0.0333  0.2832
26712W        W43559  12.012   6.548   1.691  0.2318 -0.3397 -0.0987
26713W        W43560   9.880   1.867  11.222 -0.1492  0.0640  0.0731
26714W        W43561  17.231   4.760   1.694 -0.3700  0.1999 -0.0253
26715W        W43562  19.677   0.406   0.022  0.2416  0.1581  0.2006
26716W        W43563  16.444  17.524  11.905 -0.0724  0.1817  0.0396
26717W        W43564  12.372  10.474   9.586 -0.0399  0.1417 -0.2887
26718W        W43565  16.381   0.878   1.681 -0.1427 -0.5270  0.1499
26719W        W43566   6.224   8.229  13.538 -0.0201  0.0400  0.0884
26720W        W43567   4.470   3.190  10.961  0.0335  0.1090  0.3237
26721W        W43568   6.946  13.602   4.413  0.0571  0.0104 -0.0533
26722W        W43569   7.138  13.390   3.945 -0.2338 -0.3829 -0.1698
26723W        W43570  15.738   4.842  12.941  0.3065 -0.0718  0.3341
26724W        W43571  15.375   1.626   0.435  0.1338 -0.1229  0.2878
26725W        W43572  13.277  18.807   0.925 -0.2186  0.0337  0.3089
26726W        W43573   8.748   8.893  11.290 -0.0479  0.1836  0.0399
26727W        W43574   6.143   4.337  11.143  0.2598 -0.2426 -0.1190
26728W        W43575  16.103   6.939   4.947 -0.1558  0.0434  0.0896
26729W        W43576   5.070  13.242  13.112  0.0876  0.1512  0.1181
26730W        W43577  10.059  15.158   4.497 -0.1776  0.2460 -0.1426
26731W        W43578  13.259  16.553  10.637 -0.0553  0.1131  0.2971
26732W        W43579   4.662   8.483  13.543  0.2811 -0.0701  0.1040
26733W        W43580  15.516  12.875   3.110  0.0590 -0.0120 -0.3757
26734W        W43581   8.705  12.581   1.433 -0.0833  0.1684 -0.1214
26735W        W43582  19.629  13.336  10.939  0.1899  0.3159  0.1568
26736W        W43583   9.321   6.385  11.383 -0.0030 -0.0927 -0.0246
26737W        W43584  15.009  10.547  11.419  0.0521  0.5496 -0.2301
26738W        W43585  10.832   1.820  10.153  0.0270 -0.1397  0.0586
26739W        W43586   3.565  19.381  12.822  0.2046 -0.3749  0.0261
26740W        W43587  15.765   6.230   2.057  0.0794 -0.2652  0.2823
26741W        W43588   4.331  13.269   4.376 -0.2334  0.0773 -0.0862
26742W        W43589  19.123   2.392  10.751  0.2140 -0.0212  0.2167
26743W        W43590  13.355   3.049  11.929 -0.0250  0.0401 -0.0236
26744W        W43591   4.388   0.766  12.228 -0.1167 -0.1005 -0.0134
26745W        W43592   5.627   9.593  10.943  0.3319 -0.2847  0.1021
26746W        W43593   1.641  17.377   1.572 -0.2084  0.1227  0.2035
26747W        W43594  13.469  18.194   4.572 -0.2874 -0.1188  0.0370
26748W        W43595   2.052  13.237  10.962 -0.2043  0.1987  0.0355
26749W        W43596  11.737  16.374  10.443 -0.1196 -0.2769  0.1922
26750W        W43597  10.199   0.753   0.159  0.2434 -0.0750  0.0224
26751W        W43598   0.028  17.668   0.090 -0.1282 -0.1356 -0.0268
26752W        W43599   8.552  11.281   5.564  0.0835 -0.0980  0.2124
26753W        W43600   3.391  13.692  10.680 -0.0427 -0.1948 -0.0021
26754W        W43601  12.264   8.027   2.966  0.2142 -0.2680 -0.2085
26755W        W43602   4.277   4.075   0.955 -0.2085 -0.1992  0.2836
26756W        W43603   0.914  18.347  11.217 -0.0286  0.2804  0.1164
26757W        W43604   9.027   7.156   9.863 -0.0030  0.2562 -0.1990
26758W        W43605  19.027  19.475  10.755 -0.4765 -0.0567 -0.2144
26759W        W43606  11.021  19.110  12.749  0.0740  0.3083  0.1082
26760W        W43607   7.769   8.951   1.791 -0.0542 -0.0248 -0.0514
26761W        W43608  11.889   2.126   3.628  0.2241  0.1096 -0.2578
26762W        W43609   0.820  11.156  13.087 -0.1044  0.1925  0.0565
26763W        W43610  17.782   0.974   0.919 -0.1901  0.1850  0.0583
26764W        W43611  16.281  11.714  11.907 -0.4144  0.0121  0.2764
26765W        W43612   0.492  11.949   4.791  0.2447 -0.1518 -0.1343
26766W        W43613  18.495   8.067   0.945 -0.0376  0.1505  0.2241
26767W        W43614   4.197  12.348   2.972  0.1806 -0.0977 -0.2178
26768W        W43615  17.818  14.119   3.305 -0.1849  0.0407  0.2452
26769W        W43616   0.894   5.873   0.989  0.1059  0.2292  0.0217
26770W        W43617  12.530  11.678  11.542  0.0946  0.0161  0.0485
26771W        W43618   2.279  12.272  12.134 -0.1028 -0.2475 -0.2311
26772W        W43619  12.361   8.335   0.408  0.1891  0.3886 -0.1713
26773W        W43620  18.613   6.576  11.691 -0.2696  0.1885 -0.1768
26774W        W43621   4.093  13.297   1.538 -0.0233 -0.1023  0.2414
26775W        W43622  13.357  17.046  10.513 -0.2260  0.1513 -0.0471
26776W        W43623  11.462  15.769   5.169 -0.2641  0.4322  0.0955
26777W        W43624  13.104   6.784   2.120 -0.1744 -0.2803  0.2984
26778W        W43625   3.521   3.046  12.986  0.3787  0.1127 -0.0325
26779W        W43626   8.506   3.423  11.211 -0.0077 -0.0256  0.3389
26780W        W43627  15.596   1.474   1.498  0.0552  0.3801  0.1403
26781W        W43628   9.087   6.893   1.814  0.1000  0.0597 -0.4455
26782W        W43629   8.649  15.146   0.941 -0.0817  0.2158  0.1682
26783W        W43630  12.131  10.438  11.310 -0.1335 -0.2401 -0.0421
26784W        W43631  11.475  10.227   3.114 -0.0829  0.0869 -0.1697
26785W        W43632  14.203  18.136  12.347  0.2919 -0.1272 -0.0509
26786W        W43633   6.717  14.344   1.406 -0.0138  0.3351 -0.2885
26787W        W43634  15.980  16.845   9.798  0.0494  0.2864  0.0892
26788W        W43635  16.518   5.331   2.239 -0.3254 -0.1476 -0.1355
26789W        W43636  14.211   2.198   0.206  0.2756  0.4351 -0.1780
26790W        W43637  10.305   9.574   2.901 -0.2202 -0.0856 -0.2923
26791W        W43638   4.228   8.452   1.587  0.1193  0.0312  0.0324
26792W        W43639  18.957  14.967  13.612 -0.2188 -0.3197 -0.1629
26793W        W43640  14.415   9.369   0.610 -0.0347  0.2807 -0.0173
26794W        W43641   5.098   0.114   4.742 -0.3289 -0.0293  0.1315
26795W        W43642  11.922  19.081  13.793  0.0128  0.3966  0.3281
26796W        W43643   9.157   0.822   0.355  0.1309  0.0549 -0.1482
26797W        W43644   9.758  13.504   4.872  0.0802  0.0675  0.1456
26798W        W43645   2.726  10.448  11.080  0.0463  0.5117  0.1595
26799W        W43646  11.095  13.820   0.825 -0.2108  0.2443 -0.2835
26800W        W43647   1.046   2.502   3.173  0.4522 -0.0044  0.1862
26801W        W43648   7.239  19.579  13.110  0.1001 -0.0527  0.1077
26802W        W43649   2.661   4.998  10.455  0.1061  0.0371  0.1319
26803W        W43650   1.421  10.509  11.989 -0.1413 -0.0063  0.0839
26804W        W43651   2.030   1.521   3.468  0.0971 -0.0796 -0.3118
26805W        W43652   0.522   2.314   3.312  0.0698 -0.1769  0.1420
26806W        W43653  10.377  10.360  12.619  0.1548 -0.0467 -0.1966
26807W        W43654  19.343  10.027   1.286  0.1258 -0.0140  0.1778
26808W        W43655  17.389   4.943   0.999  0.0488 -0.1184  0.0089
26809W        W43656  10.275   2.258   1.051 -0.1217 -0.0210  0.2967
26810W        W43657  14.621   6.862   3.491 -0.1225  0.0541  0.0199
26811W        W43658  19.868  18.773  11.477  0.4404  0.4414  0.2771
26812W        W43659  17.956  13.324  13.634  0.2753  0.0039 -0.1661
26813W        W43660   9.247   9.411  11.464 -0.0876 -0.2188 -0.0489
26814W        W43661   9.693   4.078  12.292 -0.0343  0.1952  0.2389
26815W        W43662  15.540  17.584   0.566 -0.0013 -0.0958 -0.0995
26816W        W43663   9.514   3.329  13.502 -0.0629 -0.0248 -0.1593
26817W        W43664  18.813  12.611  12.778 -0.0638 -0.1358 -0.4512
26818W        W43665   0.632  19.728   3.945 -0.1132  0.1009  0.1851
26819W        W43666   6.017   7.325  12.354 -0.0278 -0.1908  0.2266
26820W        W43667   0.824   1.736   2.060  0.2451 -0.1110 -0.1109
26821W        W43668  10.350   8.696   0.928 -0.2580 -0.0280 -0.2576
26822W        W43669   5.196   2.246   4.556  0.1044 -0.0906 -0.1756
26823W        W43670  17.647   1.573   2.992  0.0080  0.0711 -0.1486
26824W        W43671  19.224  19.599  12.485  0.1023 -0.4135  0.1752
26825W        W43672   6.280  17.922   1.769 -0.2204 -0.0293  0.0943
26826W        W43673  14.607  12.441   0.848  0.0217 -0.2596 -0.5596
26827W        W43674   1.782   7.173   0.258 -0.4345 -0.0688  0.2130
26828W        W43675   5.963  19.785   1.324 -0.0787 -0.4548  0.0319
26829W        W43676   2.886   2.754   2.992  0.0549 -0.1054 -0.1369
26830W        W43677   9.963   5.934  12.962  0.0049 -0.1149 -0.2182
26831W        W43678   3.965  10.785  12.750 -0.0493 -0.0738  0.0328
26832W        W43679   6.185   2.632   3.979  0.2514 -0.1141 -0.0887
26833W        W43680  17.743   1.121   2.391 -0.1298  0.0926  0.1075
26834W        W43681   5.003  12.630   2.390  0.1481 -0.1351 -0.2983
26835W        W43682  18.785  12.454   3.754 -0.0215  0.0110 -0.1321
26836W        W43683  18.852  17.779   2.088 -0.2256  0.0548 -0.1686
26837W        W43684  13.666   3.620  14.199 -0.3386  0.0535  0.2285
26838W        W43685  18.486  15.628   3.643  0.1052 -0.2219  0.1472
26839W        W43686  13.053   3.551   0.757  0.2044 -0.1869 -0.0799
26840W        W43687  15.062  14.545  10.385  0.2305  0.1693  0.0205
26841W        W43688   5.117  12.023   1.625  0.0294  0.0818  0.0156
26842W        W43689   4.969   6.700  13.663 -0.0555  0.0217  0.2665
26843W        W43690  19.428   2.208   1.615 -0.0693  0.3922  0.2079
26844W        W43691  18.431  11.851  12.986  0.3787  0.0212  0.0805
26845W        W43692   1.207   5.172  10.054 -0.0548  0.0631 -0.5000
26846W        W43693   5.629  18.472   1.118 -0.0272  0.1150  0.0973
26847W        W43694  18.163  17.587  13.215  0.1886  0.1713  0.2288
26848W        W43695   8.122   7.700  10.785  0.0714 -0.0249  0.0504
26849W        W43696  16.623  12.275   2.064 -0.0871 -0.2880  0.0227
26850W        W43697   5.917   9.863   5.044 -0.0800 -0.2016 -0.1320
26851W        W43698   3.860   0.768   2.820  0.1504 -0.1064 -0.0063
26852W        W43699  11.746  13.327  13.917 -0.3640  0.0884  0.0374
26853W        W43700   8.060  12.283  14.165  0.1828  0.0634  0.1563
26854W        W43701  14.235  17.050  12.004  0.2812 -0.2323 -0.1331
26855W        W43702  15.295   3.450   3.377  0.1060 -0.1373 -0.2232
26856W        W43703  13.462  16.816  14.279  0.2607 -0.3396 -0.3948
26857W        W43704   7.434   0.364   4.516 -0.1971 -0.0120  0.3392
26858W        W43705   1.728   9.060  13.678 -0.0783  0.0538 -0.1231
26859W        W43706   5.428  10.323   4.317 -0.2375 -0.0115  0.1696
26860W        W43707  17.761  17.748   1.427 -0.0372 -0.2167 -0.0872
26861W        W43708   5.157   1.095   2.933 -0.1220 -0.0015 -0.3082
26862W        W43709  13.099  15.819   0.343  0.0412 -0.0708  0.1548
26863W        W43710  11.568   6.624   5.226  0.2379  0.0311 -0.1542
26864W        W43711   3.109   1.195   1.153 -0.3855  0.0497  0.0206
26865W        W43712   8.454   8.814  11.676 -0.0869 -0.0345  0.2865
26866W        W43713   0.408   3.389   1.816 -0.2786  0.1359  0.1095
26867W        W43714  16.243   9.471   0.150 -0.2475  0.0595 -0.0044
26868W        W43715   8.339   1.119   2.113  0.0255  0.0865 -0.2439
26869W        W43716  16.524  19.359   4.625 -0.3486 -0.0139  0.4433
26870W        W43717  13.335  19.212   0.509 -0.4117  0.1084 -0.0777
26871W        W43718   4.191   4.120   2.430  0.0050  0.2417  0.1645
26872W        W43719  14.066   2.208  11.940  0.2884  0.4498 -0.1081
26873W        W43720   0.521  15.758  12.026 -0.2868  0.1231  0.0796
26874W        W43721   4.093  10.710  11.418 -0.0481  0.0530 -0.0372
26875W        W43722  13.463  17.587  12.475 -0.1978 -0.0143 -0.2845
26876W        W43723   6.057   9.087   2.186 -0.3405 -0.2947  0.0482
26877W        W43724   7.998   7.488   1.377 -0.2267  0.0760 -0.2107
26878W        W43725  14.975  13.719  12.330  0.0725  0.1210  0.0266
26879W        W43726  12.344   1.996   2.222  0.0270 -0.0006 -0.1424
26880W        W43727  10.380   3.038  14.322  0.0547 -0.0254 -0.1044
26881W        W43728   9.497  19.838  12.871  0.4577  0.1063  0.0545
26882W        W43729  16.196   5.795   0.860  0.1477  0.1280 -0.1416
26883W        W43730  16.700   6.200  11.202 -0.0600  0.2764  0.1769
26884W        W43731  15.758  14.797   4.095 -0.1411  0.0470  0.0802
26885W        W43732  17.464  11.209  13.116 -0.1512 -0.2115 -0.2320
26886W        W43733  16.956  19.523  12.451 -0.0439  0.0203  0.3264
26887W        W43734   9.104   4.825   2.008  0.2974  0.2170 -0.4333
26888W        W43735   6.710  10.021  13.074 -0.0060 -0.2421  0.3617
26889W        W43736  18.376  17.203   0.055  0.4121 -0.1859 -0.0322
26890W        W43737   2.841  14.030   1.198  0.0306  0.0648 -0.0109
26891W        W43738  14.534  11.695  10.506  0.4230  0.0007  0.0540
26892W        W43739   6.897   9.415   1.000  0.0197  0.1757 -0.1801
26893W        W43740  14.141  10.415   2.347 -0.5009 -0.0409 -0.1515
26894W        W43741  10.474  18.938   3.096  0.0338  0.0100  0.1109
26895W        W43742   2.731  17.419  10.340 -0.2530  0.0061  0.2267
26896W        W43743   6.117  19.313   2.028 -0.0447  0.0137 -0.2279
26897W        W43744   0.739  15.783  13.273 -0.0235 -0.0362 -0.1596
26898W        W43745  18.820   5.217   1.722  0.2450 -0.1790  0.0303
26899W        W43746  15.114   2.026   1.878  0.1017 -0.1638 -0.4189
26900W        W43747   9.249   5.797  10.211  0.2229  0.0119  0.0771
26901W        W43748  16.167   6.847  10.674 -0.0773  0.0731 -0.1983
26902W        W43749   8.255  12.584  11.108  0.0269  0.3424  0.1442
26903W        W43750   5.411  10.499  12.084  0.3769 -0.0338  0.3089
26904W        W43751  10.040   7.247  13.755 -0.2172 -0.0319  0.1731
26905W        W43752   9.136   9.337  13.057 -0.0609  0.0377 -0.3640
26906W        W43753  18.534   0.390   0.363 -0.4096  0.2236 -0.2444
26907W        W43754   6.006   2.362   0.933 -0.3036  0.1047 -0.1100
26908W        W43755  19.656   0.840  11.935  0.0098  0.2875 -0.2962
26909W        W43756  19.001   0.591   3.514 -0.2026  0.0127 -0.1408
26910W        W43757   3.646  16.308  14.294  0.1253  0.0905 -0.0700
26911W        W43758   6.692   1.114   0.370 -0.2429  0.0782  0.0028
26912W        W43759   1.570   7.918   0.819 -0.1346  0.0438 -0.0179
26913W        W43760   2.869  17.908  11.568 -0.3474  0.1602 -0.1580
26914W        W43761  10.406  17.325   3.814  0.2337  0.4105  0.1368
26915W        W43762  14.133   6.295   4.576  0.0055 -0.1678 -0.1803
26916W        W43763  15.582   8.603   3.342 -0.2484  0.0866  0.2776
26917W        W43764   6.625   6.467   4.407 -0.2782 -0.2907 -0.3579
26918W        W43765  18.570  13.450   4.039 -0.3415  0.3131 -0.2365
26919W        W43766  19.339   8.787  12.477 -0.2276 -0.3088  0.2831
26920W        W43767   2.717   6.752   3.456 -0.0568 -0.1576  0.0371
26921W        W43768   7.834  19.456  13.779  0.1195  0.0259 -0.4178
26922W        W43769   9.798   6.096   0.951 -0.1221  0.2098 -0.4639
26923W        W43770  18.946   9.093  12.453 -0.3311  0.0777  0.0092
26924W        W43771  10.961   2.883   2.560  0.0489  0.0084  0.1040
26925W        W43772   4.774  16.187   3.501  0.0962 -0.0954  0.2014
26926W        W43773   8.464   2.500  10.951 -0.1483 -0.0076  0.0822
26927W        W43774  16.747   6.479   1.649  0.2235 -0.3715 -0.1171
26928W        W43775   0.886  11.801  12.339 -0.1366  0.0379  0.2450
26929W        W43776  12.465  19.613   3.560  0.3023  0.3090 -0.1441
26930W        W43777  18.247   6.007  10.031 -0.1539  0.0139 -0.0704
26931W        W43778  14.390  14.112  10.051  0.6360 -0.4384  0.0294
26932W        W43779   1.328  16.857   0.805 -0.2118  0.1561  0.1820
26933W        W43780  11.550  15.039  13.546 -0.3075 -0.2228 -0.0333
26934W        W43781   5.211  18.191   4.340  0.1392 -0.0256 -0.1230
26935W        W43782   2.647  11.174   3.210  0.0395  0.0394  0.0517
26936W        W43783   0.237  19.741   1.602 -0.2274 -0.0797 -0.2489
26937W        W43784  10.627  16.350  13.478 -0.1479 -0.2995  0.2186
26938W        W43785  18.061  16.070  10.925 -0.0610 -0.0148  0.3410
26939W        W43786  15.163   1.486   2.574 -0.0420  0.2452  0.1035
26940W        W43787   0.871   8.619   2.886 -0.2593  0.2267  0.1760
26941W        W43788  11.025   8.647   4.061 -0.0928 -0.0356  0.1512
26942W        W43789  19.251   6.607  12.281  0.0374  0.0117 -0.0908
26943W        W43790  12.004   5.992  11.541 -0.0740  0.0122 -0.0043
26944W        W43791   9.606   0.233  13.335 -0.3209  0.1723  0.1264
26945W        W43792  16.613  11.750   0.728 -0.1490  0.1140 -0.4402
26946W        W43793  11.994  14.869   1.580  0.0870  0.2266 -0.0379
26947W        W43794   2.686   5.786  12.157 -0.4722 -0.0184 -0.0351
26948W        W43795  17.386  17.979  13.972  0.0782 -0.1285 -0.0337
26949W        W43796   9.972  17.511  13.822 -0.3168  0.1916 -0.1074
26950W        W43797   4.733   0.409   3.907 -0.1546  0.1743  0.0623
26951W        W43798  13.992   0.598  13.266  0.1256 -0.0924  0.1563
26952W        W43799  14.659   3.864  12.374  0.1016  0.5004 -0.0331
26953W        W43800  11.335  18.269   3.489 -0.0400 -0.2187 -0.2969
26954W        W43801  13.843  15.919  13.257  0.2508 -0.0194  0.2180
26955W        W43802   7.690   3.275   9.871  0.0677  0.2392 -0.2915
26956W        W43803   4.278  16.412   0.068  0.1362  0.2430  0.2570
26957W        W43804   8.947  12.445   3.618 -0.1092 -0.3052 -0.0764
26958W        W43805  15.534   9.163  12.959  0.1056 -0.3908  0.1177
26959W        W43806  14.773  12.410  10.425 -0.1645 -0.1592  0.1872
26960W        W43807  14.557  11.279  10.860 -0.1032  0.2685  0.1252
26961W        W43808   5.285   5.087   3.659  0.1484  0.0527  0.0526
26962W        W43809  17.559   6.402  13.109  0.3387  0.0339  0.4271
26963W        W43810   1.675   4.364   4.807  0.2297  0.3721  0.0440
26964W        W43811   3.089  12.331  14.043  0.1980 -0.2813 -0.2378
26965W        W43812   3.973   6.857   2.183  0.0551 -0.0287  0.0510
26966W        W43813  16.531   5.302   3.687 -0.0119  0.2759  0.2366
26967W        W43814   6.987   0.590   2.141  0.1691 -0.1296  0.0350
26968W        W43815   3.673   4.676  13.227  0.4007  0.0281  0.2202
26969W        W43816  16.705   9.778   0.828  0.0708  0.0805  0.1732
26970W        W43817   8.123   6.928   2.778 -0.0750  0.0915 -0.1317
26971W        W43818  11.430   5.070   4.967 -0.1316  0.1097 -0.0443
26972W        W43819  15.558  17.594  12.694 -0.0172 -0.0382  0.0749
26973W        W43820  18.270  14.090   2.903 -0.1607  0.2540  0.0217
26974W        W43821   9.830  15.435  14.175 -0.0346  0.3530 -0.0213
26975W        W43822  19.847  19.582   3.757  0.2649  0.0373  0.2825
26976W        W43823  15.362  12.446  11.412  0.1060  0.0862 -0.0625
26977W        W43824   6.596   1.612   4.644  0.1832 -0.1851 -0.3927
26978W        W43825   6.491  18.117  12.293  0.1010  0.0961  0.0474
26979W        W43826  19.261  13.856   2.629 -0.1124  0.3950 -0.2528
26980W        W43827  11.586   4.651  12.770  0.1884 -0.1958 -0.0115
26981W        W43828   7.535   3.977  12.292 -0.1425 -0.3923 -0.4215
26982W        W43829   2.854   1.006   1.826 -0.1229 -0.1721 -0.2900
26983W        W43830   2.437  19.279  14.070 -0.1981  0.2192  0.0473
26984W        W43831   9.094   2.745   0.304 -0.1645 -0.1634  0.3185
26985W        W43832   3.137  13.286   3.016 -0.2654  0.1673 -0.0686
26986W        W43833   5.231  14.405   2.614 -0.3511 -0.2143 -0.2361
26987W        W43834   6.629  18.119   1.291  0.3956  0.1429 -0.1242
26988W        W43835   0.629   4.639   2.955  0.1267  0.0017 -0.1813
26989W        W43836  17.032   3.000   2.046  0.2519 -0.2020  0.2054
26990W        W43837  13.681   3.397  10.280  0.0140 -0.1550 -0.0014
26991W        W43838   2.347   3.542   2.202  0.2139  0.0418 -0.3064
26992W        W43839   6.585   1.047   1.274 -0.0275 -0.1107 -0.0171
26993W        W43840  10.331   9.030   1.636 -0.2123 -0.2029  0.2029
26994W        W43841  13.914  11.726  13.306  0.1103  0.0805  0.0940
26995W        W43842  16.550   7.421  10.404 -0.1385  0.1556 -0.0143
26996W        W43843  14.897   6.403   2.731  0.0146 -0.3012 -0.0299
26997W        W43844  17.160   7.641  13.710 -0.0883 -0.3164  0.3052
26998W        W43845   7.314  10.386  13.439 -0.2014  0.1240 -0.1573
26999W        W43846  12.121   1.075   2.014 -0.3535  0.1298  0.2116
27000W        W43847   1.135  12.423   9.626  0.1714 -0.2384  0.1766
27001W        W43848  12.046   8.909  11.193  0.0777  0.1810 -0.0988
27002W        W43849  13.158   4.662   9.865  0.0228 -0.1851  0.1385
27003W        W43850   6.339   9.809  13.981 -0.3080  0.2240 -0.0388
27004W        W43851   4.758  10.471   3.201  0.0860 -0.1384 -0.3600
27005W        W43852   5.432  17.499  11.620 -0.0343  0.0977  0.3099
27006W        W43853  17.052   4.206   1.640  0.0674  0.3099  0.1218
27007W        W43854  11.977   8.697  13.293 -0.0627  0.2888  0.0647
27008W        W43855  19.435  10.372  13.724  0.1487 -0.1943  0.0070
27009W        W43856   0.675  19.037   4.429  0.1472  0.1035  0.1963
27010W        W43857  14.419   9.344  14.163  0.2547  0.3449 -0.3900
27011W        W43858  14.685  13.383  10.803  0.2117  0.0376 -0.1438
27012W        W43859  12.757  11.088  12.658  0.2801 -0.2560 -0.1452
27013W        W43860  10.399   9.738   1.718  0.5001 -0.2305 -0.2933
27014W        W43861   9.545  12.150  11.136  0.0602  0.0475 -0.1692
27015W        W43862   5.654   8.052   4.577  0.1716  0.1780 -0.0902
27016W        W43863   8.188   2.521  10.384  0.1309 -0.0737  0.0971
27017W        W43864   4.009   4.129   9.402 -0.1549  0.4228  0.4329
27018W        W43865   5.902  11.421  13.376  0.0202 -0.1258  0.3819
27019W        W43866  12.758   3.083  13.748  0.1237 -0.3647 -0.0046
27020W        W43867  11.183  14.099   2.912  0.1181  0.0399 -0.1106
27021W        W43868   2.311  15.889  10.552  0.1197 -0.0162  0.0206
27022W        W43869   9.329   8.139   4.105 -0.3053  0.2778 -0.0775
27023W        W43870  14.201   4.632   0.576  0.1432  0.0251 -0.1087
27024W        W43871   6.014   2.837   2.401 -0.0437 -0.2932 -0.2392
27025W        W43872   4.301  19.830  12.970 -0.1965  0.2121 -0.2100
27026W        W43873  12.708  11.691   0.507 -0.2754 -0.1577  0.1258
27027W        W43874  12.175   5.134  13.986 -0.0897 -0.0036  0.2595
27028W        W43875   8.026   3.980  11.743  0.1019  0.4297 -0.1787
27029W        W43876  19.496   3.542   0.102 -0.0740 -0.2608 -0.1779
27030W        W43877   8.938   4.522  10.202 -0.0019  0.0257 -0.1618
27031W        W43878  11.699  16.558  13.637  0.0414 -0.0751 -0.3698
27032W        W43879   6.784   4.987   0.825 -0.0167 -0.0258 -0.2530
27033W        W43880   5.616   2.691  11.088 -0.1834 -0.1551 -0.2364
27034W        W43881   4.973  16.607   1.330  0.0435  0.2778  0.1723
27035W        W43882   8.671  15.032  10.816 -0.2517  0.0970  0.0514
27036W        W43883  16.310   4.109   0.407  0.1265  0.1979  0.0197
27037W        W43884  18.275   8.503  12.990  0.1128  0.3777 -0.2357
27038W        W43885  19.564   6.598   3.911 -0.1963 -0.0405  0.0892
27039W        W43886   2.112   4.075  11.447 -0.1942 -0.1440  0.5148
27040W        W43887   3.594   2.979  12.531  0.0621 -0.0059  0.2160
27041W        W43888   5.755  15.498  13.492 -0.1371 -0.1102  0.0713
27042W        W43889  15.127  15.860   0.956  0.1993 -0.5949  0.0105
27043W        W43890   8.151   0.376   3.399  0.1135 -0.1428 -0.0604
27044W        W43891   3.609   4.816   3.519  0.2593  0.0283 -0.2243
27045W        W43892  11.333  18.165  10.369 -0.0689 -0.0574 -0.1063
27046W        W43893  16.878  16.092   1.659  0.1864  0.2516 -0.3913
27047W        W43894  16.505   8.031  11.210 -0.0516 -0.0058  0.1916
27048W        W43895  16.997   9.319   2.884 -0.1339  0.2532  0.0173
27049W        W43896  19.103  17.182   4.571 -0.2170  0.0584  0.1790
27050W        W43897   4.146   3.931  11.949 -0.3300 -0.1521 -0.1029
27051W        W43898  16.651   9.570  13.767 -0.0976  0.0122  0.0127
27052W        W43899   4.273   3.878  10.260 -0.0679  0.0756 -0.0195
27053W        W43900  11.666   6.019   3.197  0.0143  0.0804  0.2506
27054W        W43901  17.019  11.886   1.016  0.0016  0.0580 -0.0779
27055W        W43902  18.208   4.451  12.210  0.1883  0.2479 -0.3568
27056W        W43903  14.715  19.390  10.391  0.0590  0.1831  0.0825
27057W        W43904   3.647   0.984   4.605  0.0317 -0.3140 -0.2134
27058W        W43905   7.320   3.637   3.933  0.1388  0.0619 -0.1180
27059W        W43906  16.088   6.788   2.868  0.2006  0.3749  0.2283
27060W        W43907   7.399   0.161   1.454 -0.0878 -0.0613 -0.3000
27061W        W43908   5.333   2.319   2.224 -0.2266 -0.1896  0.0085
27062W        W43909  10.746  10.045   0.495 -0.0680 -0.2161  0.1447
27063W        W43910   7.913  12.697   0.368  0.1990 -0.1336 -0.0828
27064W        W43911   8.471   5.298  13.391 -0.0861 -0.1875  0.2972
27065W        W43912  14.493  11.601  12.504 -0.2547  0.0274  0.1553
27066W        W43913  16.387  14.219   0.020 -0.3603 -0.1394  0.0194
27067W        W43914   9.513  19.621  10.549  0.1401 -0.1834 -0.2041
27068W        W43915  14.992  14.382   4.727 -0.0074  0.1823  0.0607
27069W        W43916   5.741  11.428   4.926  0.1041  0.1476  0.0617
27070W        W43917   4.126  10.470  13.756  0.3567 -0.2345  0.2498
27071W        W43918  12.145   1.739  11.097 -0.0318 -0.0104 -0.3663
27072W        W43919  18.448  13.425   1.437 -0.2825  0.1793 -0.1743
27073W        W43920  14.285  12.081   1.070 -0.0354 -0.1266  0.3481
27074W        W43921   8.503   8.684  12.749  0.2904 -0.3549 -0.0988
27075W        W43922   5.194   2.306   9.865 -0.0339  0.0372  0.2197
27076W        W43923  14.481  12.868   0.468  0.1518 -0.0917 -0.1472
27077W        W43924  18.490  17.208  13.302 -0.0048  0.2590  0.0106
27078W        W43925   1.907  18.401   2.261 -0.0819 -0.2483  0.0727
27079W        W43926  12.080  19.227   1.987 -0.3488  0.0895  0.1500
27080W        W43927   4.687   9.904   4.981 -0.5031 -0.0303  0.2146
27081W        W43928   9.625  16.578  12.565 -0.0272 -0.1084  0.0943
27082W        W43929  16.840   3.939  13.392  0.0675 -0.2979 -0.2588
27083W        W43930  18.768  14.877   1.904 -0.3793  0.2750  0.0699
27084W        W43931  11.076  12.801   2.884 -0.0838 -0.2255 -0.2261
27085W        W43932  13.459  17.760  11.100 -0.1786 -0.1059 -0.1123
27086W        W43933   6.256   7.105  12.813 -0.3256 -0.1516 -0.2320
27087W        W43934   7.562   6.138  10.576 -0.0983  0.1254 -0.1603
27088W        W43935  12.067  15.882   4.633  0.2337 -0.0102 -0.0352
27089W        W43936  16.480   1.571   1.860  0.1496  0.0281 -0.1987
27090W        W43937  17.624  17.406  13.269  0.0956 -0.1317  0.1924
27091W        W43938   2.447   5.009  12.614  0.3882  0.0386  0.1705
27092W        W43939   8.905   7.066   3.262  0.0170 -0.0845  0.0566
27093W        W43940   3.940   3.820   9.767  0.3838 -0.2074 -0.0918
27094W        W43941   2.538  18.188  10.724 -0.0982 -0.1504 -0.1370
27095W        W43942  19.627  16.759  14.144  0.1142 -0.1242 -0.1822
27096W        W43943   7.551   1.140   5.084 -0.1779  0.4046  0.1182
27097W        W43944  11.478  11.299   3.080 -0.0219  0.2342  0.1378
27098W        W43945   1.231   7.643   4.602 -0.1060 -0.2669  0.0777
27099W        W43946   5.717   6.684   2.439  0.5421 -0.1861 -0.3588
27100W        W43947   8.661  15.113  11.393  0.1179 -0.1829  0.0408
27101W        W43948  14.160   6.174  10.770 -0.1790 -0.0962 -0.3035
27102W        W43949  12.247  13.500   2.701 -0.1046 -0.0103 -0.0447
27103W        W43950   1.443  11.974   1.438 -0.0213  0.2371 -0.3590
27104W        W43951  19.814   8.431  14.296  0.0908  0.0481 -0.1793
27105W        W43952  15.700  15.720   2.671 -0.0953 -0.1316 -0.2937
27106W        W43953  11.910  17.781   2.746 -0.2201 -0.1858  0.0018
27107W        W43954   3.067  18.723   2.278  0.2316  0.3152 -0.3902
27108W        W43955  18.074  10.942   1.564  0.2884 -0.0674 -0.3366
27109W        W43956   6.725   1.690   4.016  0.0992  0.0074  0.0536
27110W        W43957   6.750  15.009   4.945  0.2476  0.1333 -0.2368
27111W        W43958  10.105  16.354   2.947  0.0027 -0.3946  0.2575
27112W        W43959  14.580  14.954  13.438  0.1716 -0.0171  0.0532
27113W        W43960   8.195   0.337   0.488 -0.2643  0.2729  0.0127
27114W        W43961   9.035  19.367   1.723 -0.4371  0.1146  0.2320
27115W        W43962   1.175   2.613   9.213  0.1235  0.4412  0.0310
27116W        W43963   3.815   0.527   4.507 -0.1630 -0.2520 -0.3655
27117W        W43964   2.199   1.418   3.913 -0.1913 -0.1626  0.1517
27118W        W43965   4.236   0.351   2.942 -0.1016 -0.2133  0.4898
27119W        W43966   2.311  11.323   0.710  0.1262  0.0876  0.0691
27120W        W43967  11.122  10.836   1.091  0.0890 -0.2056  0.0458
27121W        W43968  12.775   3.127   0.303 -0.0677 -0.2065  0.1682
27122W        W43969   5.591  16.355  12.507 -0.0600  0.0790  0.0040
27123W        W43970  17.763  18.986  14.024 -0.0957 -0.3135 -0.2184
27124W        W43971   3.171  10.214   3.458  0.3525 -0.3597  0.1258
27125W        W43972   4.978   4.372   9.958  0.4290  0.3416  0.0570
27126W        W43973  10.265   5.749   3.085 -0.0648  0.0033 -0.1270
27127W        W43974   1.262   6.011   0.774  0.0622 -0.3419 -0.2375
27128W        W43975   8.367  14.488   0.565  0.1821  0.2747 -0.1858
27129W        W43976  19.865  15.126   0.260  0.0166 -0.1429 -0.1199
27130W        W43977  17.805   8.870   3.844  0.5323  0.0325  0.2869
27131W        W43978   0.308   0.222   0.792 -0.0017  0.0256 -0.2264
27132W        W43979  17.954  14.915  10.341 -0.1712 -0.1894 -0.0434
27133W        W43980   5.204   1.386   3.935 -0.1658 -0.0933 -0.0992
27134W        W43981   0.613   9.549   2.896  0.0124  0.2451  0.3575
27135W        W43982  13.373  11.832   0.479  0.0048 -0.1146 -0.0945
27136W        W43983  14.290   1.428  10.317  0.0747  0.1851  0.2080
27137W        W43984   9.688  10.506  11.228  0.0285  0.0433  0.1332
27138W        W43985   6.255   8.611   2.348 -0.2310  0.1393 -0.2384
27139W        W43986  16.784   3.468  13.653  0.2923  0.2327 -0.0634
27140W        W43987   3.210   6.527   1.519  0.0619 -0.2935 -0.1592
27141W        W43988  11.949   6.653   0.341 -0.2585 -0.2022  0.4289
27142W        W43989   2.812  18.298   3.917 -0.0551 -0.3711  0.0390
27143W        W43990  11.632   4.219   1.884 -0.1711  0.3113 -0.3820
27144W        W43991  19.799  12.314  11.845 -0.0132 -0.1260 -0.2297
27145W        W43992   2.522  15.397   0.424 -0.3081 -0.0337  0.0905
27146W        W43993   6.277  16.956   4.548  0.1723 -0.0844  0.0287
27147W        W43994   2.331  11.103   3.851 -0.0554 -0.0343 -0.1406
27148W        W43995  18.732   7.645  13.020 -0.1080  0.0132 -0.2505
27149W        W43996  16.410   4.069  11.899  0.3447 -0.1968  0.1477
27150W        W43997  18.518   9.686   0.377 -0.0523 -0.1657  0.2654
27151W        W43998  18.175   9.192  10.164 -0.0469 -0.0432 -0.1679
27152W        W43999   0.599  19.717   9.615  0.6784 -0.0399  0.2380
27153W        W44000  18.924  15.123  12.060  0.0999 -0.1548 -0.2393
27154W        W44001   6.132   1.821   1.577 -0.1094  0.0355  0.4272
27155W        W44002  15.885  14.523  13.588 -0.1201 -0.0340  0.1105
27156W        W44003   1.271   4.973  13.599  0.0937  0.1631 -0.2041
27157W        W44004   3.276   7.024   0.974  0.1304  0.0639  0.2064
27158W        W44005  12.151   6.203  10.087 -0.1121  0.0152 -0.1330
27159W        W44006   7.479   4.506   0.338  0.0270 -0.0583 -0.2190
27160W        W44007  17.672   8.089  10.854  0.0620  0.0082 -0.0478
27161W        W44008   0.420  14.885  12.120  0.2889 -0.1555  0.1586
27162W        W44009   6.219  14.691   0.556  0.1865 -0.0535 -0.2198
27163W        W44010  16.747  12.794   3.937  0.2728 -0.3157  0.0091
27164W        W44011   4.273  10.795   1.340 -0.0872  0.1495  0.0882
27165W        W44012   2.642  10.019  10.878 -0.1931  0.0151 -0.0567
27166W        W44013   0.157   6.233  10.387 -0.1770  0.1197 -0.1012
27167W        W44014  10.576   4.480  14.298 -0.0015 -0.0569  0.0543
27168W        W44015  11.361  16.294   1.280 -0.1639  0.0050 -0.2265
27169W        W44016   0.974  13.368  13.399 -0.0207 -0.0109 -0.4020
27170W        W44017  12.774  14.295   2.677 -0.1658 -0.1461  0.0487
27171W        W44018   4.419  14.163   3.195 -0.2148 -0.2833 -0.0311
27172W        W44019   6.225  17.492   2.496 -0.0351 -0.1240 -0.0765
27173W        W44020   2.488   9.899   1.985  0.1149  0.0707 -0.1219
27174W        W44021   0.304  17.610   4.989  0.1510  0.2048 -0.0654
27175W        W44022  16.689   7.711   4.806  0.2866  0.1597  0.1413
27176W        W44023   1.340  16.609  11.624  0.1350 -0.0235  0.3307
27177W        W44024  12.868   2.352   2.762  0.2451 -0.1382  0.0965
27178W        W44025   6.746  12.870  11.361  0.2651 -0.2601  0.0188
27179W        W44026  14.568   9.605  13.722  0.1825 -0.0054  0.1642
27180W        W44027  17.505   5.334   1.689  0.1835  0.0012 -0.0283
27181W        W44028  17.292  17.740   4.592 -0.1334 -0.0281 -0.0042
27182W        W44029  19.110   7.574  13.394 -0.2090  0.4387 -0.0981
27183W        W44030  10.756   1.317   0.773 -0.1204 -0.3755 -0.1666
27184W        W44031   7.241   7.900   0.144 -0.2111 -0.3047  0.1428
27185W        W44032  10.045  12.977   3.945  0.0352 -0.5362  0.1105
27186W        W44033   2.606  18.622  14.325  0.0655 -0.0727  0.0553
27187W        W44034  17.867   1.126   1.411 -0.2366  0.0387 -0.2504
27188W        W44035  13.589   9.545   9.913 -0.2396 -0.3003  0.3513
27189W        W44036  18.546  13.001   1.755 -0.0923 -0.0336 -0.0238
27190W        W44037   0.746   3.300  13.380  0.1329  0.0253 -0.0299
27191W        W44038  11.688  17.992  10.750 -0.0998  0.0781  0.1285
27192W        W44039  11.530   9.447   1.140  0.1615 -0.1701  0.0567
27193W        W44040   1.878   2.743   0.541 -0.0488 -0.1866  0.0407
27194W        W44041   6.311  15.872  14.266  0.1243 -0.0608  0.1000
27195W        W44042  19.810  15.779  13.979 -0.1241  0.0067  0.0336
27196W        W44043  11.370   1.319   2.238  0.2440  0.0814 -0.1825
27197W        W44044  19.802   6.883   1.989  0.0692  0.0943 -0.0796
27198W        W44045  13.780  19.366  13.321  0.0435 -0.0400  0.2015
27199W        W44046  13.166  15.589  13.380  0.0732 -0.1388  0.0862
27200W        W44047   5.576  14.131  12.727  0.1999  0.1198  0.0230
27201W        W44048   1.395   2.364   9.619 -0.0384 -0.2780 -0.0124
27202W        W44049  17.704   7.827   2.500 -0.0572  0.1379  0.1965
27203W        W44050   8.293  14.756  10.583 -0.0046  0.2681 -0.1638
27204W        W44051  19.771   7.327  12.884  0.2323 -0.0968  0.1846
27205W        W44052  17.603   9.607   4.423 -0.1667  0.1043  0.0787
27206W        W44053   3.433   4.597   0.562  0.0807  0.2601 -0.2463
27207W        W44054   7.619  13.940  10.739  0.2257 -0.2502  0.3843
27208W        W44055   8.018   6.092  12.951 -0.2177 -0.2755 -0.3601
27209W        W44056  11.491   1.966   0.637  0.4665 -0.0250  0.2945
27210W        W44057   5.178  15.650  11.154  0.2532  0.0974  0.0416
27211W        W44058  13.683  13.844   5.609  0.3051  0.1574 -0.0310
27212W        W44059  19.863  12.305   5.639  0.1084 -0.0430  0.0759
27213W        W44060   6.284  13.175   3.788  0.1149 -0.1315 -0.0900
27214W        W44061   1.706   1.368   1.273 -0.1723  0.1426  0.2112
27215W        W44062   6.081   7.133   3.715  0.4249  0.0986 -0.1157
27216W        W44063  10.696  12.002  12.807  0.0258  0.1568 -0.2168
27217W        W44064  17.183   9.282  12.772 -0.1635 -0.3888  0.2398
27218W        W44065  19.108  14.328   3.947 -0.0348 -0.0645  0.0134
27219W        W44066   7.485  15.712  11.808  0.2222  0.0883  0.2250
27220W        W44067   5.041   9.519   3.025  0.0682  0.3009 -0.1617
27221W        W44068   3.445   5.666   1.665 -0.4115  0.0601 -0.1894
27222W        W44069   6.115  10.509   0.671 -0.0322 -0.1446  0.0635
27223W        W44070  17.530   0.775   2.735 -0.4164 -0.0323 -0.0883
27224W        W44071   0.877  14.544  13.029  0.1459  0.2581 -0.0787
27225W        W44072   3.224   6.243   0.549  0.0180  0.0723  0.0191
27226W        W44073   9.354  18.925  12.844 -0.3270  0.0349 -0.1054
27227W        W44074  19.287  19.886   2.478  0.1625 -0.3940 -0.0644
27228W        W44075   5.484  14.095  11.771 -0.2067 -0.1682  0.1173
27229W        W44076   6.518   4.591   1.456 -0.1649 -0.0708  0.0656
27230W        W44077  14.505  12.040   3.234  0.1349 -0.0524  0.3789
27231W        W44078  11.132  13.784   2.476 -0.1258 -0.1903 -0.0906
27232W        W44079  13.043  18.121   4.818 -0.0613  0.0108  0.2593
27233W        W44080   2.881   2.969   1.987 -0.1606  0.2407 -0.2185
27234W        W44081  12.147  10.939  10.754  0.2107 -0.1052 -0.0954
27235W        W44082  14.017  12.112   2.121 -0.1981  0.0103 -0.0714
27236W        W44083   1.436  17.199  11.189  0.0703  0.0745 -0.0556
27237W        W44084  17.698  10.877   0.586 -0.1149  0.2076 -0.3192
27238W        W44085   3.619   7.759   5.274 -0.1321  0.0695  0.0731
27239W        W44086  12.393  18.232  14.061 -0.0837  0.5082  0.1654
27240W        W44087   5.622   3.166   1.176 -0.2680 -0.2657  0.2624
27241W        W44088   2.229  18.796   1.313  0.2760 -0.0463  0.0805
27242W        W44089   2.982   7.938   3.238 -0.0444 -0.0682 -0.0690
27243W        W44090  16.655   2.143  10.262 -0.1729  0.0309 -0.2399
27244W        W44091  10.927   7.319  14.340 -0.0052  0.0439 -0.0308
27245W        W44092   6.873   6.501   9.142 -0.3556 -0.0899 -0.0176
27246W        W44093   8.984   3.175   1.994  0.0099 -0.0690  0.2285
27247W        W44094  10.558  10.175   2.056 -0.3547  0.0945 -0.0217
27248W        W44095  12.556  10.134   3.986 -0.4647  0.0395 -0.0492
27249W        W44096   0.789   2.936   3.397  0.1686 -0.2138  0.1602
27250W        W44097  16.136  15.048   4.408 -0.2121  0.1923  0.3414
27251W        W44098  11.878   2.673  13.613 -0.0296 -0.1425 -0.0375
27252W        W44099  19.267   7.032   0.396  0.0292  0.1470  0.1422
27253W        W44100  13.339  12.579   4.758  0.2155  0.0697 -0.0632
27254W        W44101   9.393  18.410   4.351  0.0056  0.1325 -0.0807
27255W        W44102   3.606   0.541   0.227  0.1236 -0.2349  0.1385
27256W        W44103   3.450   0.155  10.212 -0.1029 -0.3999 -0.0825
27257W        W44104  19.681   8.490   5.179  0.0998 -0.1443 -0.0871
27258W        W44105  17.039  13.591   9.924 -0.0507 -0.2024 -0.0133
27259W        W44106   1.010   7.899  10.624 -0.0485  0.1105 -0.0506
27260W        W44107   0.621  16.924  13.221 -0.0239 -0.1765  0.1068
27261W        W44108   1.042  11.652   4.009  0.0697  0.0122 -0.0351
27262W        W44109   0.892   0.373  12.222  0.0702 -0.0343  0.1323
27263W        W44110   5.558   8.924   9.694  0.2056 -0.0489 -0.0665
27264W        W44111   3.768   3.048   4.199 -0.3229  0.1291 -0.0268
27265W        W44112  13.950  10.004   1.731 -0.1132  0.2363  0.0372
27266W        W44113   4.912   4.287   4.000 -0.0093 -0.2236  0.1645
27267W        W44114  18.316   1.716  12.275 -0.1030  0.1323  0.0780
27268W        W44115   5.279   0.531   4.434 -0.0215 -0.1098 -0.0708
27269W        W44116   8.217   5.776   0.775  0.0859 -0.0737 -0.0105
27270W        W44117   9.104  16.393   5.496  0.3028 -0.2672 -0.1112
27271W        W44118   8.321   8.698  11.129 -0.3269  0.1658  0.1277
27272W        W44119  10.354  12.386  13.158  0.0412 -0.1693 -0.1990
27273W        W44120  13.893  14.258  13.327  0.1367  0.2364 -0.1988
27274W        W44121  18.110   9.992   3.497  0.0347 -0.0969 -0.2350
27275W        W44122   2.019   4.678  14.009  0.0149 -0.0274  0.2669
27276W        W44123  17.786   5.079   4.334  0.4443 -0.1697  0.1715
27277W        W44124   5.544  17.104  14.163  0.2436 -0.0296  0.0185
27278W        W44125   2.839  17.909  12.298  0.1407 -0.1407 -0.0491
27279W        W44126  19.817   7.869  12.183  0.1805  0.0630 -0.0192
27280W        W44127  17.619   9.558   1.778 -0.2562  0.1452  0.2111
27281W        W44128   7.336  11.369  13.408 -0.2036 -0.2954 -0.4130
27282W        W44129  11.484  18.626  11.670 -0.0565 -0.0317 -0.4256
27283W        W44130  17.258   9.086   3.676  0.1744 -0.0943 -0.3030
27284W        W44131  13.961  18.596   0.808 -0.1713  0.1989 -0.2982
27285W        W44132   9.725  18.698   1.756 -0.3992 -0.2197  0.1939
27286W        W44133  10.587   2.785  12.654  0.1114  0.1565 -0.0151
27287W        W44134   2.126  17.697   2.596 -0.2376 -0.0042  0.1414
27288W        W44135  10.490  13.786   0.036  0.1577  0.1521  0.1158
27289W        W44136  11.002  12.127  11.419 -0.1452 -0.1616  0.1612
27290W        W44137   5.391  17.939  12.479 -0.2298  0.1885  0.2279
27291W        W44138   8.262   9.813   1.824  0.2840  0.1506  0.1198
27292W        W44139  19.878  13.767  11.015  0.2405 -0.4032 -0.0540
27293W        W44140  14.504   6.656  10.102 -0.1960 -0.0084 -0.0414
27294W        W44141   9.230   1.327  11.962  0.0792  0.0171  0.0080
27295W        W44142  17.610  18.156  11.184  0.0657  0.0040  0.0702
27296W        W44143  11.000  16.041  11.673  0.1117 -0.1720  0.2616
27297W        W44144   8.279  18.916  12.197  0.2410 -0.0733  0.3865
27298W        W44145  10.456  15.461   9.842 -0.1251 -0.0822  0.1542
27299W        W44146  14.042  10.543   9.927 -0.1270 -0.1689  0.1446
27300W        W44147  18.946  10.058   2.818  0.3603  0.3065  0.1379
27301W        W44148   0.543   7.508  14.177 -0.1683  0.1950  0.0042
27302W        W44149   1.871  14.973   2.441  0.0554  0.0673 -0.1794
27303W        W44150  17.921   5.846   3.675  0.0330 -0.0254  0.0550
27304W        W44151   5.194   8.517   0.117  0.1144 -0.0250 -0.3045
27305W        W44152  15.773   7.064   0.051  0.3948  0.3504  0.0214
27306W        W44153   2.903   6.791   1.865 -0.3144  0.0911 -0.2034
27307W        W44154  10.367  18.036   2.416  0.2575  0.4152 -0.1095
27308W        W44155  10.540   9.441  12.174 -0.0967 -0.1564  0.0763
27309W        W44156  18.046  11.956   2.734 -0.2505 -0.2348  0.0447
27310W        W44157  11.732  10.996   2.001  0.2068 -0.3366 -0.1225
27311W        W44158  15.336   2.458   4.613 -0.0878 -0.0923  0.1161
27312W        W44159   5.093  11.778  13.459  0.1664  0.0230  0.1873
27313W        W44160   7.178   9.555   3.617 -0.0227 -0.0021  0.2228
27314W        W44161  15.549  11.362  11.246  0.2681  0.0637  0.1585
27315W        W44162  12.442  15.943   1.983 -0.2532 -0.1453  0.2190
27316W        W44163   5.683   9.524   4.724 -0.1442  0.3998  0.0074
27317W        W44164  15.198   5.552   1.564 -0.1725 -0.1199  0.1103
27318W        W44165   8.121  19.393  10.336 -0.2590  0.0009 -0.0473
27319W        W44166  15.171   8.756  10.154 -0.0534  0.2170  0.1781
27320W        W44167   6.592  16.503   4.593  0.3584  0.2435  0.0325
27321W        W44168   9.728  12.622   4.102  0.2127  0.3260 -0.0941
27322W        W44169   3.196   7.709   4.044 -0.1673 -0.1064  0.2416
27323W        W44170  18.436  17.344  11.944 -0.1110 -0.1401  0.2115
27324W        W44171  14.471  13.469  13.142  0.0435  0.0431 -0.1132
27325W        W44172   5.896   5.083  13.994  0.0144 -0.2070 -0.2845
27326W        W44173   7.367  10.108  11.766 -0.0256  0.0020  0.1775
27327W        W44174   3.531  12.429  11.579  0.1541 -0.1208 -0.3460
27328W        W44175   0.402   0.512  12.982 -0.1320 -0.1634  0.1298
27329W        W44176  15.579  14.021   2.306 -0.0458  0.2031  0.0401
27330W        W44177   3.273   3.860  13.032  0.0567  0.1715 -0.2534
27331W        W44178  10.196   4.387  11.607  0.2923  0.0054 -0.3127
27332W        W44179  17.451  16.897  10.851  0.1618 -0.2160  0.0279
27333W        W44180  10.410   4.281   1.165 -0.1739  0.0067 -0.0763
27334W        W44181  15.407  15.414   0.352  0.2127 -0.0556  0.2389
27335W        W44182   1.876  15.963   1.593 -0.0441  0.1911  0.1733
27336W        W44183   2.304   2.854  12.024 -0.1565 -0.4233  0.0346
27337W        W44184   0.284  13.358  11.046 -0.1067 -0.1206 -0.2945
27338W        W44185   5.430   6.685  10.523  0.2322  0.1362  0.2295
27339W        W44186  13.595  16.409  12.972  0.2295 -0.0027 -0.0658
27340W        W44187   0.191  17.166   4.178 -0.1642 -0.1545 -0.1099
27341W        W44188  12.296   4.413   1.796 -0.2289 -0.2882 -0.0016
27342W        W44189  16.670   3.013   1.559 -0.1962  0.1815  0.0795
27343W        W44190   4.677   3.716   4.721 -0.0453 -0.1184  0.0513
27344W        W44191   5.240  10.833   0.182 -0.2371 -0.1362 -0.1972
27345W        W44192  17.008  11.494   0.748  0.2930  0.1484 -0.1715
27346W        W44193  14.638   0.079   2.545  0.0785 -0.0269 -0.2045
27347W        W44194   1.177   4.593   0.963 -0.0325 -0.1452 -0.0902
27348W        W44195  14.709   2.633  11.531  0.0920 -0.1651  0.0438
27349W        W44196  14.041   0.221   2.671 -0.0140 -0.3383 -0.1415
27350W        W44197   6.733   7.672  10.684  0.2772  0.0666  0.0817
27351W        W44198   0.085  15.235   4.001  0.1121 -0.2038  0.1593
27352W        W44199  19.765  14.219  10.859  0.1744  0.1356 -0.1368
27353W        W44200  17.235  18.695   5.002  0.4219 -0.3039 -0.3015
27354W        W44201   2.696   0.333   3.662 -0.0595 -0.2098  0.0436
27355W        W44202  16.920  13.902  12.078  0.0717  0.0213 -0.0826
27356W        W44203  13.661   1.544   0.380 -0.3708 -0.0422 -0.0224
27357W        W44204   0.745  11.486  11.036 -0.0775 -0.0979  0.1264
27358W        W44205  17.024  18.955  12.505  0.0388  0.0202  0.0208
27359W        W44206  14.031  19.691  10.155  0.0344  0.0170 -0.1380
27360W        W44207  10.887   7.911   3.223  0.0611 -0.1325  0.0025
27361W        W44208  13.952  12.800   4.773  0.1291 -0.2079  0.0080
27362W        W44209   6.470  11.365  13.438  0.0362 -0.2642  0.1207
27363W        W44210   1.801  12.641   1.783 -0.2268 -0.1366 -0.3296
27364W        W44211  12.117   8.118   9.803 -0.1708  0.1320  0.0680
27365W        W44212  16.701   3.118   1.055  0.0333  0.2840  0.0602
27366W        W44213   5.218  14.536   5.032  0.3444  0.1317 -0.0883
27367W        W44214   3.120   6.538   3.693  0.0953 -0.0206 -0.0886
27368W        W44215  16.136  13.944   9.791  0.4544  0.1074 -0.1924
27369W        W44216   3.683   3.629  13.574 -0.1871 -0.3064  0.3077
27370W        W44217   4.343   6.116  13.185  0.0791  0.2085 -0.1004
27371W        W44218  14.137   4.525   2.300  0.0432 -0.4800 -0.0924
27372W        W44219   2.671  19.233  12.782  0.0556  0.3377 -0.2268
27373W        W44220   8.512   9.449   2.836  0.0785 -0.1306  0.0447
27374W        W44221   3.815  15.373  13.206  0.0255  0.2393  0.2851
27375W        W44222  15.336  14.826  10.021 -0.1674  0.1744 -0.2224
27376W        W44223   5.558   8.058  11.375  0.2739 -0.1205  0.0122
27377W        W44224  18.401   8.937   4.764 -0.0529  0.0934  0.1574
27378W        W44225  18.384   9.805   4.606 -0.1654  0.0282 -0.3023
27379W        W44226   1.718   2.391  14.142 -0.0419  0.2205  0.4688
27380W        W44227  18.553   9.067  10.526  0.0546 -0.3798  0.0236
27381W        W44228   3.408  13.458   0.448 -0.2293  0.1406  0.0785
27382W        W44229  11.757   1.442  13.128  0.0387  0.1945 -0.1372
27383W        W44230  16.247   9.172  11.921 -0.0300 -0.0512 -0.0212
27384W        W44231  17.187  14.445   4.334 -0.2463 -0.3141 -0.1531
27385W        W44232  12.861   6.478   3.885 -0.2693 -0.3700  0.2644
27386W        W44233   8.313   1.054  12.577 -0.2421  0.0883  0.0938
27387W        W44234   3.286   4.315   1.050 -0.2480 -0.1996 -0.2554
27388W        W44235   4.743  17.284   4.335 -0.1551  0.0123 -0.0435
27389W        W44236   4.841  19.536   2.782 -0.0337 -0.1479  0.0028
27390W        W44237   3.409   0.466   2.214 -0.4643 -0.4190 -0.3281
27391W        W44238   2.673   6.550  13.306 -0.1926 -0.1664 -0.1170
27392W        W44239  18.036  14.798   0.163 -0.0228 -0.1791  0.1466
27393W        W44240   9.425  18.671   9.687  0.1163  0.1284 -0.1949
27394W        W44241  11.210   2.973   9.606  0.0705  0.0234 -0.4058
27395W        W44242  10.380  17.804  11.058  0.1422  0.0787  0.2644
27396W        W44243   4.998   1.341  11.855  0.1657  0.1592 -0.2994
27397W        W44244   8.096  18.258   0.158 -0.1568  0.1411  0.0242
27398W        W44245   0.525   9.107  11.454  0.0010 -0.1276  0.3102
27399W        W44246   4.104   7.408  11.551 -0.2845 -0.1038  0.2570
27400W        W44247   1.016   1.345  10.906  0.3813 -0.0480 -0.3690
27401W        W44248  15.922   6.699   1.916  0.1347  0.3124 -0.1728
27402W        W44249   2.975   8.306  13.781  0.4174 -0.3268  0.1544
27403W        W44250   4.004   4.836  11.714 -0.2748  0.0822  0.0909
27404W        W44251   0.338   1.369   3.790  0.4331 -0.0450 -0.0249
27405W        W44252   5.344   3.538   1.845  0.2612  0.0551 -0.1154
27406W        W44253  11.674   6.185  13.307  0.0585  0.2115  0.1401
27407W        W44254   2.444  15.955  11.115  0.1422  0.1384 -0.0718
27408W        W44255   7.191  14.782   1.495 -0.1067 -0.0839  0.0398
27409W        W44256   0.519  19.316  14.252  0.1084 -0.2150  0.2563
27410W        W44257   6.915  19.633  13.466  0.3193 -0.0789  0.0097
27411W        W44258   2.826  19.742  12.358 -0.0828 -0.1732  0.1785
27412W        W44259   3.104  15.074   4.418 -0.1361 -0.2770 -0.4579
27413W        W44260   3.700   5.017   9.916  0.2617  0.4251 -0.0314
27414W        W44261   3.301   1.613   2.085  0.2412  0.0666  0.4420
27415W        W44262  13.551  13.526  12.505 -0.1193  0.1611 -0.0232
27416W        W44263   6.331  11.004  10.990  0.1593 -0.0308  0.0564
27417W        W44264  19.121   8.822   0.745 -0.0568 -0.4135  0.0539
27418W        W44265  12.641   5.786   0.207  0.0617 -0.0551  0.1291
27419W        W44266  11.631   2.948  13.951 -0.0491 -0.4803 -0.3467
27420W        W44267   6.842   1.855  10.277 -0.1952 -0.1455 -0.0182
27421W        W44268  10.089   1.216   3.201 -0.0714 -0.0661 -0.1772
27422W        W44269  15.799  15.782  13.979  0.0152 -0.0979 -0.2053
27423W        W44270  16.147   5.471   9.885 -0.0818  0.2279  0.4300
27424W        W44271  16.145   4.738  11.004  0.0874 -0.0272  0.2786
27425W        W44272  10.095  17.551   1.121 -0.2422  0.2873 -0.0952
27426W        W44273   2.365  13.909  11.384 -0.0822 -0.0470  0.2923
27427W        W44274  18.242   0.837   1.119  0.1545  0.0542  0.0151
27428W        W44275  16.852  14.010  12.561  0.1849 -0.2547 -0.2071
27429W        W44276  16.534  17.102   0.306  0.2156  0.0836 -0.0991
27430W        W44277   8.063  14.286   9.114 -0.1642 -0.0056 -0.1904
27431W        W44278  17.810   1.676  11.458  0.0347 -0.2550  0.2079
27432W        W44279   1.086   7.226  13.922 -0.0167 -0.2696  0.2047
27433W        W44280  16.421  19.739   3.151  0.0561  0.1433  0.0872
27434W        W44281   7.551  16.668  11.978  0.2466 -0.1735 -0.0216
27435W        W44282   1.247   5.551   4.083  0.2560  0.1771 -0.3605
27436W        W44283   5.269  10.548   3.828 -0.2013 -0.2298 -0.0128
27437W        W44284  16.340   1.861   9.994 -0.0302 -0.1295  0.0571
27438W        W44285  19.675   6.254   3.546 -0.1559  0.2495 -0.0833
27439W        W44286  14.754  11.748  11.027  0.1537  0.3167  0.0228
27440W        W44287   8.878  16.893   0.372  0.1888 -0.1541 -0.2950
27441W        W44288   3.770   5.458   1.135  0.1873 -0.3217  0.1791
27442W        W44289  11.026  13.952   4.646 -0.0926  0.1083  0.0802
27443W        W44290  18.111  12.534   3.106 -0.1777  0.0624  0.3215
27444W        W44291   2.983   0.207  12.806 -0.0410 -0.3838 -0.1757
27445W        W44292  15.690  12.460  14.296  0.2163  0.1299  0.1560
27446W        W44293  10.588  16.659   0.360  0.4888 -0.1961 -0.2257
27447W        W44294   6.528   1.540   2.999  0.2875 -0.1628 -0.0610
27448W        W44295   9.090  16.568  13.461 -0.0656  0.4360  0.1188
27449W        W44296   7.145  15.724   4.570  0.3246 -0.1508 -0.0335
27450W        W44297   4.808   2.271   5.530 -0.2063  0.0385 -0.2567
27451W        W44298   7.170   7.243   4.359 -0.2849  0.1258 -0.2019
27452W        W44299   1.895   4.490  10.209 -0.4711  0.0271 -0.0470
27453W        W44300   9.095  11.817  13.777 -0.1138 -0.1937 -0.2768
27454W        W44301  15.850  12.031  14.182 -0.1096 -0.1107  0.2141
27455W        W44302   2.890   4.198  12.257 -0.0018 -0.2106  0.1140
27456W        W44303  13.543   4.204   3.112  0.1143  0.0924  0.2359
27457W        W44304  18.748  12.861   0.728 -0.0785 -0.1173  0.1777
27458W        W44305   4.804   3.285  14.173 -0.0576  0.1887  0.1890
27459W        W44306   0.825  17.946   1.492 -0.0943  0.2732 -0.0878
27460W        W44307  14.593  12.635   4.493  0.1225  0.1903 -0.0817
27461W        W44308   5.775  17.892  14.309  0.1598  0.1594  0.1134
27462W        W44309   6.923   4.019  11.010 -0.3157  0.0269  0.1641
27463W        W44310   4.320  12.854  12.228 -0.3502  0.3244  0.1773
27464W        W44311  17.756  17.918   0.547 -0.1162  0.2483 -0.3141
27465W        W44312   2.012   4.085   0.070  0.1833 -0.0353 -0.0997
27466W        W44313   1.808   2.745  13.228 -0.2638 -0.2784  0.3145
27467W        W44314  17.544   0.474   0.888 -0.0394 -0.3828 -0.0336
27468W        W44315  12.721  19.180   4.161  0.0409 -0.0334  0.1287
27469W        W44316  10.461  10.247   3.348 -0.2766 -0.1647  0.1483
27470W        W44317   9.455  10.901  11.093 -0.2655 -0.2568  0.1025
27471W        W44318   4.291  15.756   3.441  0.0989  0.1877 -0.0777
27472W        W44319  12.018   9.594   3.234  0.3414  0.2752 -0.1333
27473W        W44320   9.918   5.117   1.671  0.0431 -0.5247 -0.3528
27474W        W44321  11.001  14.391   2.307 -0.1864  0.1770 -0.0437
27475W        W44322   3.681  12.050   2.376 -0.1287 -0.0115 -0.2147
27476W        W44323   5.055   7.287   1.805  0.1183  0.2390 -0.2914
27477W        W44324   5.669  13.260   1.019 -0.1078 -0.1712 -0.0975
27478W        W44325  15.859   5.083   0.586  0.0415 -0.1836 -0.0730
27479W        W44326   6.832  18.802  12.569 -0.4230  0.0193 -0.1176
27480W        W44327   8.405   6.409  10.351 -0.2611  0.3045 -0.0333
27481W        W44328   2.624  13.895   5.596  0.0109 -0.3449 -0.1652
27482W        W44329  18.456   6.707   0.336  0.1242 -0.1293  0.1989
27483W        W44330  17.072   5.194   1.873  0.2669  0.1540  0.0536
27484W        W44331   9.911   3.467  10.299  0.0589 -0.0481  0.0734
27485W        W44332   9.425  12.328   4.440 -0.0840 -0.2630 -0.2786
27486W        W44333   8.453   6.244  11.337  0.0741  0.0671 -0.2140
27487W        W44334  13.842  10.698  10.359  0.1779 -0.4503  0.0853
27488W        W44335   5.713  17.019  11.598 -0.0396 -0.0922  0.1659
27489W        W44336   7.032  14.686   4.600 -0.0533 -0.1888  0.2853
27490W        W44337  18.117  17.191   0.487 -0.3146 -0.0747  0.0082
27491W        W44338  13.611  11.952  10.270 -0.2833 -0.3623 -0.3706
27492W        W44339   2.367  11.412  13.216 -0.1470  0.1089  0.2280
27493W        W44340  12.636   0.472  11.698 -0.3086 -0.5050 -0.6044
27494W        W44341   2.481  10.353   9.365 -0.0380  0.1368 -0.1154
27495W        W44342   0.096   0.796  14.254 -0.1029  0.0869  0.0672
27496W        W44343  14.824  15.528   1.055  0.0105  0.2427 -0.0686
27497W        W44344   4.653  16.820   2.441 -0.3130  0.0959 -0.0176
27498W        W44345  15.154  14.329   4.118  0.0172  0.0561 -0.0226
27499W        W44346  15.748   3.920   8.996  0.0578 -0.1370  0.2572
27500W        W44347   4.206   2.783   4.100 -0.0037  0.1545 -0.1544
27501W        W44348  19.044   5.271  11.452  0.2868 -0.1363 -0.0752
27502W        W44349  12.200  13.679   5.647 -0.0131  0.1389 -0.0022
27503W        W44350   5.063   4.861   4.098  0.1215  0.2908  0.0607
27504W        W44351   5.325  10.998   1.702  0.1963  0.2188 -0.1389
27505W        W44352  18.397   8.906   1.468  0.1464  0.0512 -0.2233
27506W        W44353   9.502   1.750   0.634 -0.2624  0.0204 -0.3001
27507W        W44354  11.218   3.411   4.204 -0.0062  0.4250 -0.0802
27508W        W44355  18.954  11.392   0.506  0.3378 -0.3224  0.0966
27509W        W44356  18.808  18.813  13.515  0.2761 -0.2089  0.2018
27510W        W44357   6.849   0.402   3.026 -0.1638  0.1988  0.0123
27511W        W44358  16.660   5.435   0.064 -0.5711 -0.0282 -0.1502
27512W        W44359  16.913   6.297   0.553 -0.0627 -0.2197 -0.1162
27513W        W44360   0.263  11.743   1.856 -0.1172  0.0799 -0.2404
27514W        W44361   7.818  17.804  13.634 -0.0284 -0.0058  0.2968
27515W        W44362  13.839   9.803  11.354  0.0521  0.0809  0.2017
27516W        W44363   9.700  17.649  11.194  0.0668  0.3720  0.0316
27517W        W44364  15.098   2.360   2.735 -0.0839  0.1531 -0.1871
27518W        W44365  19.344  11.472   2.325  0.0563 -0.0615  0.2728
27519W        W44366   8.297   4.199  13.884  0.2783  0.0621  0.0306
27520W        W44367   7.575   8.482   2.034  0.0301 -0.0079 -0.1103
27521W        W44368   2.394  10.629   3.816  0.0124  0.0420 -0.1076
27522W        W44369   3.352   3.035   4.407 -0.0475  0.0882  0.0566
27523W        W44370  16.658  17.125   1.886  0.2335 -0.1126  0.2517
27524W        W44371   4.727   1.462   3.698 -0.0528 -0.1735  0.1401
27525W        W44372   4.481  13.496   0.375  0.0638  0.1673  0.2199
27526W        W44373   2.575  18.325   5.236 -0.1269  0.3311 -0.0331
27527W        W44374   0.941  13.230   1.850  0.2726 -0.1675  0.1984
27528W        W44375   4.388  15.054   0.630  0.1696  0.1862  0.0258
27529W        W44376  17.764   6.040   0.910 -0.0783 -0.2742  0.0589
27530W        W44377  15.574   5.120   4.364  0.0662 -0.1347 -0.1415
27531W        W44378   2.798  11.501   2.743 -0.1012 -0.0013  0.0459
27532W        W44379   8.667  16.375   1.984 -0.0499  0.0402  0.0432
27533W        W44380   2.552   3.132   2.293  0.0603  0.1039  0.0129
27534W        W44381   0.899   7.920   1.151 -0.0578  0.0328  0.0010
27535W        W44382  14.097   2.013  12.481  0.0257  0.4653  0.1923
27536W        W44383   4.536   0.116   3.566 -0.3324 -0.1189  0.3842
27537W        W44384  13.607   2.614  11.978 -0.0363  0.1103  0.2370
27538W        W44385  19.154   1.241  13.534  0.1698  0.1629 -0.1583
27539W        W44386   4.510   5.339  10.528 -0.1829  0.1271  0.1133
27540W        W44387   4.537   5.782   9.243 -0.0861  0.2894 -0.1722
27541W        W44388   6.360  11.283  12.942  0.1753 -0.0621 -0.2592
27542W        W44389  10.859   0.972   4.146 -0.3776 -0.0269  0.0400
27543W        W44390  13.414   6.263  11.584 -0.1657 -0.0939 -0.2052
27544W        W44391  10.460  17.189  13.874 -0.1063  0.0827  0.3876
27545W        W44392   5.356  17.613  13.016  0.1802  0.2941 -0.1553
27546W        W44393  19.858   0.989  13.831 -0.0543 -0.1717 -0.1238
27547W        W44394  14.289   5.977   1.941  0.0369  0.2743 -0.0840
27548W        W44395  10.334  14.616   0.078 -0.1487  0.1476  0.2111
27549W        W44396  13.523   9.162  10.371 -0.2413 -0.1917  0.0729
27550W        W44397  10.202   1.980  11.603  0.2856 -0.2078 -0.1343
27551W        W44398  15.006  12.575   2.991 -0.0864  0.0582  0.2625
27552W        W44399  19.348  18.607   2.328 -0.2458 -0.0961 -0.1405
27553W        W44400   5.290   3.655   3.685  0.1006  0.1177 -0.0462
27554W        W44401  16.839   9.122  10.245 -0.1232  0.0682 -0.0525
27555W        W44402  13.179   9.038  12.641 -0.0521 -0.1806 -0.1254
27556W        W44403  15.354   1.298   4.373 -0.1351  0.0711  0.1606
27557W        W44404  10.341   7.574   1.954  0.1503  0.0948  0.0816
27558W        W44405   5.509   4.483   9.946  0.0543 -0.2281  0.1420
27559W        W44406  18.718  15.551  11.798 -0.3381  0.0168  0.1472
27560W        W44407  16.320  14.030   1.695  0.1580 -0.0710  0.1798
27561W        W44408  17.493   1.431   2.042  0.0638 -0.1590 -0.1080
27562W        W44409  14.146  12.627   1.469 -0.0824 -0.0356  0.1639
27563W        W44410   5.550   9.134   2.422 -0.1825  0.1923  0.0424
27564W        W44411  14.423   9.406   2.495  0.0060 -0.0555  0.0479
27565W        W44412  18.078  14.038  10.354 -0.0168 -0.0954 -0.1523
27566W        W44413  14.680  17.580   0.272  0.2023  0.2230 -0.0118
27567W        W44414   2.237   1.380  12.395  0.2783 -0.1023  0.1078
27568W        W44415  14.623  18.991   0.187 -0.1860  0.0055  0.1338
27569W        W44416   2.997  19.240  10.744  0.2271 -0.1061  0.1798
27570W        W44417   2.400   1.969  10.676 -0.3903  0.2684 -0.0562
27571W        W44418   7.828  15.741   3.787  0.0429  0.0530 -0.1512
27572W        W44419   5.880   8.114   3.340  0.0581 -0.3107  0.0729
27573W        W44420   9.904  15.309  13.588 -0.0263  0.0183  0.0158
27574W        W44421  11.256   8.842   2.032 -0.0316 -0.0202 -0.0270
27575W        W44422  10.285  17.041   0.463  0.0041  0.2429 -0.1460
27576W        W44423   3.938   1.176   0.377  0.0451  0.1391 -0.2137
27577W        W44424   8.540   4.017   2.581  0.0489 -0.0557  0.1728
27578W        W44425   8.845   4.304   3.775  0.0168 -0.1501 -0.0233
27579W        W44426   0.607   0.163  12.604  0.3130 -0.0223  0.0713
27580W        W44427   1.037   3.107  10.236 -0.2626 -0.3435 -0.1556
27581W        W44428   8.214  13.519  10.913  0.0121  0.0103 -0.1209
27582W        W44429   1.442   1.453   2.666  0.2221  0.1184  0.0398
27583W        W44430   8.190  11.042   3.965 -0.1680  0.2464 -0.0426
27584W        W44431   7.856  13.195  13.675  0.2422 -0.1922  0.1186
27585W        W44432   3.357   1.814  14.121 -0.0427 -0.1513  0.0255
27586W        W44433   2.371  15.817   2.702 -0.1056  0.0010 -0.1737
27587W        W44434   8.602  11.986   2.168 -0.0982  0.3424 -0.2921
27588W        W44435  10.119  18.623  12.148 -0.3560  0.2898 -0.2052
27589W        W44436   8.163  11.818  13.407 -0.0447  0.2486 -0.2811
27590W        W44437  18.443  16.486   3.984  0.3218  0.2944  0.0249
27591W        W44438  10.669  10.513   0.703  0.0386  0.1867  0.0061
27592W        W44439   4.227   1.380   3.645  0.0318 -0.3287 -0.3503
27593W        W44440   3.688   7.385   4.893 -0.1558 -0.2750 -0.0934
27594W        W44441  10.237  13.854  10.563  0.1808 -0.1464 -0.0407
27595W        W44442   9.571   4.934  12.068  0.0943 -0.0383 -0.1484
27596W        W44443  10.993   2.905   1.581 -0.2572  0.2622  0.0911
27597W        W44444  12.849   6.067  14.209 -0.1496  0.2409  0.0738
27598W        W44445   2.427  14.694  12.036  0.5335 -0.1029 -0.0591
27599W        W44446   5.220  14.054  11.281  0.2953 -0.0576 -0.0158
27600W        W44447  13.478  13.952  11.041  0.0092  0.1730  0.0217
27601W        W44448  15.635   7.358   1.217 -0.3725  0.0465 -0.0969
27602W        W44449  12.768   7.839  13.274  0.2342  0.4078 -0.0150
27603W        W44450  17.308  18.042   9.830 -0.1984  0.1330  0.1445
27604W        W44451  19.799  11.509   2.561 -0.0499 -0.1464 -0.3589
27605W        W44452   9.730   9.135  13.676  0.0495 -0.0109 -0.0267
27606W        W44453   3.557  10.107  11.563 -0.1030 -0.2701 -0.2067
27607W        W44454  19.120   8.650  13.613 -0.0541  0.0702  0.1754
27608W        W44455   2.056   0.523   4.497 -0.1324 -0.2305 -0.1486
27609W        W44456  12.547   6.313  13.521  0.1820 -0.1603 -0.2037
27610W        W44457  10.684  12.704  10.251  0.1975  0.1257  0.3507
27611W        W44458   7.114   4.217   9.593 -0.1062  0.0689 -0.0024
27612W        W44459   0.233  13.404  12.446 -0.0038  0.1682 -0.0320
27613W        W44460  14.792  16.975   3.658  0.0439 -0.0187  0.0412
27614W        W44461  18.309  19.387   4.878 -0.0288  0.2487  0.0531
27615W        W44462   6.347   3.609   4.990  0.0530  0.1003  0.4474
27616W        W44463  12.169   5.667   1.589 -0.0496  0.1130  0.0114
27617W        W44464   8.250  19.259  11.316 -0.1762 -0.1494 -0.1228
27618W        W44465  18.883   1.985  10.943  0.0431  0.0865 -0.4292
27619W        W44466  15.606  13.079  13.723  0.2235  0.0657 -0.0364
27620W        W44467   9.430  18.721   0.537 -0.2261 -0.1816 -0.2339
27621W        W44468  16.729  11.067   0.782 -0.1729 -0.1125 -0.3091
27622W        W44469   8.477  19.473   3.075 -0.0911 -0.2123  0.1810
27623W        W44470  17.163   7.404   4.488  0.0708  0.1988 -0.1921
27624W        W44471   7.717  16.432   0.229  0.2677 -0.0461 -0.2285
27625W        W44472   4.409   0.678   1.986  0.0533  0.4735 -0.2273
27626W        W44473  12.648   3.699  11.792  0.2780 -0.0872 -0.2238
27627W        W44474  18.346  12.859  12.199  0.3744 -0.2222 -0.2168
27628W        W44475  15.878   7.879  13.849 -0.0456  0.0486 -0.1084
27629W        W44476   5.879  13.380  14.332  0.0047  0.2851 -0.1050
27630W        W44477  16.794  14.708   3.714 -0.0020 -0.0338  0.1014
27631W        W44478   8.082   5.609  10.398  0.5053  0.0048  0.0860
27632W        W44479   3.492  13.070   3.927 -0.0260 -0.3135  0.0699
27633W        W44480  13.765  10.457   2.783  0.1398 -0.2714 -0.2493
27634W        W44481  11.986   1.925   4.349  0.2070  0.0259  0.1746
27635W        W44482   1.958   2.710   1.837 -0.1101  0.2739 -0.2630
27636W        W44483  15.001  17.872   4.589 -0.1317  0.2000 -0.0414
27637W        W44484  16.255   3.330   0.946 -0.0721 -0.3014  0.0432
27638W        W44485   0.574  11.444   4.840  0.1204 -0.1685  0.2446
27639W        W44486   8.397  12.141  13.823  0.1428  0.0159  0.0277
27640W        W44487  11.766  13.470   3.465 -0.0354  0.4498 -0.0230
27641W        W44488   9.630   0.644   9.583  0.2044  0.0692 -0.2480
27642W        W44489  14.425   7.488   0.860 -0.0756 -0.0417 -0.0501
27643W        W44490   2.654  17.617  11.198 -0.3217  0.1368 -0.3607
27644W        W44491  16.956  13.384   3.444  0.1261 -0.2588  0.0290
27645W        W44492   7.766  13.810   0.131  0.3091 -0.0249 -0.1621
27646W        W44493   4.392   5.308   0.028  0.2262 -0.0192  0.1845
27647W        W44494   3.876  16.187  13.591  0.3880 -0.3958 -0.1099
27648W        W44495   4.401   8.205  13.870  0.0566 -0.0673 -0.0866
27649W        W44496   5.157  17.345  10.706 -0.1988 -0.1174  0.0504
27650W        W44497   6.347   5.034   1.601 -0.2108  0.0815 -0.1578
27651W        W44498  16.175   3.157  10.837 -0.2559 -0.0857 -0.0821
27652W        W44499   5.451   6.258   9.685  0.2180  0.2541 -0.1602
27653W        W44500  17.276   7.555   2.654 -0.2457 -0.0320  0.2555
27654W        W44501   3.414   1.866   4.152  0.2032  0.1667  0.1616
27655W        W44502  14.216  13.759  12.043 -0.2960 -0.2727 -0.1006
27656W        W44503   3.242   6.026   3.432 -0.1200  0.0042  0.4119
27657W        W44504  17.335  19.091   1.570 -0.0261  0.0602  0.0167
27658W        W44505  13.142   3.234   1.633 -0.1130  0.0788 -0.0642
27659W        W44506  19.740  18.937   2.119  0.2230  0.0422  0.1931
27660W        W44507   1.987  16.665   2.126  0.0945 -0.0166 -0.0146
27661W        W44508  12.003  17.355  14.091 -0.0825 -0.0664  0.0266
27662W        W44509  18.136  15.753   0.637 -0.1138  0.0198  0.0958
27663W        W44510  16.122  10.377   2.978  0.1746  0.4551  0.0257
27664W        W44511   0.771   8.633  11.130  0.0217  0.3398  0.0825
27665W        W44512  12.384  13.063   3.988  0.2137 -0.0006 -0.0839
27666W        W44513   7.259  18.907  12.288  0.2240  0.4347 -0.1118
27667W        W44514   9.212  15.708  11.238  0.0726  0.0267  0.3266
27668W        W44515  11.531  11.515   2.684  0.0540 -0.1770 -0.0246
27669W        W44516  10.416   8.865  11.974 -0.1566 -0.0054  0.1265
27670W        W44517   5.643  17.577   0.398  0.0109 -0.1212 -0.0332
27671W        W44518   3.442   0.771  11.491 -0.2551  0.0475 -0.1296
27672W        W44519   7.360  14.630   0.037  0.0606  0.4317 -0.2555
27673W        W44520  18.762  17.509  11.582 -0.2766  0.0201 -0.5003
27674W        W44521  10.190  17.045  11.465  0.1963 -0.0777  0.0825
27675W        W44522   6.134  19.458   3.818 -0.3210 -0.0476  0.0048
27676W        W44523   9.114  17.647  14.273  0.3533 -0.2840 -0.1138
27677W        W44524  13.684  16.446   1.114  0.1212  0.2818  0.1758
27678W        W44525  18.465  14.226  13.429 -0.1049  0.0422 -0.1548
27679W        W44526  15.815  17.413   2.626  0.3230  0.2131  0.0334
27680W        W44527  12.845  13.437  10.320 -0.0539  0.4313 -0.1221
27681W        W44528  19.143   4.717   9.721 -0.1404 -0.2531 -0.1166
27682W        W44529   2.426   0.109  12.196  0.1121 -0.2798 -0.3091
27683W        W44530   2.976   3.036  13.655 -0.3550  0.2917  0.0993
27684W        W44531   8.402   3.357  12.125  0.0719 -0.2698  0.0687
27685W        W44532  18.090  11.479   5.032 -0.3299  0.3751  0.0583
27686W        W44533   2.232  15.963   1.975 -0.1108 -0.1412 -0.0439
27687W        W44534  18.581  17.436   1.046  0.1371 -0.0069 -0.1145
27688W        W44535   8.039  14.000   3.496  0.1774  0.2599 -0.2426
27689W        W44536   5.130  11.781   3.722 -0.2063  0.3391  0.0021
27690W        W44537  11.958  19.614   3.504  0.2363 -0.0574 -0.1139
27691W        W44538   1.056   0.647   2.202  0.1946 -0.0887 -0.1042
27692W        W44539   8.031   2.307   1.834 -0.2164  0.0592 -0.2443
27693W        W44540  18.411  15.640  10.300  0.0145  0.1550  0.0215
27694W        W44541  11.002  11.943   0.362 -0.1066  0.3130  0.2336
27695W        W44542   3.561   4.204   4.398 -0.1891 -0.1223  0.2057
27696W        W44543   5.714  19.570  11.388 -0.0922 -0.1229  0.0559
27697W        W44544   7.971   2.991   1.252 -0.2126  0.2381  0.2001
27698W        W44545  18.018   7.711  12.040  0.2679 -0.0703 -0.1397
27699W        W44546   1.724  18.534  14.103  0.0657 -0.4258  0.1683
27700W        W44547  11.709  16.325   3.405  0.0598  0.1307  0.0148
27701W        W44548  19.336  11.580   0.191 -0.2233  0.3635  0.1599
27702W        W44549   0.733  14.511   4.495 -0.1147  0.2717 -0.4078
27703W        W44550   4.360  16.207   3.201  0.0549 -0.1877 -0.0269
27704W        W44551  19.444  16.488  13.407 -0.0254  0.2815 -0.2078
27705W        W44552   6.123  18.648   5.104  0.0022  0.3421 -0.5374
27706W        W44553   0.957   9.053   4.467 -0.5431  0.1666 -0.0831
27707W        W44554  14.772   2.086   2.407  0.1429  0.3701  0.1731
27708W        W44555   3.352  16.954  10.627  0.2384 -0.0047 -0.0415
27709W        W44556  13.376  16.492  13.908 -0.2521  0.3512  0.2114
27710W        W44557   9.202  11.647  11.937  0.2285 -0.0878  0.1816
27711W        W44558   5.371  11.903   5.471 -0.1985 -0.3466  0.1839
27712W        W44559  12.618  18.205  10.884 -0.1004  0.1933 -0.1549
27713W        W44560  12.722  19.863   0.783  0.0758 -0.0769  0.3142
27714W        W44561   2.820  13.592  11.178 -0.0642 -0.0767 -0.2348
27715W        W44562  19.727  16.993  10.137 -0.2057  0.0485 -0.1015
27716W        W44563  11.651   3.585  12.349  0.1999  0.4702  0.1671
27717W        W44564  12.975  14.032  11.317  0.0020  0.3468 -0.3146
27718W        W44565  14.638   6.456  11.270 -0.2173 -0.1341 -0.0121
27719W        W44566  17.306  18.875  11.023  0.1382 -0.0932  0.0398
27720W        W44567   1.899  16.254  12.813  0.2481  0.2208  0.2204
27721W        W44568   4.446   4.991   4.363 -0.2332  0.0216 -0.1451
27722W        W44569   7.461   8.729   9.444 -0.4526  0.2142 -0.1668
27723W        W44570  17.382  16.035   1.482 -0.1211  0.1899 -0.0223
27724W        W44571  15.960  19.686  13.609  0.1483 -0.1195 -0.1524
27725W        W44572   3.562   2.783  10.418 -0.0692 -0.0327  0.1071
27726W        W44573  18.928   0.269  12.121  0.1066 -0.0376 -0.0451
27727W        W44574  15.794  15.074  13.403  0.0980 -0.4035 -0.2445
27728W        W44575   7.302   2.052  10.341 -0.2291  0.2260 -0.2192
27729W        W44576  11.294   2.021   1.566  0.1925  0.0224 -0.0419
27730W        W44577  17.898   2.821   2.617 -0.2049  0.4734 -0.1405
27731W        W44578  10.241  11.903  13.057  0.1153 -0.0698 -0.2440
27732W        W44579   3.500  18.858  13.702  0.3794 -0.1677 -0.0660
27733W        W44580  15.544  15.317  10.255  0.0915  0.0460 -0.1395
27734W        W44581   2.765   4.919   0.328 -0.2900 -0.2172  0.2466
27735W        W44582   2.050   2.297  10.819  0.4762  0.1378  0.0933
27736W        W44583  17.508  16.979   2.662 -0.1915 -0.2258 -0.0189
27737W        W44584   8.212  15.545   1.533 -0.0893 -0.0103  0.2129
27738W        W44585  14.365  14.646   2.419  0.0009 -0.1532  0.0722
27739W        W44586  16.860   9.905   2.555 -0.1931  0.2755  0.2514
27740W        W44587  14.096  12.098   3.542 -0.0566  0.3198  0.0616
27741W        W44588  16.664   8.599  13.865  0.0188 -0.1591  0.0271
27742W        W44589  16.781   5.766   4.305 -0.1085  0.4927 -0.0720
27743W        W44590  16.293  19.012  13.724 -0.0814 -0.0022  0.0149
27744W        W44591   5.809  12.909   2.909 -0.4778  0.0226  0.2813
27745W        W44592   1.746  14.618   4.729 -0.1943  0.1866 -0.0108
27746W        W44593   2.645  13.708  12.185 -0.4494 -0.0148  0.0728
27747W        W44594  11.281   1.139   0.956 -0.0596 -0.0297 -0.1015
27748W        W44595   5.389   1.439  12.672 -0.0055 -0.0083 -0.3812
27749W        W44596   3.220   2.351  14.244 -0.0872 -0.1456  0.0084
27750W        W44597   6.081   0.029   4.560 -0.0750  0.3037  0.0077
27751W        W44598   8.356  12.555   0.183  0.2042  0.0661 -0.2583
27752W        W44599   7.222   0.591  11.056  0.0905  0.2768 -0.2950
27753W        W44600  14.527   0.276   3.046 -0.1173 -0.2468  0.0126
27754W        W44601  19.373   3.682   4.171  0.1486  0.0513 -0.0247
27755W        W44602  14.566   7.317   4.674 -0.0970 -0.2556 -0.1574
27756W        W44603  14.680  11.863   4.171  0.2465 -0.1618  0.0398
27757W        W44604  12.197  18.621  10.012 -0.0915  0.0441  0.1819
27758W        W44605  13.075   5.775  13.826 -0.0924 -0.1555 -0.1906
27759W        W44606  13.282  18.260  10.908  0.2756  0.2473  0.1611
27760W        W44607  10.817  18.712   2.727  0.0310 -0.3274 -0.0263
27761W        W44608   1.296   6.502   3.024  0.1272  0.1653  0.1155
27762W        W44609  12.763   9.553   1.169  0.1548  0.1942 -0.0568
27763W        W44610  16.006  17.231  13.408  0.0858 -0.2744  0.3003
27764W        W44611  15.466  13.843  12.517  0.0169 -0.0592 -0.2687
27765W        W44612   2.358  12.464  13.534  0.1356  0.1059  0.3960
27766W        W44613   3.417   8.088  10.574 -0.0837 -0.1632  0.0966
27767W        W44614  13.591   0.035  11.106  0.0577  0.0989  0.1681
27768W        W44615  12.670   5.516   4.818 -0.1987 -0.1490 -0.1129
27769W        W44616   6.314  14.917   1.058 -0.1521 -0.2587  0.1291
27770W        W44617  10.063  12.072  11.430 -0.2106 -0.0521  0.2375
27771W        W44618  19.649  10.602  11.655  0.1011 -0.0660 -0.1454
27772W        W44619  15.744   4.735   2.296  0.2091  0.1208 -0.3304
27773W        W44620  19.025  12.856  13.266 -0.0390 -0.1686  0.0503
27774W        W44621   7.375   3.780   1.354 -0.0158  0.1167 -0.0054
27775W        W44622   4.097  19.329  14.342 -0.2675  0.1586  0.2197
27776W        W44623  10.982  12.638  11.512  0.0181  0.0383 -0.0459
27777W        W44624   9.061  12.762  12.446 -0.0971 -0.2187 -0.1240
27778W        W44625   4.041  18.784  11.609  0.1890 -0.0230 -0.3621
27779W        W44626  19.388   6.259  11.373  0.1401  0.1689 -0.1269
27780W        W44627  14.822  17.462  13.198 -0.3735  0.0186  0.1838
27781W        W44628  16.566  16.485  13.797  0.1691  0.0807 -0.2516
27782W        W44629  12.414  12.434   0.080  0.2164  0.1622  0.0556
27783W        W44630   3.052   9.736   1.710 -0.2046 -0.3688  0.1555
27784W        W44631   5.304   2.352   1.616 -0.0897  0.0800 -0.0652
27785W        W44632  19.566  17.545  11.004 -0.1873  0.0667  0.0887
27786W        W44633   3.335   8.269   4.130  0.5249  0.2495 -0.0692
27787W        W44634  17.588   8.562   1.191 -0.0064 -0.1475  0.3378
27788W        W44635  19.534  15.238   9.428  0.1751 -0.1306 -0.4618
27789W        W44636   4.890   6.802   2.002  0.2834 -0.0653 -0.0296
27790W        W44637  13.829   7.253   2.051  0.0612  0.0364  0.3128
27791W        W44638   1.037  11.146   3.781  0.1531 -0.3702 -0.2174
27792W        W44639   2.517  16.278   2.400  0.0144  0.1832 -0.1859
27793W        W44640   2.436   8.404  11.691 -0.1480 -0.0715 -0.0175
27794W        W44641  19.269   9.151  14.329 -0.0312 -0.1263  0.0158
27795W        W44642  11.359  15.891  12.018 -0.0681 -0.0618 -0.0902
27796W        W44643   7.312   5.839   3.997  0.0721  0.0771  0.0325
27797W        W44644   7.237   0.973  13.433  0.0700  0.1903 -0.0517
27798W        W44645  17.755  18.991   3.562  0.1050  0.2739 -0.2015
27799W        W44646   8.429  13.873   2.224 -0.0791  0.1859 -0.1899
27800W        W44647  14.367  19.175  12.967  0.0127 -0.0962 -0.0212
27801W        W44648  18.487  17.978  13.313 -0.1784 -0.0546  0.0434
27802W        W44649  11.337  11.836   3.709  0.0570  0.5144 -0.2015
27803W        W44650  17.374   3.303  13.685 -0.1618  0.3548 -0.0333
27804W        W44651  11.570  17.096   0.203  0.0614  0.3132  0.1849
27805W        W44652   3.500  14.243   3.167  0.1961  0.1007  0.4081
27806W        W44653   9.676   2.432  13.481 -0.3311  0.1869  0.3469
27807W        W44654   2.331  11.431   5.064  0.0736  0.3078  0.0564
27808W        W44655  18.735  12.093  10.840  0.1806 -0.1327 -0.2016
27809W        W44656  13.789  11.202   3.579 -0.3308 -0.1042  0.1774
27810W        W44657   9.750  16.008   4.934 -0.0758 -0.1260  0.0211
27811W        W44658   8.149  14.532  12.734 -0.0016 -0.2702  0.2508
27812W        W44659   0.636   9.695   2.172  0.2302  0.0402  0.2559
27813W        W44660  12.353   5.810   5.053 -0.0864 -0.0161 -0.2654
27814W        W44661   9.543  14.119   2.437 -0.1663  0.2436 -0.0441
27815W        W44662  12.152  16.392   3.845 -0.2213  0.1776 -0.0186
27816W        W44663  19.815  17.995  10.092  0.0821 -0.3867 -0.0200
27817W        W44664   3.265   8.124   3.620 -0.0065 -0.0347  0.1228
27818W        W44665   4.806   8.629   4.300 -0.3273  0.2360  0.2253
27819W        W44666  15.826  12.639  10.824 -0.2074  0.2655  0.0083
27820W        W44667  16.113  12.125  10.945  0.1117 -0.0100  0.1119
27821W        W44668   4.343  12.154  13.256  0.2087 -0.0315 -0.0118
27822W        W44669   2.762   8.234   1.511  0.0297  0.4023  0.2564
27823W        W44670  13.052  16.618  14.303  0.0292  0.1183 -0.2735
27824W        W44671   5.058  11.226  10.659  0.1691 -0.1345  0.0453
27825W        W44672  18.410   1.042   1.695  0.0627  0.3180 -0.1055
27826W        W44673  11.990  17.993  14.221 -0.2749 -0.0794 -0.1306
27827W        W44674   4.769   8.646   1.502 -0.1739  0.0347  0.0051
27828W        W44675  18.595  14.579  13.723  0.1173  0.1995  0.2429
27829W        W44676   5.250  18.732   1.332 -0.0804 -0.2078  0.0441
27830W        W44677   9.803   5.547  12.245 -0.0189  0.0239 -0.1276
27831W        W44678  15.325   6.869  10.704  0.1285 -0.3287 -0.1032
27832W        W44679  10.950  16.824   2.143  0.1508  0.2594  0.1071
27833W        W44680  15.275   7.051   2.464  0.2137  0.4791 -0.0026
27834W        W44681   5.896  18.375   2.471  0.1716  0.2696  0.1942
27835W        W44682   4.886  18.531   2.188  0.4144  0.0626 -0.0088
27836W        W44683  19.436  16.625  11.472  0.0955  0.1255  0.1050
27837W        W44684  18.336   9.048   2.545  0.0919  0.0015  0.1566
27838W        W44685  19.422   2.672  14.355 -0.3389  0.2056  0.0698
27839W        W44686   0.923   6.376   1.631  0.2920 -0.1113  0.0917
27840W        W44687   7.580  10.394   5.123 -0.1359  0.1246 -0.1192
27841W        W44688   2.677   8.347  12.981 -0.0381 -0.4776 -0.0382
27842W        W44689  13.470   0.218   0.455  0.1501  0.0334 -0.2110
27843W        W44690   7.166   4.221   3.736 -0.1812 -0.4071  0.4145
27844W        W44691   7.884   6.264   1.860 -0.0336 -0.1395 -0.1340
27845W        W44692   6.535   2.364   0.911  0.0998  0.0411  0.1207
27846W        W44693   7.888  12.909  13.278 -0.3222  0.0468 -0.0767
27847W        W44694   2.017   7.816   2.046  0.0880  0.0505 -0.0081
27848W        W44695   4.665   0.108   0.341  0.3145  0.1589  0.1050
27849W        W44696  17.205   8.059   1.769  0.0191  0.3130 -0.3696
27850W        W44697   2.945  11.753  11.416 -0.0639  0.2920 -0.2641
27851W        W44698  15.746   6.663   3.190  0.1026  0.0697  0.1491
27852W        W44699  11.412   7.856   1.572 -0.0074 -0.1087  0.1623
27853W        W44700  10.378   3.052  12.281 -0.0461  0.0899 -0.0643
27854W        W44701  16.009  11.808   3.590  0.0141 -0.1205  0.0607
27855W        W44702  11.059   2.918  11.677  0.1252  0.1033  0.1613
27856W        W44703  15.434   3.286  10.640  0.2267  0.2202  0.1155
27857W        W44704   1.086   4.592  13.005 -0.2420  0.0054  0.0336
27858W        W44705   9.131  18.303   0.427 -0.1718  0.2641  0.0817
27859W        W44706  18.959  14.819   5.211 -0.1737 -0.1468  0.0203
27860W        W44707   2.958  18.284  11.941  0.1619  0.1696  0.1607
27861W        W44708  16.168   4.211   1.170 -0.4796 -0.0943 -0.0512
27862W        W44709  14.705   0.862  14.345 -0.1992  0.1035  0.1488
27863W        W44710   3.895   8.968   1.556 -0.2892  0.2093 -0.3978
27864W        W44711  19.434   6.877   2.366 -0.2373  0.2876 -0.1608
27865W        W44712   9.204  11.599   3.289 -0.2826  0.0249 -0.0053
27866W        W44713   7.226   6.312   0.636 -0.3066 -0.0202 -0.2380
27867W        W44714   1.258   7.251  10.997 -0.1057 -0.0771  0.1285
27868W        W44715  18.388   0.907   4.106  0.2633 -0.2326  0.0428
27869W        W44716  16.751  15.021   2.241  0.0148 -0.2189  0.0166
27870W        W44717  12.752   0.030  13.168 -0.2226 -0.0611 -0.0349
27871W        W44718  17.115  13.750  13.370  0.3862 -0.0612 -0.0601
27872W        W44719  17.461   0.145   3.904  0.1723 -0.0791 -0.4972
27873W        W44720  14.262   1.452   4.036  0.0158 -0.2964  0.0543
27874W        W44721   1.737  10.141   3.974 -0.2941 -0.1173 -0.0815
27875W        W44722   6.585   7.431   1.523  0.2683  0.0679  0.0957
27876W        W44723  13.002  16.786   1.501  0.4074  0.3768 -0.0527
27877W        W44724   9.592  19.621   2.340 -0.2630  0.3669 -0.2091
27878W        W44725  18.651  19.696  13.516 -0.1245  0.1530  0.0148
27879W        W44726   1.781  19.457   3.133  0.3810 -0.0388 -0.2915
27880W        W44727  16.072  15.199   0.987  0.3175  0.2397 -0.1939
27881W        W44728  15.031   9.181   0.780  0.2462 -0.1886  0.0278
27882W        W44729   3.216   4.745   0.163 -0.0044  0.0216  0.0348
27883W        W44730   0.542   3.242   4.306 -0.1273  0.0760  0.1393
27884W        W44731   9.387  16.439  13.081  0.0532 -0.3531  0.2341
27885W        W44732   8.730  17.871  11.567  0.0647  0.1017  0.2294
27886W        W44733  11.587  16.629  11.236 -0.1163 -0.0944  0.3598
27887W        W44734   8.000   4.025   3.515  0.1732 -0.2426 -0.1603
27888W        W44735   1.493   0.010  14.052  0.1990 -0.0016 -0.0581
27889W        W44736   2.285   7.542  12.999 -0.1014  0.0572 -0.2318
27890W        W44737  15.835   6.734   0.516  0.3545 -0.2013 -0.1424
27891W        W44738   7.288  18.005   2.198 -0.0221  0.1264 -0.2513
27892W        W44739  17.235  12.672  13.703 -0.1598  0.0417  0.1216
27893W        W44740   7.466   4.079   2.573 -0.0781  0.3266  0.0119
27894W        W44741   1.980   1.855   2.612  0.1824 -0.0753 -0.1024
27895W        W44742   0.575   0.178  13.336  0.0160  0.4214 -0.2816
27896W        W44743   2.396  13.844  13.228 -0.1397 -0.0137  0.3204
27897W        W44744  19.055   9.650  11.095  0.0095  0.0051  0.1034
27898W        W44745  13.736  10.882  12.306 -0.2116 -0.2879  0.0984
27899W        W44746   8.297   3.547  11.656  0.2798 -0.2643  0.3081
27900W        W44747  17.046   6.016   1.006 -0.1929 -0.0357  0.0187
27901W        W44748  18.385   5.783   2.418 -0.1860 -0.4667  0.1700
27902W        W44749  15.147   0.339  13.504  0.1278 -0.1555  0.2339
27903W        W44750  13.412  15.930   9.869 -0.2240  0.0355 -0.0425
27904W        W44751  19.340  13.135  14.190 -0.0385  0.0192 -0.2857
27905W        W44752   4.769  14.355   2.907  0.1361 -0.1204 -0.1967
27906W        W44753  10.526  19.042  12.826  0.1079 -0.2459 -0.2292
27907W        W44754   9.846   1.993  13.576  0.0843  0.3381  0.0385
27908W        W44755  18.257  14.005   1.557 -0.3699  0.0165 -0.2011
27909W        W44756  10.707  16.059  11.217 -0.0771  0.3988 -0.1398
27910W        W44757  16.466  17.117  12.693 -0.1176 -0.1263  0.2356
27911W        W44758   3.626  13.017  12.135 -0.0731 -0.0879  0.2778
27912W        W44759   1.344   4.205   2.639  0.2032  0.2838  0.0705
27913W        W44760  19.748   6.326   0.223  0.0203 -0.1115 -0.1878
27914W        W44761  19.056   6.823   0.853 -0.2125  0.2233 -0.0146
27915W        W44762   3.309  18.790   0.267  0.3433 -0.1539  0.1952
27916W        W44763   0.250  10.640   1.563  0.0712 -0.6520  0.2201
27917W        W44764  17.377  19.366  12.920  0.0179  0.1915  0.0368
27918W        W44765  14.653  10.435   1.427 -0.0845 -0.0682 -0.0911
27919W        W44766  19.314  16.026   3.142  0.1030 -0.3540  0.3567
27920W        W44767   4.614  10.224  10.051 -0.0497  0.1286 -0.0840
27921W        W44768  17.317   9.490   3.196 -0.0382  0.2865  0.2109
27922W        W44769  19.809   5.375   3.993  0.1960  0.3462 -0.1680
27923W        W44770  14.087  11.601   2.376 -0.1886  0.0571 -0.2066
27924W        W44771   1.849  15.773   5.362 -0.2333 -0.0752  0.2012
27925W        W44772   2.403  17.158   0.058 -0.3875  0.0725 -0.1688
27926W        W44773  12.190  10.965   1.136 -0.0021 -0.1900  0.2557
27927W        W44774  18.249  10.174  12.494  0.0270 -0.4264 -0.0261
27928W        W44775  19.829  18.357  13.596 -0.0690 -0.1312  0.0485
27929W        W44776  10.140  14.224   1.394 -0.2221 -0.3727  0.0675
27930W        W44777   1.335  18.316   2.283 -0.1224 -0.3976 -0.0972
27931W        W44778   2.354   3.215  10.313 -0.0789  0.2824  0.1035
27932W        W44779  16.703   8.558  12.118  0.0710 -0.1164 -0.1079
27933W        W44780   8.033   2.376  12.857  0.1019 -0.3111 -0.0711
27934W        W44781  17.539   5.964   1.783 -0.1463 -0.0526  0.4309
27935W        W44782  11.354  14.639  13.731  0.0333 -0.1891  0.0242
27936W        W44783  17.058  11.995  12.716 -0.0797 -0.0079 -0.3234
27937W        W44784   0.436   8.824   2.003 -0.4077 -0.3026  0.0918
27938W        W44785  13.989   5.830  10.057  0.1425 -0.2796  0.0991
27939W        W44786  10.494   4.722  13.860 -0.3212 -0.1413 -0.3302
27940W        W44787  14.497  18.886  11.696 -0.0926  0.3350  0.0314
27941W        W44788   5.511  13.435   3.670 -0.1347  0.0759  0.0770
27942W        W44789  18.745   3.686   1.096 -0.0375 -0.1984  0.3443
27943W        W44790  15.629  10.729  11.384 -0.0062  0.0672 -0.1242
27944W        W44791   9.902  10.587  11.684 -0.0685  0.1765 -0.1222
27945W        W44792  18.331   7.956   5.402  0.0035 -0.4175 -0.0335
27946W        W44793   8.755  15.561   4.330 -0.0334 -0.0794  0.0678
27947W        W44794   4.249   5.235   3.943 -0.0165 -0.2100 -0.1875
27948W        W44795   6.235   2.943   3.162 -0.3723  0.3636 -0.1979
27949W        W44796  12.214   3.605   1.296 -0.1157 -0.0279 -0.1962
27950W        W44797   5.398  15.932  12.761  0.0316  0.2544 -0.5632
27951W        W44798   5.563  10.389   0.093  0.0867 -0.1509  0.1942
27952W        W44799  16.072  11.122  13.140 -0.0663 -0.1763 -0.2295
27953W        W44800   5.678  14.042  10.085 -0.0981 -0.0128  0.0772
27954W        W44801  17.417   6.152  10.612  0.0237  0.0084  0.1799
27955W        W44802   3.406   8.744   0.409 -0.1994  0.0933 -0.1675
27956W        W44803  10.238  12.694   9.978 -0.2776  0.7094  0.0403
27957W        W44804   8.075  16.236   4.651 -0.3480 -0.3877 -0.0980
27958W        W44805   0.252   0.018  13.035 -0.1930 -0.0572  0.1886
27959W        W44806   5.824   8.190  12.649  0.0420  0.0650  0.1252
27960W        W44807  15.093   8.246  13.143 -0.0657  0.2561  0.1305
27961W        W44808  15.283  13.369  12.584 -0.0830 -0.0101 -0.0114
27962W        W44809  16.375  13.858   4.286 -0.3906 -0.3357 -0.0692
27963W        W44810  14.089  14.695  13.414 -0.0584  0.1086 -0.2609
27964W        W44811   9.408  13.962   3.094  0.0315  0.2852  0.2488
27965W        W44812  12.434  16.860   0.885 -0.0327 -0.2852  0.3342
27966W        W44813   2.938   2.372  12.840  0.0663 -0.0221  0.0231
27967W        W44814  11.391  12.725   3.431  0.1002  0.1006 -0.1614
27968W        W44815   0.881  14.683  10.464  0.2330 -0.0407  0.0409
27969W        W44816   7.325   5.463   2.790 -0.2703 -0.0496  0.0239
27970W        W44817  15.460   2.410  13.177  0.0776  0.0909  0.2488
27971W        W44818  17.799   3.236  11.392  0.0252 -0.1990  0.1475
27972W        W44819   1.626  16.234   4.248  0.0805  0.0321  0.1791
27973W        W44820   9.875  14.201  11.753 -0.2517 -0.0163 -0.1234
27974W        W44821   0.285  12.873   3.998  0.1958  0.2767  0.2317
27975W        W44822   5.359  16.319   3.166  0.1520 -0.4431  0.1938
27976W        W44823   8.669  11.551  12.935  0.1553  0.0477 -0.0546
27977W        W44824  16.040  16.152  14.254  0.1130  0.1573  0.0587
27978W        W44825   7.635   7.437  10.971  0.2459  0.3105 -0.0966
27979W        W44826   6.967  14.987   4.205  0.0294 -0.2102  0.1132
27980W        W44827  17.794   9.046   0.074 -0.0467  0.0525  0.0943
27981W        W44828   4.227   5.067  13.722  0.0872 -0.0108 -0.0433
27982W        W44829  18.502  10.222   1.089  0.0243 -0.0634  0.0530
27983W        W44830   7.821  15.217   2.971 -0.2578 -0.0933  0.2106
27984W        W44831   7.978   1.493  14.362  0.1914 -0.0721  0.1857
27985W        W44832  11.543   2.137   0.169  0.3699 -0.2487 -0.1004
27986W        W44833   7.753   4.437  14.132  0.0415  0.1655 -0.1064
27987W        W44834   1.268   7.135   0.191 -0.0438 -0.2335 -0.0965
27988W        W44835  15.075  14.489   0.234 -0.2476  0.0487  0.1519
27989W        W44836  18.607  13.784  13.123  0.1736 -0.0208 -0.2235
27990W        W44837  17.786   1.952  10.408  0.1897 -0.2162  0.1935
27991W        W44838  13.227  17.001   3.188  0.0178 -0.1240 -0.0431
27992W        W44839   9.561  19.517   1.206 -0.2208 -0.1422  0.0320
27993W        W44840   2.278  16.026   3.189 -0.3100  0.1223  0.0374
27994W        W44841   7.220   2.730   4.385  0.0928  0.1022 -0.1332
27995W        W44842  16.817   2.473   3.205  0.0855  0.1556  0.3440
27996W        W44843  12.667  11.599   4.015 -0.0622  0.1480  0.2558
27997W        W44844   3.287   4.980  13.507 -0.0030  0.0592  0.1995
27998W        W44845  10.155  10.307  12.056  0.0917 -0.0180  0.2610
27999W        W44846   7.414  12.007  13.457 -0.0604  0.1102 -0.1857
28000W        W44847   7.243  11.257   0.292 -0.1309  0.4029 -0.0570
28001W        W44848  13.470  16.205   4.256  0.1711  0.0992 -0.0034
28002W        W44849   2.783   8.776   4.834 -0.2966 -0.1328 -0.0483
28003W        W44850   3.358  16.467  10.560 -0.0748 -0.1137 -0.2731
28004W        W44851  16.205   2.685   4.120  0.1762  0.0433 -0.1304
28005W        W44852  11.452   7.552   2.432  0.1531 -0.0272  0.2099
28006W        W44853   0.722   6.437   5.358 -0.1247  0.1784 -0.0571
28007W        W44854  10.054   4.775   2.666 -0.0444  0.4044 -0.2709
28008W        W44855  19.436  17.001  12.057  0.2872  0.1318  0.0107
28009W        W44856  14.740  17.526   3.043  0.2563 -0.3178  0.1379
28010W        W44857  14.770   0.368  12.674 -0.0130  0.2143 -0.1044
28011W        W44858   3.086   4.390   4.003 -0.2409 -0.2871  0.0772
28012W        W44859   0.871   3.700   0.718  0.2258  0.1719  0.0721
28013W        W44860  15.347   7.395  14.332  0.0701 -0.2482 -0.1154
28014W        W44861   0.333   0.684  11.020  0.0120 -0.1861 -0.1658
28015W        W44862   0.192   1.025   0.562  0.1769  0.3784  0.2042
28016W        W44863   0.457   1.722   5.071  0.0147  0.2174 -0.1481
28017W        W44864   4.053   4.711   9.946  0.1145  0.1147 -0.1095
28018W        W44865  14.362  17.214  10.216 -0.3961  0.0321  0.0574
28019W        W44866   1.050  19.292  10.280  0.1135 -0.1394 -0.0497
28020W        W44867   9.226   6.043   4.085  0.2555 -0.0969  0.2834
28021W        W44868  10.525   9.067  11.557  0.1008  0.3258  0.0809
28022W        W44869   0.091   6.197  13.622  0.0590  0.0302  0.2425
28023W        W44870   2.119   7.126   1.333 -0.1215 -0.3593  0.0460
28024W        W44871   4.436  10.958   4.992 -0.1135  0.0647 -0.3346
28025W        W44872  15.891  14.789   0.780 -0.1393  0.2542 -0.1790
28026W        W44873   2.155   1.917  13.688  0.2011 -0.0970 -0.1185
28027W        W44874   6.372  16.125   0.402  0.0495  0.1603  0.2268
28028W        W44875  14.715   8.982  10.442 -0.0827  0.2183 -0.0492
28029W        W44876   0.778   4.325  14.291  0.0259  0.1954  0.0404
28030W        W44877  11.724  19.172   5.301 -0.1124  0.1184 -0.1868
28031W        W44878   1.026  12.814   1.551 -0.0843 -0.0880  0.2945
28032W        W44879   5.417   0.339   3.910  0.2656  0.2208  0.1078
28033W        W44880   3.068  13.293  11.467  0.0957  0.0582  0.2768
28034W        W44881  15.639  12.021  13.241 -0.1602 -0.0294  0.0537
28035W        W44882   4.918  19.210   4.248  0.2346 -0.0854  0.0668
28036W        W44883   0.285  17.245   0.840  0.0298  0.1110  0.1358
28037W        W44884   7.952  10.568   3.277  0.0245 -0.1741 -0.0531
28038W        W44885  15.257  17.073   3.815 -0.0281 -0.0485  0.1172
28039W        W44886   0.042   1.280  12.126 -0.3414 -0.1780  0.0108
28040W        W44887  18.790   9.643   0.971  0.2685  0.0627  0.0641
28041W        W44888   4.130  17.250  14.125 -0.0474  0.0208 -0.0076
28042W        W44889   6.109  17.297  12.843  0.2865 -0.0547  0.0363
28043W        W44890  16.014   1.324   1.033  0.4768 -0.0086 -0.1339
28044W        W44891  19.211  18.808   2.793  0.3567 -0.3528  0.3514
28045W        W44892  12.420  18.520  10.422  0.2498 -0.2248  0.0616
28046W        W44893   3.094  18.023   2.777 -0.2755  0.1160  0.2795
28047W        W44894  10.329   4.067   0.202 -0.1126  0.0873  0.3551
28048W        W44895   8.398  16.765  11.652 -0.2635  0.1237 -0.2283
28049W        W44896  13.902  11.779   0.400 -0.1597  0.0757 -0.1971
28050W        W44897  12.590  17.074   1.272  0.3437 -0.0304 -0.1885
28051W        W44898   1.707  15.992   3.028  0.0667 -0.2451 -0.0354
28052W        W44899  14.979  16.392   1.008 -0.0072 -0.1672  0.0870
28053W        W44900  12.349   9.646   0.271  0.1293 -0.0129 -0.0997
28054W        W44901   6.206   6.397   0.342  0.3618 -0.0027  0.1490
28055W        W44902   0.880   9.711   0.309 -0.1456 -0.0228 -0.2808
28056W        W44903  15.269  14.047  10.494  0.1428 -0.0044 -0.1270
28057W        W44904  17.462  13.182   3.492  0.0526  0.1565  0.0720
28058W        W44905   9.749   5.051  13.885  0.3481 -0.2147  0.0210
28059W        W44906   0.190  13.770   0.623 -0.1318 -0.0863 -0.0355
28060W        W44907   3.571  19.111  13.254  0.0834  0.0056  0.0149
28061W        W44908  16.531  12.988   3.452 -0.0450  0.0573  0.2296
28062W        W44909  10.083   5.916  11.243  0.1060  0.0227  0.0172
28063W        W44910   6.560  19.194  10.645 -0.0279 -0.4928  0.0997
28064W        W44911   2.755   2.165   3.647  0.0407 -0.3143 -0.2034
28065W        W44912   3.920   7.160  12.933  0.0905  0.3456  0.0594
28066W        W44913   7.294   7.976  12.112 -0.2288 -0.0638 -0.0142
28067W        W44914  11.333   6.957  12.835  0.1693  0.3227 -0.1057
28068W        W44915  17.130   1.728   0.760 -0.4081  0.0422  0.1048
28069W        W44916  13.935  15.805   2.045  0.2073 -0.0961 -0.0854
28070W        W44917  12.158   9.129   0.447  0.1547  0.0827 -0.0546
28071W        W44918  18.381  10.908  10.297  0.0647  0.1108  0.1555
28072W        W44919   2.716   1.598  10.466  0.0311 -0.2313 -0.2177
28073W        W44920  11.955  14.299   0.837 -0.1820 -0.2123  0.0866
28074W        W44921   0.171  19.246  11.474  0.2358 -0.1433  0.0416
28075W        W44922  11.429  19.445   0.165  0.1749  0.2066  0.2780
28076W        W44923  16.336  19.606   1.486  0.3786 -0.0490 -0.1109
28077W        W44924  14.314  16.683  13.504 -0.1706  0.0595 -0.0797
28078W        W44925   8.398   1.288   3.995 -0.3609  0.0885  0.0164
28079W        W44926  18.652   5.453  11.145 -0.1984  0.0651 -0.1673
28080W        W44927   7.753   0.220   3.074  0.0346 -0.3765 -0.0878
28081W        W44928   0.310   1.659   4.218 -0.4025 -0.1372  0.2221
28082W        W44929   7.127   6.940   0.431 -0.1965  0.1688 -0.1678
28083W        W44930  17.440   2.815  13.953  0.0727  0.0352 -0.2294
28084W        W44931   1.775   3.525   5.428  0.1170 -0.1075  0.3231
28085W        W44932   5.296  19.629  12.256  0.1196  0.0501 -0.2820
28086W        W44933  11.586  10.399   0.650 -0.2547  0.2332 -0.4579
28087W        W44934   8.211   7.266   1.840 -0.1237 -0.1052 -0.2705
28088W        W44935   5.048  17.548  12.603 -0.1078  0.1234  0.0522
28089W        W44936  14.199  10.834  13.803  0.4172  0.1784 -0.1522
28090W        W44937   6.725  19.861  10.729 -0.1748 -0.2333  0.2375
28091W        W44938  15.300  14.956   2.642  0.2956 -0.2790 -0.1059
28092W        W44939   3.734  12.480   2.768  0.1784  0.1199 -0.1111
28093W        W44940   7.277  15.702   3.666 -0.1866 -0.1292 -0.0734
28094W        W44941   2.258  18.956  12.593  0.0709  0.4628  0.0996
28095W        W44942  19.665  14.543  12.205  0.1245 -0.0349 -0.0691
28096W        W44943   6.256   6.273   1.410  0.0022  0.3462 -0.0420
28097W        W44944   7.077  15.501  10.940 -0.0329 -0.0629  0.1669
28098W        W44945  12.680  13.992   9.517 -0.0519  0.2896  0.6845
28099W        W44946  17.714   1.669   4.278  0.0032 -0.1702 -0.2741
28100W        W44947  18.096  15.696   3.880  0.2105  0.0568  0.1407
28101W        W44948   4.027  12.075  10.627 -0.0827 -0.4630  0.0467
28102W        W44949   1.919  16.520   0.832 -0.2751  0.2748  0.0199
28103W        W44950  18.213  10.223  11.976  0.1480  0.4725  0.0507
28104W        W44951   5.783  10.477   1.134 -0.1373 -0.2659  0.0111
28105W        W44952   6.478   9.523  13.132  0.0711 -0.2224  0.2628
28106W        W44953   5.067   5.973  10.678  0.2081  0.2179  0.0100
28107W        W44954   9.280  12.522   0.878  0.0863 -0.0658  0.1279
28108W        W44955   8.586   1.971  10.956  0.2574  0.0371 -0.4546
28109W        W44956  19.078  12.910   1.099 -0.2189  0.0486  0.2588
28110W        W44957   0.545  12.429  11.640 -0.3810 -0.1103 -0.2949
28111W        W44958   7.640  13.545  10.987  0.2340  0.1831 -0.0387
28112W        W44959  10.790   1.934   3.263 -0.1855  0.2648  0.2076
28113W        W44960   7.311   7.196   3.032 -0.3076 -0.0180 -0.0380
28114W        W44961  13.087  14.318  12.220  0.0593 -0.1683 -0.0681
28115W        W44962   9.673  10.211   4.471  0.2645  0.1098 -0.0132
28116W        W44963   8.172   2.010   1.185 -0.1260  0.0733  0.2238
28117W        W44964  14.001   7.449  11.039  0.0342  0.2282 -0.1112
28118W        W44965  17.746  19.128   2.834 -0.0520  0.2048  0.0106
28119W        W44966  19.139  15.655   0.968  0.0132 -0.1323 -0.2913
28120W        W44967  11.668   8.489  14.054 -0.0157  0.1105 -0.2024
28121W        W44968   5.347   9.381  14.079 -0.0285  0.2817  0.0932
28122W        W44969  19.777   5.695  12.531 -0.1279 -0.1265  0.3023
28123W        W44970  16.088  17.588  12.340 -0.2817 -0.0230 -0.1490
28124W        W44971   1.539   7.392   0.781  0.1277  0.2786  0.2161
28125W        W44972  17.152  15.762  10.564  0.1764 -0.0171  0.2789
28126W        W44973   1.276   1.556   9.513  0.0821 -0.1359 -0.1706
28127W        W44974  16.719  13.294   2.066 -0.0711  0.1098 -0.1252
28128W        W44975   1.215   9.684   2.931 -0.2670 -0.3593  0.1810
28129W        W44976  17.798  10.346   2.972 -0.0420  0.1148 -0.0258
28130W        W44977   8.039  10.275   3.678  0.1030  0.0234 -0.1501
28131W        W44978   9.435  16.062  11.968  0.1475  0.0074  0.2514
28132W        W44979  18.285  17.816  12.245  0.1051  0.2884  0.2988
28133W        W44980   1.823  18.690  13.596 -0.1875 -0.1632  0.2503
28134W        W44981   0.959  13.080  12.910 -0.1380  0.2375  0.0825
28135W        W44982  10.278   1.161  13.558 -0.2559 -0.0057 -0.1174
28136W        W44983   4.455  16.679  13.967  0.3062  0.3735 -0.1465
28137W        W44984   7.862   2.556   9.509 -0.0625 -0.3144  0.2689
28138W        W44985   8.273  15.887  10.901  0.3795 -0.1227  0.1166
28139W        W44986   6.496  13.215   2.577  0.2328 -0.0960 -0.0823
28140W        W44987  16.312  16.685   2.901  0.2876 -0.2796  0.4091
28141W        W44988   3.235   3.899  10.958 -0.2882  0.1138  0.1519
28142W        W44989   6.033   8.698   9.583 -0.1117 -0.0180  0.0812
28143W        W44990  17.676   2.420  10.858 -0.2586  0.2837  0.2933
28144W        W44991  11.971   3.755  12.690  0.3861  0.0952  0.1205
28145W        W44992   6.391   9.563  11.820 -0.0227 -0.1712  0.2175
28146W        W44993  19.715   4.381  13.460  0.0468 -0.3358  0.1150
28147W        W44994   7.507   8.677  13.968 -0.1160  0.0634 -0.1118
28148W        W44995  15.559   9.213   2.677 -0.3996 -0.0873  0.1715
28149W        W44996  18.512   1.715  14.305 -0.3962 -0.1232 -0.0468
28150W        W44997   6.729  10.174   2.907 -0.0215  0.1836 -0.0154
28151W        W44998  10.580  14.613  12.330  0.0605 -0.0170 -0.0003
28152W        W44999   6.980   5.918   0.303 -0.2346  0.0780  0.1304
28153W        W45000  11.152  17.951   1.939  0.0237  0.0341 -0.0343
28154W        W45001   4.815  17.877  13.304 -0.0876  0.0312  0.1242
28155W        W45002   5.375  17.740   4.268 -0.2589 -0.1485  0.0482
28156W        W45003  13.294   8.095   0.839  0.0885 -0.0753  0.1306
28157W        W45004   3.816   7.710   1.728  0.1527  0.3432  0.0044
28158W        W45005   9.919  10.316  13.944  0.1394  0.2001  0.5383
28159W        W45006   0.627   4.271  13.847 -0.1016 -0.3457  0.3162
28160W        W45007  10.907  19.146  13.677 -0.2027 -0.2952 -0.2087
28161W        W45008   0.378   4.501  11.357  0.0383  0.1367  0.0266
28162W        W45009  15.739   6.393  12.074  0.0226  0.2769  0.0089
28163W        W45010  19.177   0.057   3.062  0.1134  0.3169 -0.1815
28164W        W45011   3.107   5.542  13.514 -0.1783  0.0481 -0.2519
28165W        W45012   9.654  14.916  12.504 -0.4274  0.1294 -0.3344
28166W        W45013   8.421  12.976  11.391 -0.2800  0.3945  0.0229
28167W        W45014  10.750   5.237   0.389 -0.0205  0.0075 -0.3073
28168W        W45015   8.678  11.948  13.419 -0.0292 -0.0567 -0.0728
28169W        W45016  12.055   2.155  10.834 -0.2096 -0.0854  0.0819
28170W        W45017  16.546   1.924  10.914 -0.0265 -0.0147 -0.2358
28171W        W45018  18.462   8.435   0.456 -0.2965 -0.2674  0.2125
28172W        W45019  18.957  13.982   3.043  0.1840  0.1241  0.2947
28173W        W45020  16.336  15.019  11.894 -0.2052  0.0121 -0.1144
28174W        W45021   5.369  13.206   0.627 -0.1602  0.2622  0.0434
28175W        W45022  16.724   3.643   0.101  0.0968 -0.1220 -0.0208
28176W        W45023  12.448  12.161   3.487 -0.1995 -0.0002 -0.1930
28177W        W45024  15.244  18.417   0.736 -0.1528  0.0950  0.0637
28178W        W45025  19.185  14.887   4.712 -0.0993  0.1590  0.2109
28179W        W45026  13.299   9.917  11.457 -0.1646 -0.0647  0.5496
28180W        W45027   5.634   0.076  12.062  0.5419 -0.3811 -0.4189
28181W        W45028   1.358   9.293  13.902  0.0142  0.0965  0.0341
28182W        W45029  15.349   5.444  14.057 -0.0139  0.0735  0.1170
28183W        W45030  12.253  11.917   0.670 -0.0412 -0.0622 -0.0064
28184W        W45031   3.543  13.138   5.049  0.1952  0.1593  0.1660
28185W        W45032  15.638  10.206   2.992 -0.3621 -0.0850 -0.1406
28186W        W45033   5.916   7.261  11.126  0.2544 -0.1506 -0.0755
28187W        W45034  19.674   6.742   2.877  0.2185  0.1158  0.2272
28188W        W45035  18.974  18.490  10.318  0.0497  0.0397 -0.3057
28189W        W45036  17.853   6.010  13.379 -0.1828  0.0044 -0.2187
28190W        W45037  14.887  11.380   0.728 -0.0566  0.1350 -0.3673
28191W        W45038  14.775   7.193  11.316 -0.1791 -0.0998 -0.2989
28192W        W45039   3.966  17.065   1.382  0.3189  0.0153  0.3198
28193W        W45040  19.858  19.367   1.819 -0.1500 -0.2303 -0.1950
28194W        W45041  18.394   8.732  10.181 -0.0856 -0.1636 -0.1406
28195W        W45042   3.243   6.760   3.219  0.2336 -0.1737 -0.1485
28196W        W45043  17.879  19.603   2.808  0.2310 -0.0773  0.0664
28197W        W45044  14.328  10.102   9.876 -0.6046  0.3127 -0.0198
28198W        W45045  12.635   7.820  13.778  0.3374 -0.3405  0.0015
28199W        W45046  15.234   0.835   3.220  0.2328 -0.2051  0.0322
28200W        W45047   9.012   3.254  13.085  0.3372  0.0363  0.3289
28201W        W45048   0.518   2.509   1.559 -0.1331  0.0365 -0.3367
28202W        W45049  12.022  18.738   2.277  0.0666  0.1571  0.1196
28203W        W45050  15.989  15.132   5.099  0.1561  0.0174  0.2897
28204W        W45051  19.648  10.149  12.137 -0.1070  0.3563 -0.0061
28205W        W45052  12.522   5.802  13.620  0.2460 -0.3234 -0.3407
28206W        W45053   0.050  16.677   4.484 -0.0424 -0.1694 -0.1217
28207W        W45054  14.985  18.817   0.538 -0.1103  0.0444  0.0401
28208W        W45055  11.095   7.201  13.213  0.0505 -0.2712 -0.2257
28209W        W45056  15.590   3.589   0.849 -0.4514 -0.0915  0.1978
28210W        W45057   1.445  12.171  14.008  0.0368  0.6488 -0.1445
28211W        W45058  12.321   7.633  12.122 -0.0488  0.0668 -0.2221
28212W        W45059  12.241   7.253  10.831 -0.3304 -0.0246  0.0287
28213W        W45060   2.710  15.741   3.195  0.1070  0.1599 -0.2419
28214W        W45061   2.577   1.791  13.436 -0.1615 -0.1980 -0.1882
28215W        W45062   7.813  12.676   0.867 -0.1169  0.1186 -0.1555
28216W        W45063   2.666   0.508  10.902  0.1373 -0.2593  0.2215
28217W        W45064  13.842  13.673   2.416  0.1960  0.0243  0.0488
28218W        W45065   5.599  16.669   0.315 -0.1304 -0.0584  0.1310
28219W        W45066  10.332   8.408  12.271 -0.2045 -0.0318  0.1434
28220W        W45067  19.853   8.282  11.339  0.1803  0.3734  0.1126
28221W        W45068  18.405   7.865   1.949 -0.0427 -0.2581 -0.1969
28222W        W45069  10.850  15.390  13.932 -0.0878  0.1100  0.1660
28223W        W45070   4.840   4.205   3.041  0.0715 -0.0632  0.2823
28224W        W45071   4.293  15.472   1.034  0.1288 -0.3318 -0.0042
28225W        W45072  12.338  15.469   4.835  0.4315  0.2439  0.0787
28226W        W45073  18.060   0.946   4.760  0.3388 -0.3054 -0.2571
28227W        W45074  19.044   9.268   4.237 -0.0465  0.1069 -0.4199
28228W        W45075  14.636  18.453   5.222 -0.4007  0.0142  0.0590
28229W        W45076   9.991   8.718  13.728  0.0345  0.0967 -0.0111
28230W        W45077  17.064   9.475  12.289 -0.0870 -0.3242 -0.0624
28231W        W45078  10.331   6.788   9.946  0.2533  0.2459 -0.0737
28232W        W45079  15.653   7.787   0.886 -0.1457 -0.3371  0.0076
28233W        W45080  15.313  13.090   3.916 -0.0758  0.1060  0.1134
28234W        W45081  17.839   5.354   0.214  0.2716  0.1022  0.0021
28235W        W45082  11.298   3.731   0.099 -0.0899 -0.3779 -0.0540
28236W        W45083  16.473  17.947  10.260 -0.2161 -0.1034  0.0375
28237W        W45084  10.771   1.124   2.280 -0.0993 -0.0451  0.0430
28238W        W45085   5.167   3.399   1.382  0.0728  0.0501 -0.1796
28239W        W45086   1.253   7.930  11.768 -0.0472  0.0483  0.2513
28240W        W45087   7.681   6.916  10.933 -0.1588  0.1331  0.0147
28241W        W45088  18.408   7.522   3.086  0.2914  0.2572  0.2020
28242W        W45089  10.111   7.337   3.232  0.3139 -0.2691 -0.1892
28243W        W45090   4.148   0.774  10.915  0.1411  0.3635  0.1094
28244W        W45091  16.241  18.578   1.216 -0.0456  0.1205  0.2992
28245W        W45092  13.643  15.146  10.873 -0.1537 -0.0636 -0.2432
28246W        W45093  10.228  18.007   1.417 -0.1288 -0.1877  0.0339
28247W        W45094  11.083   4.364   0.024  0.2963  0.4789 -0.1946
28248W        W45095   9.346  13.149  11.020  0.0234 -0.0920 -0.1474
28249W        W45096   0.411  15.251   4.845  0.0372  0.2451  0.6133
28250W        W45097   2.587  18.165  14.027  0.0340 -0.4363  0.0537
28251W        W45098  15.135  10.575   1.003 -0.1409  0.1121 -0.0262
28252W        W45099   1.805   6.561   4.466  0.3278  0.3041  0.1280
28253W        W45100   2.894  10.377   1.229 -0.0648  0.1614  0.1197
28254W        W45101  15.827  11.176   0.256 -0.1816 -0.0627 -0.2491
28255W        W45102  18.423  11.442   0.504 -0.0932  0.0130 -0.1244
28256W        W45103  17.536  13.538  13.464  0.2004 -0.2001 -0.3799
28257W        W45104  18.952   7.283   0.836  0.1391 -0.2864 -0.2258
28258W        W45105  17.424  17.831   3.972 -0.2663  0.2101  0.0414
28259W        W45106   0.443   0.333  13.812 -0.0298  0.2475  0.1192
28260W        W45107   0.867  16.613   0.848  0.0081  0.7274  0.1988
28261W        W45108   1.664   9.363  13.184  0.3387 -0.1288  0.0353
28262W        W45109  16.890   0.403  11.331 -0.3380 -0.1662 -0.0372
28263W        W45110  10.870   5.512   1.395  0.1676  0.2340  0.3570
28264W        W45111   2.782  11.092  12.141 -0.2523 -0.3053 -0.1543
28265W        W45112   3.041  13.885   2.892  0.0388  0.0002 -0.2917
28266W        W45113   7.026   0.728  12.230 -0.0557  0.0829 -0.1843
28267W        W45114  19.485  13.274  13.727  0.2827  0.1155  0.0911
28268W        W45115  19.432  11.384   2.944  0.0728 -0.0011  0.1262
28269W        W45116  13.524   6.772   4.477  0.2199 -0.1737 -0.0564
28270W        W45117  17.220   3.205   0.909 -0.0321  0.1230 -0.4132
28271W        W45118  18.478   8.768  10.910  0.1914 -0.1247  0.0424
28272W        W45119  18.158  13.726  10.747  0.3002 -0.0324  0.2023
28273W        W45120   7.046   9.996   0.935  0.2042  0.1950  0.1075
28274W        W45121  14.804  19.758   1.591 -0.1205  0.3437 -0.0032
28275W        W45122  10.324  12.177  12.007 -0.2679 -0.2894  0.1930
28276W        W45123   3.279   7.616  12.885  0.0282  0.0398  0.0987
28277W        W45124   7.211  18.333  13.291 -0.2115  0.1975  0.0197
28278W        W45125  18.069  16.647  11.404 -0.0453  0.2529 -0.0493
28279W        W45126  18.042  18.015   1.011 -0.1157  0.1828 -0.2768
28280W        W45127  12.408  18.560  12.736  0.4853 -0.1979  0.1227
28281W        W45128   1.139  14.408  12.655 -0.2125 -0.4159 -0.0969
28282W        W45129   2.788   6.873   1.176  0.0939  0.1735  0.0521
28283W        W45130   1.154   4.330  13.949  0.0147  0.0027  0.0068
28284W        W45131  10.141  15.425   0.267  0.0045 -0.0111  0.4155
28285W        W45132   3.367   1.034   1.979  0.0941 -0.4169  0.0292
28286W        W45133  19.202   9.832  12.781 -0.1952  0.1544  0.1483
28287W        W45134   2.158   3.328  11.257  0.1443  0.0341 -0.3005
28288W        W45135   9.037  12.193   1.170  0.1403 -0.1171 -0.1274
28289W        W45136   8.383  14.231  12.056  0.2080 -0.0101 -0.1055
28290W        W45137  11.366  11.547   4.269  0.4791 -0.0235  0.2772
28291W        W45138   2.797  14.558   5.467  0.0314  0.1004  0.1274
28292W        W45139  16.424  15.972  13.974  0.0927 -0.1863 -0.0041
28293W        W45140   3.959   1.210   3.115 -0.1898 -0.0328  0.0046
28294W        W45141  12.648   8.069  10.388  0.0314  0.3712 -0.0157
28295W        W45142  15.924  11.340   1.281  0.2636  0.2016 -0.0457
28296W        W45143   6.392   2.477  12.016  0.0891 -0.2538 -0.0589
28297W        W45144   0.838   7.280   0.516  0.1407 -0.0052  0.1029
28298W        W45145   5.121   2.629  13.463 -0.2253 -0.1593  0.1791
28299W        W45146  11.612   7.108   2.709  0.3449  0.0786  0.0075
28300W        W45147  19.251   9.211   1.967  0.1839 -0.0237 -0.1788
28301W        W45148   2.900   0.892  13.904 -0.0505  0.0383 -0.1239
28302W        W45149  16.367  16.874  13.554  0.0249  0.0968  0.1001
28303W        W45150   8.416   7.694   1.946  0.2540  0.1483 -0.0047
28304W        W45151  13.949  17.095   2.371  0.0808  0.1761 -0.1891
28305W        W45152   2.625  18.998   4.333  0.0625  0.0048 -0.3719
28306W        W45153   8.778  13.869  11.459 -0.0406 -0.1496  0.0267
28307W        W45154  12.071   7.338   4.709 -0.0609  0.1727  0.0946
28308W        W45155  13.266  13.246   2.882 -0.1193 -0.0016 -0.3857
28309W        W45156  12.122   5.787   2.768 -0.0808 -0.0521 -0.4375
28310W        W45157   9.621   8.416   3.087 -0.0144 -0.3511 -0.2552
28311W        W45158  15.999   9.370   2.996  0.0210 -0.0870 -0.2739
28312W        W45159   1.647   6.451   4.000  0.5305 -0.0004 -0.2328
28313W        W45160  13.648   7.101  13.785  0.0011  0.4340 -0.0996
28314W        W45161   4.523  12.800  11.242 -0.2056  0.0939  0.0580
28315W        W45162   8.749  13.562  12.454 -0.0801  0.2683 -0.0108
28316W        W45163  12.469  18.371   3.249  0.0389  0.0865  0.0505
28317W        W45164  12.156  19.226  14.175 -0.1074  0.0897  0.0042
28318W        W45165   2.122   8.971   2.576  0.0239  0.3466 -0.1455
28319W        W45166   7.282   5.171   0.391 -0.1693 -0.1736  0.0031
28320W        W45167   3.404  18.606   1.144  0.0056  0.1620 -0.3651
28321W        W45168   0.283  10.856  11.628 -0.0752  0.1651 -0.1582
28322W        W45169  16.868  17.789  13.986 -0.3137 -0.0824 -0.1873
28323W        W45170  17.738  15.500  11.467  0.0795  0.0463 -0.0819
28324W        W45171   5.757  16.388  10.766 -0.1265 -0.2581 -0.0719
28325W        W45172  12.856   4.800   3.581 -0.0029  0.0158  0.0832
28326W        W45173  17.588   2.869  12.451 -0.0597 -0.3005  0.1049
28327W        W45174   5.085  11.572  11.136 -0.1093 -0.0327 -0.2091
28328W        W45175   4.413   9.894  11.289 -0.4042  0.2731  0.1300
28329W        W45176   7.423  12.981   1.083  0.1123  0.1448  0.3631
28330W        W45177  15.003  13.562  11.430  0.3208  0.1367 -0.2331
28331W        W45178   3.852   0.955  14.269 -0.1327  0.2189 -0.0800
28332W        W45179  10.674   1.094   1.756  0.1601  0.0303 -0.0694
28333W        W45180  16.245  16.725  12.455 -0.1168  0.2350 -0.1878
28334W        W45181   9.912   4.839   2.149 -0.0828 -0.0145  0.1957
28335W        W45182  18.395  16.037  13.900 -0.0412 -0.2150 -0.3150
28336W        W45183   3.572  19.466  11.956  0.0029  0.1114  0.6042
28337W        W45184   0.700   4.936  11.357  0.1845 -0.2229 -0.1867
28338W        W45185  10.664  14.860  12.767 -0.3380  0.3061 -0.1614
28339W        W45186   1.411  16.918   5.545 -0.1143  0.0406 -0.0273
28340W        W45187   5.211   2.879   1.259  0.1524 -0.2664 -0.2485
28341W        W45188   3.132   9.189   1.175 -0.1256 -0.1066  0.0525
28342W        W45189  11.520   4.180   4.943 -0.0385 -0.1936 -0.0685
28343W        W45190  16.967   3.600  11.764  0.1203  0.2427  0.1154
28344W        W45191   5.356  10.192   1.283 -0.0138  0.1258  0.1250
28345W        W45192   7.232  12.431  13.515  0.2992 -0.3527  0.0622
28346W        W45193  10.371  10.664  11.786  0.2931 -0.0007  0.0633
28347W        W45194  17.604   3.505  10.178  0.1335 -0.1173  0.3031
28348W        W45195   1.954   3.747   2.480 -0.0496 -0.2792  0.0125
28349W        W45196  13.313  15.080   1.526  0.1824  0.1035 -0.2360
28350W        W45197  17.161  19.362  13.354 -0.0308 -0.1574 -0.1437
28351W        W45198  16.808   7.050   4.268 -0.0279 -0.3791 -0.1316
28352W        W45199  17.830  13.755  12.378  0.2361 -0.1386  0.1312
28353W        W45200   5.718  18.365  11.005  0.4712 -0.3336  0.0948
28354W        W45201  18.141   6.442  11.558 -0.2319 -0.0765 -0.3374
28355W        W45202  19.258   7.548   5.204  0.0412 -0.0575  0.0057
28356W        W45203  11.839   4.583   5.474 -0.1630 -0.0182  0.0797
28357W        W45204  18.263   8.171   3.175  0.1391 -0.0236  0.0817
28358W        W45205   2.965   1.763   2.414  0.1875  0.0776 -0.0922
28359W        W45206   0.231  19.510  12.582  0.4264 -0.1448  0.0313
28360W        W45207  13.152   8.459   3.912  0.2220  0.2681 -0.4607
28361W        W45208   2.326   8.335   0.790  0.2546 -0.4390 -0.0427
28362W        W45209  17.286   0.692   0.263  0.1040 -0.0799 -0.1520
28363W        W45210  18.346   9.760  12.168 -0.3439  0.1741 -0.2020
28364W        W45211  11.930  14.263   4.267 -0.2767 -0.1740  0.0090
28365W        W45212  15.831   5.832  13.283  0.1691 -0.3339 -0.4549
28366W        W45213   4.327  14.911   1.137  0.1181  0.4468 -0.5316
28367W        W45214   3.160   7.181   4.804  0.0601 -0.0165 -0.0839
28368W        W45215  16.933   7.002  12.420 -0.0867  0.2178 -0.2203
28369W        W45216  18.554   6.791   4.777  0.3460 -0.2390  0.3508
28370W        W45217   7.182  18.908   3.497  0.1208 -0.1560 -0.0875
28371W        W45218   8.562  17.948   2.106  0.1925 -0.1978  0.0781
28372W        W45219   5.763  15.977  13.443  0.0901 -0.1064  0.0324
28373W        W45220   6.697  14.764  12.231 -0.0382  0.4388 -0.0511
28374W        W45221   3.023  15.321   3.098  0.3280  0.1715  0.2832
28375W        W45222  11.617   3.402   0.870  0.1281 -0.0709  0.1952
28376W        W45223  12.497  13.716  12.865 -0.0478 -0.0576 -0.0623
28377W        W45224  10.348   9.047  13.892 -0.1609 -0.1113 -0.0631
28378W        W45225  12.296   9.989  12.567 -0.2066 -0.0771 -0.0852
28379W        W45226   6.689  11.301   4.479  0.1251 -0.0232  0.1187
28380W        W45227  10.788  14.293   1.780  0.2845  0.0841 -0.0919
28381W        W45228  18.277   5.007  11.125  0.1380 -0.1997  0.1533
28382W        W45229  16.674   5.428  11.584  0.1003  0.3938  0.1305
28383W        W45230  10.891  12.027  10.832  0.0579 -0.3606  0.1784
28384W        W45231  13.152  11.993   5.284 -0.1068  0.2545  0.0995
28385W        W45232   9.103  19.278   1.220  0.1459  0.0287  0.2392
28386W        W45233  17.096   6.518  13.192  0.0782  0.0913  0.0636
28387W        W45234   1.470  17.308   3.220 -0.0297 -0.0753  0.1698
28388W        W45235   6.122  16.436   4.752  0.0799 -0.0325 -0.1963
28389W        W45236   3.001   9.803  12.842 -0.4424  0.1274  0.2362
28390W        W45237  10.633  15.210   5.002 -0.2174  0.0147  0.3231
28391W        W45238  15.625  14.594   2.918 -0.0098  0.1532 -0.2845
28392W        W45239   9.528  10.701  13.086  0.0558 -0.0647  0.0673
28393W        W45240   5.801  11.434   1.913 -0.4551 -0.0572  0.1472
28394W        W45241   1.256   5.579   5.542  0.3833 -0.0915  0.0629
28395W        W45242   6.501  13.676   0.811  0.1316  0.0964  0.0474
28396W        W45243   1.384   4.034   0.006 -0.1524 -0.1197 -0.0104
28397W        W45244   0.790   5.053  13.708 -0.5354  0.0226  0.2243
28398W        W45245   6.809   9.529  12.200 -0.1879  0.1817 -0.0682
28399W        W45246   6.273   8.377   3.146 -0.0465 -0.2666 -0.2750
28400W        W45247   7.008   8.145   1.257 -0.0435  0.0749 -0.1040
28401W        W45248  10.171  17.833  12.868  0.2230  0.2185  0.0519
28402W        W45249  16.517   8.868   1.296  0.2619  0.2020 -0.2502
28403W        W45250  10.439   6.306  13.596  0.0639  0.1475 -0.4792
28404W        W45251   2.980   0.254  13.953  0.2142 -0.0929  0.0387
28405W        W45252  13.200   8.225   2.949 -0.0458  0.0333  0.1030
28406W        W45253  19.081  19.755  12.971  0.0709 -0.1095  0.2343
28407W        W45254   8.537   4.940  13.695  0.0220  0.1472  0.1853
28408W        W45255   5.102   2.601   4.024  0.2459 -0.0581  0.2567
28409W        W45256   9.706  13.683   0.607  0.0542  0.0890  0.6287
28410W        W45257   2.572   7.487   0.423 -0.0954 -0.3854 -0.2515
28411W        W45258  15.630  16.980   0.433 -0.0586  0.2381  0.2772
28412W        W45259  13.086  14.599   2.404 -0.0753  0.1524 -0.1082
28413W        W45260   7.202  16.299  14.068 -0.1355 -0.3037 -0.2315
28414W        W45261   6.107  14.058  10.938 -0.1222 -0.2675 -0.3150
28415W        W45262   9.568  19.587  10.016 -0.0336 -0.0677  0.1941
28416W        W45263   9.383  17.996   4.010 -0.0923 -0.1170  0.1402
28417W        W45264  17.464  12.738  12.816  0.2354 -0.2222  0.1792
28418W        W45265  15.314   6.599  13.710  0.1539  0.0567 -0.2124
28419W        W45266  16.819  14.867  11.274  0.0664  0.0267  0.2853
28420W        W45267  10.345  15.778   2.196 -0.1411 -0.1309  0.0676
28421W        W45268  12.894   1.547   4.039  0.3035  0.2181  0.0402
28422W        W45269   8.078  19.285  13.105  0.1005 -0.2487  0.2460
28423W        W45270   2.345  19.086   0.445  0.2168 -0.1532 -0.3549
28424W        W45271   8.240  13.435  11.492  0.1753 -0.1785  0.0007
28425W        W45272   4.011  15.183   1.469  0.2432  0.0310  0.2830
28426W        W45273  12.412   2.474  11.036 -0.0833  0.1234  0.1554
28427W        W45274  18.390  19.666   3.524 -0.2431 -0.0115 -0.1500
28428W        W45275  11.257  16.614  12.773  0.0063 -0.0508 -0.0898
28429W        W45276  15.069   4.049  13.292 -0.2109 -0.2759 -0.1830
28430W        W45277   7.681   2.246   3.868  0.2125 -0.0558  0.1155
28431W        W45278  18.663  19.207  11.722  0.0955 -0.2098  0.2699
28432W        W45279  16.107  14.673   1.235  0.2392 -0.2306  0.0037
28433W        W45280   0.218   3.575  14.277  0.2206 -0.0148 -0.3295
28434W        W45281  14.167   9.266  10.515  0.1857  0.2962 -0.0703
28435W        W45282   8.065  13.692   3.861  0.1519  0.2912  0.1831
28436W        W45283   9.957  16.863   2.148  0.0268  0.1936 -0.1126
28437W        W45284   8.152  12.150   1.889 -0.1807  0.0854  0.2198
28438W        W45285   3.765  17.070   4.390  0.0487 -0.0937  0.1089
28439W        W45286   2.361   6.981  12.092  0.1834  0.0261 -0.0052
28440W        W45287   4.236  11.243   1.559 -0.1516 -0.1419 -0.0284
28441W        W45288   7.562   6.924  13.993  0.2065  0.1020 -0.1066
28442W        W45289   5.278  12.021   3.278  0.1572 -0.0802 -0.0458
28443W        W45290  10.011  19.841   3.820 -0.0021  0.0635  0.0746
28444W        W45291  13.633   7.343   0.499 -0.2448 -0.0637 -0.1540
28445W        W45292  17.610   7.407   2.195  0.0140  0.1231  0.0410
28446W        W45293  16.089   7.585   2.461  0.1651 -0.0655 -0.0315
28447W        W45294  18.410   5.222   0.390  0.1232 -0.1546  0.1491
28448W        W45295   0.711   3.400   2.841 -0.0835  0.4051 -0.0370
28449W        W45296  12.838   1.612  12.243  0.1254  0.0335  0.1452
28450W        W45297   8.455   5.584   3.529  0.6052 -0.0527  0.0547
28451W        W45298   4.982  10.225   3.575  0.0963 -0.0156  0.1165
28452W        W45299   0.395   2.914  11.082 -0.0364  0.2087  0.3496
28453W        W45300   2.931  13.004   3.855  0.2696  0.1243 -0.0865
28454W        W45301  14.967   7.268   3.355 -0.0436  0.0588  0.4371
28455W        W45302   0.321   0.177  11.083 -0.1955 -0.3921  0.1963
28456W        W45303   9.351  19.884  11.914  0.1473 -0.0280  0.1379
28457W        W45304   1.782  15.021  11.494  0.3351  0.1377 -0.3001
28458W        W45305   7.077   6.782  10.948 -0.0258 -0.0636 -0.1048
28459W        W45306  16.526   6.933   0.953  0.0686  0.0884 -0.1440
28460W        W45307  15.999  12.233   0.321  0.0171 -0.0449  0.0142
28461W        W45308  11.978   7.522   4.203 -0.1182 -0.0959  0.0267
28462W        W45309  16.287   3.684   9.996 -0.1347 -0.0844 -0.1749
28463W        W45310   3.522  19.047  12.307 -0.1824 -0.2048 -0.0707
28464W        W45311   1.260  14.409   4.295  0.1952 -0.0159  0.0121
28465W        W45312   6.653   6.655  13.597 -0.0466 -0.2365  0.2007
28466W        W45313  11.733  11.102   9.536  0.2802 -0.0674 -0.0420
28467W        W45314   5.428   3.140   0.339 -0.1002 -0.1211  0.0213
28468W        W45315  15.993  14.343   0.329  0.2313 -0.1804  0.2515
28469W        W45316   3.900  16.711   4.073  0.0198 -0.1327  0.3260
28470W        W45317  11.891  11.363  14.221 -0.0180  0.0247  0.0394
28471W        W45318   6.136   2.059   5.195  0.1750 -0.2500 -0.5714
28472W        W45319  17.611   0.410  11.557 -0.0633  0.2075  0.0606
28473W        W45320  15.208   7.859  10.887 -0.0955  0.1423  0.2997
28474W        W45321  12.632   9.509   1.766  0.1147  0.3180 -0.2090
28475W        W45322   6.438   0.621  12.417 -0.1763  0.0088 -0.1924
28476W        W45323   5.890   1.497  13.312  0.0589 -0.2509 -0.3825
28477W        W45324   7.685   2.572   0.946  0.0509  0.1412  0.3425
28478W        W45325   9.268  10.457  12.499  0.0637 -0.3950 -0.1728
28479W        W45326  12.117   4.530   3.115  0.0890  0.1654 -0.0176
28480W        W45327   2.622  11.120  12.645 -0.0240 -0.0881  0.2135
28481W        W45328   7.220  19.351   0.838  0.0012  0.1954 -0.3039
28482W        W45329  14.548   4.964   5.309  0.1106  0.0627  0.0178
28483W        W45330  11.994  17.799   3.555  0.0112 -0.1298 -0.2053
28484W        W45331  17.451   5.002   4.674 -0.0966  0.0416 -0.2324
28485W        W45332  17.976   0.856   3.799  0.0731  0.0149  0.2148
28486W        W45333   0.250  18.055  10.662 -0.0859  0.1010  0.0445
28487W        W45334   9.416   2.186   0.837  0.0287  0.2244  0.0194
28488W        W45335  13.619  17.778   3.968 -0.2530  0.4993  0.0442
28489W        W45336   4.057   2.879   1.104 -0.0406  0.0514 -0.2848
28490W        W45337   8.279   3.777   5.124 -0.0968 -0.0411  0.0943
28491W        W45338   5.762  17.871  11.693 -0.2621 -0.1205 -0.1088
28492W        W45339  18.904   1.392   1.062 -0.0474  0.0560 -0.0924
28493W        W45340   5.699  11.801  11.173  0.0383 -0.2721  0.3139
28494W        W45341  10.827  17.421   3.576 -0.1032  0.2688 -0.0437
28495W        W45342   1.146  18.350  10.753 -0.1156 -0.1438 -0.1200
28496W        W45343   9.973  11.171  14.349  0.1075  0.0070 -0.0743
28497W        W45344   5.188  10.981  12.701  0.6899  0.1356 -0.0952
28498W        W45345  12.007  17.725   0.764 -0.1945  0.0114 -0.1808
28499W        W45346  19.398  11.290   0.669  0.1226  0.0255  0.0745
28500W        W45347  18.638  15.590  14.262  0.0783  0.1775  0.3700
28501W        W45348  15.046  11.564  10.606 -0.2760  0.0109  0.1701
28502W        W45349  18.759   5.928  13.584  0.1912  0.1231 -0.2448
28503W        W45350  17.233   9.288   5.049 -0.0434 -0.1021  0.3714
28504W        W45351  12.107   9.829   3.884 -0.0201 -0.0303 -0.0000
28505W        W45352  11.141  18.613  12.400  0.1073  0.3207 -0.0118
28506W        W45353   0.581  10.942   1.308 -0.2982 -0.1817  0.2497
28507W        W45354  16.056  16.441   9.499  0.0258 -0.0261  0.1921
28508W        W45355   5.732  19.446   3.325  0.0741  0.0582 -0.0803
28509W        W45356  11.719   0.947  11.823 -0.0525  0.1509 -0.1331
28510W        W45357  19.168   6.794  10.368  0.2709  0.1404  0.1143
28511W        W45358   9.352  16.301   1.529 -0.4108  0.0293  0.0870
28512W        W45359  16.899   3.159   0.263  0.3262  0.0499  0.0547
28513W        W45360   8.309   2.830   0.050  0.1867 -0.0110  0.1051
28514W        W45361   9.873   5.923   3.967 -0.0483  0.1899  0.0071
28515W        W45362   1.447   6.603  12.596 -0.0693  0.1128 -0.0332
28516W        W45363  14.313   5.162   2.637 -0.0112 -0.2053  0.1184
28517W        W45364  16.076  18.127   4.164  0.0306 -0.2863  0.0121
28518W        W45365   8.511  12.166  11.090  0.1470  0.2272  0.3305
28519W        W45366   4.759   4.053   2.450  0.0290  0.2125  0.0191
28520W        W45367  19.282  10.062   0.225  0.0588  0.0000  0.2594
28521W        W45368   9.928   3.017   0.923  0.0035  0.3113  0.1351
28522W        W45369  12.443   6.398   3.639 -0.2188  0.0846 -0.0921
28523W        W45370   4.094   3.133   3.128  0.2146  0.1361  0.0533
28524W        W45371  11.845   8.192   2.234 -0.0286 -0.1765 -0.1457
28525W        W45372   9.639   9.163  12.220  0.2513  0.0299 -0.3939
28526W        W45373  18.629   6.929   3.824 -0.1500 -0.0508  0.2020
28527W        W45374   8.591  16.648  13.350  0.1201 -0.0479 -0.0739
28528W        W45375   3.935   4.217   5.220  0.2553 -0.1675  0.0644
28529W        W45376   5.740   9.238   4.163  0.2363 -0.0042 -0.3190
28530W        W45377   3.656  15.595   3.750 -0.1264  0.1145 -0.0717
28531W        W45378   8.356  19.363  13.929  0.0643  0.0799  0.2879
28532W        W45379  18.968   0.797  13.403 -0.0765  0.0013 -0.1246
28533W        W45380   3.787  16.980  12.915 -0.1799 -0.2845  0.1475
28534W        W45381  13.079  18.768   3.981  0.1372 -0.0311 -0.0526
28535W        W45382   0.019  11.605   0.332 -0.0654 -0.2255  0.1126
28536W        W45383   6.522  15.407  13.027  0.1776  0.4137 -0.2412
28537W        W45384  15.518   4.716   0.586 -0.0313 -0.0427 -0.1368
28538W        W45385   9.359  15.635   2.078 -0.0250 -0.0716 -0.2135
28539W        W45386  16.984   7.000  10.912  0.1449 -0.1491 -0.1541
28540W        W45387  16.075   7.856   9.717  0.3643 -0.0522 -0.2463
28541W        W45388   5.503   2.647   0.839 -0.0788  0.0674 -0.0914
28542W        W45389  14.821   6.661  13.843 -0.0745  0.0513  0.1209
28543W        W45390  17.046  19.035  10.554 -0.0017  0.0374 -0.0646
28544W        W45391   8.347   5.053  10.938  0.3865  0.1039  0.0593
28545W        W45392   1.262  13.942   4.152 -0.1679 -0.0170 -0.0872
28546W        W45393  14.198  14.493   4.197  0.2620 -0.1330  0.0136
28547W        W45394   5.705   5.986   0.208 -0.0860  0.1651 -0.0176
28548W        W45395  14.257   5.050  12.798 -0.4100  0.0168 -0.0620
28549W        W45396  13.248  10.609   3.925  0.2028  0.1016  0.0677
28550W        W45397  16.406   5.922  13.396  0.0510 -0.3491  0.2117
28551W        W45398  14.388  15.625   0.923  0.0678 -0.2170 -0.1657
28552W        W45399  18.789  17.971  13.752 -0.0872  0.0914  0.1386
28553W        W45400   9.204   8.277  12.190  0.0444 -0.0779  0.2005
28554W        W45401  14.577   7.177  12.680  0.1963 -0.3243 -0.0794
28555W        W45402  17.525  17.373  12.286  0.0310 -0.1423 -0.0352
28556W        W45403   8.707  16.148  13.447 -0.1538  0.3570 -0.1006
28557W        W45404   2.401  19.589  11.188  0.0639 -0.2067 -0.1809
28558W        W45405  19.441   1.249  13.984  0.2290 -0.2435 -0.0221
28559W        W45406   2.302  12.499   0.263 -0.0413  0.1065 -0.0343
28560W        W45407  19.602   7.854  11.117  0.3087  0.0047 -0.1618
28561W        W45408   1.710  13.211   5.615 -0.0051 -0.0549 -0.2570
28562W        W45409   6.026   9.719   0.649 -0.2000 -0.1632  0.0520
28563W        W45410  18.837   6.466   1.198  0.4256  0.1188  0.1736
28564W        W45411   1.030  14.051   3.569 -0.2294  0.0156  0.0741
28565W        W45412   6.100   0.407   2.699  0.0110 -0.1817  0.0758
28566W        W45413  18.248   0.471   3.986 -0.4755 -0.0682  0.0092
28567W        W45414  11.493   8.301  12.069 -0.2684 -0.1736 -0.1846
28568W        W45415   7.542   0.123  13.976 -0.1397  0.2438  0.1288
28569W        W45416  15.712  19.873  10.529  0.2159  0.2184 -0.0145
28570W        W45417   4.116   7.630   3.732  0.1229 -0.2410  0.2602
28571W        W45418   8.752   9.455   2.383  0.0189  0.2059 -0.1641
28572W        W45419  19.325   3.941   2.469  0.1168  0.1377  0.1480
28573W        W45420   6.216  17.491   4.649 -0.0850  0.2020 -0.1638
28574W        W45421  18.858   6.785   3.399  0.0797 -0.1098 -0.0405
28575W        W45422   7.997   3.704  13.441 -0.1842 -0.0679  0.2402
28576W        W45423   0.948   1.366  14.207 -0.0134 -0.0866  0.1547
28577W        W45424   7.606  17.605  14.131 -0.0644  0.1307  0.2190
28578W        W45425   4.242  10.659   2.897  0.2669  0.1680  0.0791
28579W        W45426   5.775   1.827  11.938  0.1433 -0.0303  0.1960
28580W        W45427  17.895   7.193  11.945 -0.3129 -0.2068 -0.0525
28581W        W45428   5.268  19.309  13.962  0.1301  0.0068 -0.0118
28582W        W45429  12.522   8.104  12.915  0.1922 -0.1708  0.1300
28583W        W45430  19.398  13.842  11.117 -0.1809 -0.2637 -0.2443
28584W        W45431   7.321   0.560   3.134 -0.1526  0.1407  0.0409
28585W        W45432   2.217  18.318   2.597 -0.1376  0.0978 -0.0021
28586W        W45433  17.343  11.814  14.213  0.0759  0.2387 -0.0571
28587W        W45434  18.199   4.837   3.447 -0.0893  0.1137 -0.2103
28588W        W45435   3.590   8.933   3.797 -0.0476 -0.2814 -0.5346
28589W        W45436  10.851  18.624   0.246  0.0885 -0.1046  0.5078
28590W        W45437   0.812   9.692   3.901  0.2138 -0.0235  0.2596
28591W        W45438   7.531   8.740   1.270  0.0859  0.0743 -0.2126
28592W        W45439   2.685  11.973  11.889 -0.0905 -0.0727 -0.0726
28593W        W45440   7.570  17.193   0.663  0.2583  0.1154  0.2309
28594W        W45441  13.112   5.191   2.749 -0.0249  0.1608 -0.0577
28595W        W45442   0.442   5.423   4.416 -0.0999  0.0162  0.0016
28596W        W45443   6.569   8.675  10.483 -0.3541 -0.3388  0.3374
28597W        W45444   5.922  18.578  12.841 -0.2161 -0.4060  0.1237
28598W        W45445  17.344  13.772   2.704  0.2819  0.0908  0.3102
28599W        W45446   6.876   8.077  14.049 -0.0385  0.2411 -0.0418
28600W        W45447  14.773  12.661   3.979 -0.0996 -0.0094  0.1317
28601W        W45448   9.801  14.688  12.986 -0.2026 -0.1317  0.3112
28602W        W45449   1.404  18.184   4.160  0.1321 -0.2350  0.1015
28603W        W45450  12.518  16.437   2.105  0.0472 -0.0460  0.0039
28604W        W45451  15.765  18.476   4.375 -0.0859  0.0327  0.1466
28605W        W45452   6.628   4.718  12.525  0.1106  0.0933 -0.1642
28606W        W45453  14.368  17.285   3.864  0.1837  0.1005  0.1425
28607W        W45454   7.597   4.519   2.856 -0.0933  0.0949  0.0816
28608W        W45455  13.988   1.897   0.565 -0.3791  0.4349 -0.1301
28609W        W45456  11.762   1.404   2.615  0.0056  0.0908  0.1490
28610W        W45457  10.633   8.376  13.173  0.0023  0.2203 -0.0183
28611W        W45458   7.877   2.361  13.474  0.3679 -0.2698  0.0965
28612W        W45459   5.818   4.205  11.700 -0.1077 -0.0725  0.2371
28613W        W45460   3.806  18.951   9.479  0.1957 -0.2878  0.3413
28614W        W45461   9.610  11.184   2.120  0.2348  0.2946  0.0413
28615W        W45462   4.804  14.345  11.351  0.0488 -0.1916  0.1503
28616W        W45463   0.573  19.127  11.753  0.2590  0.2718 -0.1474
28617W        W45464  14.128  11.987  12.194 -0.2474  0.1255  0.1238
28618W        W45465  15.951   2.862   0.179  0.3723  0.3071  0.0789
28619W        W45466   3.900   5.976  13.458  0.1212  0.2684  0.4020
28620W        W45467   8.227   6.463   0.498  0.0787  0.2047 -0.3000
28621W        W45468   7.635  15.642  10.813  0.0585  0.0919  0.4534
28622W        W45469  11.081  16.223   2.855 -0.0828 -0.2433 -0.0476
28623W        W45470  12.892   4.093   0.616  0.2240 -0.0735  0.1945
28624W        W45471  10.681   5.066  14.273  0.2459  0.1382  0.2809
28625W        W45472   0.549  16.488  11.108 -0.0102 -0.2230 -0.1585
28626W        W45473  18.959   2.400   0.407  0.1723 -0.1742  0.0868
28627W        W45474  17.755  10.728  10.104  0.3763 -0.2463  0.0367
28628W        W45475  14.494  15.556   1.438  0.3352  0.2432 -0.1822
28629W        W45476   2.240  19.369  12.981  0.2841  0.1863  0.3197
28630W        W45477  13.730   2.347   4.666  0.2372 -0.0839 -0.1971
28631W        W45478   8.096   7.192   0.933  0.2743  0.1110  0.1227
28632W        W45479  18.821   2.230  13.460 -0.1758  0.0933 -0.0139
28633W        W45480  14.131   4.621  13.000  0.4739 -0.1586 -0.1480
28634W        W45481   3.711  12.663  13.021 -0.0878 -0.0872  0.2731
28635W        W45482   3.485   4.473   2.612  0.0616  0.0677 -0.0116
28636W        W45483   3.630   3.868   3.419  0.0649  0.0975 -0.0266
28637W        W45484   3.074  19.029   1.871 -0.2480 -0.0156 -0.4588
28638W        W45485  16.249   1.767  14.170  0.3344  0.1404  0.2280
28639W        W45486  11.928  19.662   0.017  0.2577 -0.4718  0.1325
28640W        W45487   5.941   5.825   1.331 -0.0540 -0.1064  0.0386
28641W        W45488   3.822  18.006  13.189 -0.1917 -0.2131  0.1524
28642W        W45489   5.879  13.486  12.899  0.3216 -0.2098  0.1290
28643W        W45490  10.167   5.422  10.012 -0.2575 -0.3539  0.1854
28644W        W45491   9.826   4.664  11.794  0.1328 -0.4099  0.3005
28645W        W45492   4.707   7.582  13.311  0.0366  0.2324  0.0856
28646W        W45493  19.543   4.625  10.271  0.0369  0.0704 -0.3055
28647W        W45494   9.371   9.795   2.606  0.4232  0.1353 -0.2117
28648W        W45495   1.830   6.350  10.992  0.1074  0.0553 -0.2919
28649W        W45496  11.486   1.823   4.127 -0.1783  0.0332  0.4149
28650W        W45497   7.192   8.302  13.773  0.0283  0.0781  0.4735
28651W        W45498  15.415  11.365   4.192  0.2896  0.0173 -0.3863
28652W        W45499  11.980   2.106   0.375  0.1553  0.2896  0.0413
28653W        W45500  17.580  16.830   0.602 -0.0941  0.1907 -0.1854
28654W        W45501   3.925  12.848   3.626 -0.0066  0.0799 -0.1595
28655W        W45502   9.539  17.665   2.438 -0.1337 -0.0470  0.0042
28656W        W45503   7.874   0.126  13.604  0.3635  0.0976 -0.3078
28657W        W45504   7.225  12.456   1.091 -0.3655 -0.1763 -0.0912
28658W        W45505  17.461  10.573   0.002  0.3266 -0.1297  0.2350
28659W        W45506  18.209   0.159  13.261  0.1628 -0.1252 -0.1272
28660W        W45507   0.306  13.692   2.999 -0.0007  0.0012 -0.0415
28661W        W45508   0.315  17.833  11.522 -0.0918  0.0542  0.3528
28662W        W45509  17.771  14.962   0.835  0.0540  0.2337  0.1057
28663W        W45510   9.218  12.620  10.864  0.2070 -0.2533 -0.4120
28664W        W45511   6.341  17.293   0.785  0.0876  0.3495 -0.2030
28665W        W45512   4.047   9.155  14.111  0.3037  0.2479 -0.3076
28666W        W45513   5.579   4.069  11.214  0.0486  0.0078 -0.2932
28667W        W45514   7.197  12.159   2.112 -0.1814  0.1514  0.1717
28668W        W45515  17.389   5.238  10.560  0.1328 -0.0430 -0.0808
28669W        W45516   9.875  15.785  12.014 -0.1005  0.1448 -0.2999
28670W        W45517  16.929  11.776   1.501  0.0517 -0.1806 -0.2413
28671W        W45518   4.091  17.283   0.321  0.0045 -0.0816 -0.1908
28672W        W45519  10.029   0.114   3.121  0.2804  0.1788  0.3178
28673W        W45520  18.344   5.270  13.376 -0.2055 -0.4529 -0.0012
28674W        W45521   1.201   1.639   4.200  0.1456 -0.0742  0.1329
28675W        W45522   3.758   4.754   0.186 -0.1331 -0.1641 -0.2753
28676W        W45523   5.554   5.438  12.586  0.0838  0.0043  0.0350
28677W        W45524   9.040   6.382   4.590 -0.1776 -0.1454 -0.1363
28678W        W45525  16.577   0.697   3.343  0.1339 -0.0015  0.0021
28679W        W45526  15.798  13.300   4.691  0.1216  0.0160  0.0116
28680W        W45527  14.069   7.300  13.561 -0.1488  0.2247 -0.0684
28681W        W45528   8.880  13.521   4.495 -0.1982 -0.0930  0.1819
28682W        W45529  14.671  16.483   0.229  0.0479  0.0058 -0.0623
28683W        W45530   4.345   4.348   1.932 -0.3474 -0.0880 -0.1352
28684W        W45531   3.193  19.200  11.908 -0.0550  0.0890  0.0808
28685W        W45532  16.056  17.592   3.464 -0.0437 -0.2449 -0.0419
28686W        W45533   1.632  14.114   0.265  0.0328  0.0576 -0.1808
28687W        W45534   1.012   6.241  10.884  0.2033 -0.3060  0.0930
28688W        W45535  13.376   6.150  14.012  0.0464  0.0554 -0.4261
28689W        W45536   5.259  18.314   2.610  0.1294  0.0935  0.1519
28690W        W45537   6.862  17.973  13.510  0.1872 -0.0069  0.1822
28691W        W45538  15.315  14.897  13.150 -0.2189  0.2026  0.1241
28692W        W45539  15.839   3.275  12.818  0.1577  0.0580  0.0728
28693W        W45540  15.190  12.501   4.457  0.1753  0.1542  0.0514
28694W        W45541  19.021   6.087  12.134  0.0889 -0.1879 -0.4578
28695W        W45542   8.980   8.052   1.143  0.3512  0.1662  0.2887
28696W        W45543  16.096  18.195   2.608 -0.1815  0.3186  0.0213
28697W        W45544   8.205  11.395   4.334  0.0099  0.0454 -0.1326
28698W        W45545   7.425  13.561   2.951 -0.0663  0.0267 -0.2392
28699W        W45546   5.688  12.037  13.862  0.4359  0.0530 -0.1410
28700W        W45547   8.311  14.975   3.168  0.1102  0.0385  0.1307
28701W        W45548  19.126   0.543  14.338  0.2993  0.4084 -0.2163
28702W        W45549   7.391  10.864  13.178 -0.0493  0.1672 -0.0200
28703W        W45550  15.381  13.057   2.677 -0.0399 -0.2115 -0.0111
28704W        W45551  19.002   7.882  14.302  0.3815 -0.0618 -0.1348
28705W        W45552   4.064   0.911  13.800  0.1191  0.0337 -0.2212
28706W        W45553  10.513  13.771   4.294  0.2978 -0.0519  0.3778
28707W        W45554  18.191   4.129   3.850  0.3267 -0.6369 -0.0706
28708W        W45555   4.495  18.800  13.452  0.1327 -0.4257 -0.0241
28709W        W45556   7.559   1.881  11.574  0.0469  0.3181  0.1612
28710W        W45557   7.817  15.287  11.131  0.1611 -0.2255  0.1792
28711W        W45558   7.086  15.872  13.640  0.1732  0.1647 -0.0067
28712W        W45559  14.492  14.213  14.072  0.1174  0.0381 -0.0432
28713W        W45560  10.330   6.801   3.291  0.0010  0.0909 -0.0434
28714W        W45561   8.995  13.767   2.413  0.0541  0.0804  0.1893
28715W        W45562   6.068  10.984   0.496  0.1838 -0.2679 -0.2513
28716W        W45563   3.555   3.537   0.065  0.3907 -0.1264  0.1393
28717W        W45564  17.540  14.276   2.026  0.1197  0.2083 -0.2108
28718W        W45565  10.608  16.313   2.978 -0.0611  0.1030  0.2130
28719W        W45566   1.403   2.253   1.576  0.1810 -0.4895  0.1044
28720W        W45567   8.700   8.750  13.853  0.1291  0.1247  0.2150
28721W        W45568   4.424  14.997   2.193 -0.1930 -0.2331  0.1331
28722W        W45569   9.889   0.694  12.309 -0.2657 -0.3504 -0.0423
28723W        W45570   4.677  15.210  11.166  0.1607 -0.2619  0.2039
28724W        W45571  13.397  11.818  13.475  0.2417  0.1219  0.2049
28725W        W45572   2.792  17.052   3.101 -0.1577  0.1534  0.1572
28726W        W45573  17.359  13.911  12.457 -0.0564 -0.1302  0.3728
28727W        W45574   6.049  10.469  11.285  0.1462  0.1398 -0.2533
28728W        W45575   3.706   3.645   0.593  0.2062 -0.0500  0.2779
28729W        W45576   8.063  16.702  11.276  0.0342  0.0007 -0.0756
28730W        W45577  10.058  18.873   2.199  0.4291 -0.0758 -0.1128
28731W        W45578  14.662  18.957   1.484  0.3017  0.1647 -0.0256
28732W        W45579  17.877  15.391   0.293 -0.2061 -0.2162 -0.0473
28733W        W45580   6.872   9.215  13.442 -0.1455 -0.1068  0.0736
28734W        W45581  10.157  12.079   4.284 -0.1117  0.3093  0.0052
28735W        W45582  12.171  16.980  12.551 -0.1608 -0.1667  0.2037
28736W        W45583   4.954  14.186   0.055  0.1603 -0.2356 -0.0829
28737W        W45584  12.033   0.876   2.926  0.0855 -0.2508  0.1681
28738W        W45585  11.323   5.061   2.893 -0.1231 -0.1029  0.0269
28739W        W45586  15.297   4.757   2.930  0.1599  0.1896 -0.0713
28740W        W45587   8.018   4.630  12.416 -0.2360 -0.0118  0.4862
28741W        W45588   4.426   6.789   0.097  0.1159 -0.0990  0.0820
28742W        W45589   7.362   3.379   1.014  0.3961  0.1384 -0.0906
28743W        W45590   8.704   4.694   3.109 -0.0920 -0.1350  0.1202
28744W        W45591  10.081   4.031   1.440 -0.0533 -0.1417  0.0576
28745W        W45592   6.363  10.547  13.754 -0.0893 -0.4297 -0.1353
28746W        W45593   5.486  12.072  10.712 -0.0256 -0.0762 -0.0634
28747W        W45594  16.224   6.330  10.639 -0.2201 -0.0157  0.1154
28748W        W45595   0.927  15.447  10.018 -0.0043  0.1422 -0.2991
28749W        W45596  19.085  12.716   3.469  0.5781 -0.4373  0.3068
28750W        W45597   9.241   7.389  12.467 -0.0268  0.3378  0.0401
28751W        W45598  11.593   8.751   1.131  0.0353  0.0678  0.2770
28752W        W45599  13.509  11.043  13.869  0.1787  0.0318 -0.1833
28753W        W45600   6.229  18.314   0.399 -0.1162  0.2281  0.3561
28754W        W45601  16.062   7.478  11.744 -0.1599  0.5518 -0.2254
28755W        W45602  15.027  17.686  11.776 -0.1165  0.3716 -0.1570
28756W        W45603  17.801  16.235   1.252  0.1981 -0.0924  0.0229
28757W        W45604   9.184   3.955   3.580 -0.1106 -0.2513  0.0392
28758W        W45605  13.347  12.845   0.275  0.0407  0.0121 -0.0459
28759W        W45606   2.296   1.479  13.792 -0.0992  0.0540 -0.0629
28760W        W45607  10.471  17.722  11.742  0.3523  0.0155 -0.1283
28761W        W45608  19.847   3.027  10.646 -0.0824  0.0263 -0.2628
28762W        W45609  14.428   8.528   2.961  0.1199  0.2728 -0.0744
28763W        W45610  19.393   1.428  10.401  0.0156 -0.1685 -0.3560
28764W        W45611   6.757  16.031  13.978  0.0896  0.1556  0.0624
28765W        W45612   4.810   4.880  13.308  0.3580 -0.2757 -0.0443
28766W        W45613   6.156   3.429   1.385  0.2167  0.1292 -0.1841
28767W        W45614   0.914  16.869   2.465 -0.0326  0.7121  0.0651
28768W        W45615  12.834   6.438  10.955  0.3230 -0.0487 -0.2110
28769W        W45616   3.929   9.050   2.048 -0.0956 -0.1728  0.2251
28770W        W45617  19.461  10.248  12.848  0.3515  0.0890 -0.1173
28771W        W45618   3.799   7.722  13.957  0.1204 -0.1780 -0.1490
28772W        W45619   6.060   3.425   3.628 -0.3374  0.1506  0.2112
28773W        W45620   1.816   1.989   3.631  0.0608  0.0373  0.0074
28774W        W45621   9.818   2.669  13.036  0.0469 -0.0160 -0.0022
28775W        W45622   5.721   7.969   0.328  0.4107  0.0818  0.0386
28776W        W45623   9.849   9.340  13.249 -0.0250  0.3140 -0.1164
28777W        W45624  19.631  17.379   3.788 -0.2685  0.0213  0.3023
28778W        W45625  14.726   5.100   2.232  0.0163 -0.2775  0.4629
28779W        W45626   4.956  10.473  12.822  0.2219  0.2668 -0.1279
28780W        W45627   1.301  18.027   3.671  0.0281  0.0095 -0.0664
28781W        W45628  19.709   1.425  13.575 -0.3090  0.4509  0.1805
28782W        W45629   7.575   1.582   0.388  0.1809  0.1072 -0.2628
28783W        W45630  15.561   2.390   0.164 -0.0270  0.1939  0.1828
28784W        W45631   4.123  10.874   0.161  0.0613 -0.1523  0.6392
28785W        W45632  13.586   7.082   3.354  0.2319  0.1482 -0.0677
28786W        W45633  11.192   0.882   2.011 -0.5270  0.0710 -0.0255
28787W        W45634   5.197  17.201  12.152  0.0837 -0.0199 -0.4855
28788W        W45635  11.854  18.947  11.653 -0.0696 -0.0341 -0.1162
28789W        W45636  11.241   5.825   1.442 -0.2427  0.1069  0.0593
28790W        W45637   6.673   5.966   9.113 -0.1844  0.1636 -0.2192
28791W        W45638  17.319   4.703  10.930  0.1879 -0.0131 -0.2515
28792W        W45639   3.085  15.683   0.462 -0.0770 -0.1617 -0.3812
28793W        W45640  13.784   5.077   5.130  0.2544  0.0365 -0.0103
28794W        W45641  11.149  16.756   5.407  0.0854 -0.0328 -0.1787
28795W        W45642   2.990  16.489   2.192  0.1047 -0.0263  0.0579
28796W        W45643   0.302   4.882   4.350  0.0091 -0.0085  0.1839
28797W        W45644   5.893   7.073   0.327 -0.4030  0.0652 -0.1140
28798W        W45645  17.672   1.363  13.410  0.0505 -0.1347  0.0052
28799W        W45646  10.388   8.662  12.733  0.1537 -0.0496  0.2203
28800W        W45647   7.942   0.104   8.966 -0.2021 -0.0779  0.1137
28801W        W45648   3.594  16.587   0.500  0.0687 -0.3007 -0.1365
28802W        W45649   4.322   0.029   4.260 -0.1841 -0.1636 -0.0470
28803W        W45650   9.633  17.981  12.987  0.2585 -0.0622 -0.3577
28804W        W45651  11.002   3.164  13.783 -0.0241 -0.4163  0.2227
28805W        W45652   5.393   4.010   3.990 -0.0289  0.0207 -0.0875
28806W        W45653   9.725  19.857   0.551  0.1434  0.0097 -0.2253
28807W        W45654   2.726   9.943  14.199 -0.2764 -0.0139  0.2595
28808W        W45655  18.798   4.947   0.293  0.3414 -0.2660 -0.1917
28809W        W45656   3.251  11.757   2.921  0.0194  0.1894  0.0221
28810W        W45657   8.049   2.392  12.383 -0.2409  0.0926  0.4088
28811W        W45658  16.826  19.066  13.707 -0.0419 -0.2726 -0.2612
28812W        W45659   6.116  17.813   0.336 -0.1658  0.0033  0.0344
28813W        W45660   2.767  15.497  12.120 -0.1556  0.0482  0.5875
28814W        W45661  14.222  12.804   0.976 -0.1030  0.0300 -0.1529
28815W        W45662  17.658  14.841  11.718 -0.1655 -0.2564 -0.2023
28816W        W45663  14.088  11.626  12.801  0.1548 -0.0749 -0.0883
28817W        W45664   2.786  13.707   3.355  0.0365 -0.2406 -0.3990
28818W        W45665   4.132   0.427   1.550 -0.4354  0.2140  0.3456
28819W        W45666  10.055  19.388   2.044 -0.1652  0.1494 -0.1865
28820W        W45667  18.857   9.932   1.538 -0.1036  0.1525 -0.0070
28821W        W45668   1.101  11.666  14.069 -0.1394  0.0580  0.1756
28822W        W45669   9.982  12.225   1.682 -0.2918  0.0838  0.0215
28823W        W45670   4.375   2.408  10.128  0.0632  0.0726  0.1863
28824W        W45671   6.396  10.293   0.226  0.1700  0.2269  0.1940
28825W        W45672  13.538  10.094  10.999  0.0158 -0.1742 -0.5704
28826W        W45673  16.974  15.667  11.526 -0.0299 -0.2418  0.0481
28827W        W45674   4.242  13.801   4.297 -0.1603 -0.0815  0.0284
28828W        W45675  14.779   9.493   1.680  0.0039 -0.1265 -0.0624
28829W        W45676  11.338   7.220   4.545 -0.4087  0.2583  0.1181
28830W        W45677  10.707   2.724   4.668 -0.0012  0.2738 -0.1796
28831W        W45678  13.032   0.145   4.524  0.0765  0.0359 -0.1328
28832W        W45679   1.986  16.475   3.952 -0.5118  0.2080 -0.1952
28833W        W45680  13.452   2.160   4.123  0.3446 -0.1775  0.0315
28834W        W45681  16.268  12.111  11.474 -0.2553  0.0800  0.1285
28835W        W45682  16.355   7.823  13.101  0.2825  0.0646 -0.1265
28836W        W45683   6.712  18.379   0.745  0.2261  0.0107  0.0373
28837W        W45684   0.652   2.463  11.563 -0.2849  0.2572  0.2248
28838W        W45685   5.273   3.084  10.289 -0.0974 -0.0758  0.1461
28839W        W45686  12.267   6.347   2.298  0.1108  0.1136  0.2614
28840W        W45687  19.465   7.732   2.054 -0.0894  0.1213  0.0925
28841W        W45688  12.391  16.627  11.671 -0.0538 -0.1429 -0.2923
28842W        W45689  17.657  15.777   4.069  0.1681  0.0162 -0.1819
28843W        W45690   9.466  17.905   2.885  0.0076  0.3384 -0.0233
28844W        W45691   5.559   2.203   0.628 -0.2393  0.5118 -0.0100
28845W        W45692  18.599  11.088   0.228  0.2388  0.2217  0.1847
28846W        W45693  13.358  14.708  10.766  0.3765 -0.0277  0.0148
28847W        W45694  12.313  11.909   0.159 -0.0841  0.2108  0.1143
28848W        W45695  16.746   8.619   1.728 -0.1134 -0.1002 -0.1356
28849W        W45696   7.057  17.290   1.000 -0.0112  0.2028  0.0774
28850W        W45697  12.743   4.062  11.084 -0.0624  0.2432  0.0165
28851W        W45698  15.260  19.412   3.123 -0.0426 -0.0494  0.0092
28852W        W45699   4.651   2.560   3.397  0.3523 -0.0508 -0.0323
28853W        W45700   4.256  17.107   4.247  0.1702  0.0021 -0.2466
28854W        W45701  16.509   9.466  12.303 -0.1638 -0.0267  0.0161
28855W        W45702   7.694  11.667  13.229 -0.0493 -0.2696 -0.2616
28856W        W45703   5.131   5.725   3.118 -0.2067 -0.0148  0.1995
28857W        W45704   7.872  12.311   4.348 -0.1326 -0.2505  0.1913
28858W        W45705  12.440  19.587  12.108 -0.2466 -0.0102 -0.2013
28859W        W45706  19.827  18.158  14.168  0.0891 -0.2264  0.0391
28860W        W45707  18.816  10.560   2.873 -0.0051 -0.1606 -0.2089
28861W        W45708  14.613   7.985  10.317 -0.0613  0.1592  0.0730
28862W        W45709   1.830   4.666   3.136  0.1509 -0.1660 -0.2579
28863W        W45710  18.029  13.223  14.295  0.2075  0.0060  0.0266
28864W        W45711  10.382  15.733   9.285 -0.1158 -0.0155 -0.1328
28865W        W45712   1.310   7.210  13.412  0.1265  0.1492 -0.2435
28866W        W45713   5.603   2.962   4.492  0.0618 -0.1270 -0.0893
28867W        W45714  16.744   9.703   1.453 -0.1135 -0.3270 -0.0542
28868W        W45715   3.762   0.693   0.711 -0.0058  0.0559  0.0287
28869W        W45716   3.546  19.149   4.523 -0.1399 -0.0129  0.0799
28870W        W45717  19.425  18.068   2.348 -0.2131 -0.2752 -0.3806
28871W        W45718  12.943  14.401  10.804 -0.2740  0.0759  0.0328
28872W        W45719   2.968   3.079  13.159 -0.0510  0.1950  0.2044
28873W        W45720  12.163   2.201   3.210 -0.1469 -0.0532  0.1537
28874W        W45721  16.459  16.640   4.359  0.1162 -0.1091 -0.0341
28875W        W45722   8.390  12.379   3.560 -0.3137  0.2405 -0.3113
28876W        W45723  16.239   8.296   4.248  0.0155 -0.1090 -0.3936
28877W        W45724  19.659   9.572  12.993 -0.0398  0.0575  0.1255
28878W        W45725  10.457   8.058   1.883 -0.2851 -0.0096 -0.2998
28879W        W45726  12.156  15.497   0.080 -0.0061 -0.1236  0.1222
28880W        W45727   5.474  13.941   1.212 -0.3173 -0.0327  0.3296
28881W        W45728   9.585   6.119  13.578 -0.0716 -0.0785  0.0398
28882W        W45729   9.271  17.071   2.114 -0.2046  0.2814  0.0058
28883W        W45730   2.927  10.769   1.630 -0.1074  0.3028  0.2088
28884W        W45731  16.630   2.734   4.453  0.0367  0.0800  0.1352
28885W        W45732  14.737  17.955   5.502 -0.0361 -0.1831  0.1971
28886W        W45733   3.041  10.231   2.589  0.1871  0.2123 -0.5518
28887W        W45734  15.063  11.772   1.639  0.3755  0.2755 -0.2742
28888W        W45735   8.895   0.744  10.870 -0.0603 -0.0863 -0.4253
28889W        W45736  16.831  14.635   3.194  0.0084  0.2110  0.1448
28890W        W45737  17.821   4.179  12.157 -0.0245  0.3726 -0.0883
28891W        W45738   6.636  17.034  10.345 -0.0026  0.0971 -0.0064
28892W        W45739  18.725   5.446   3.955  0.0150 -0.1064 -0.0170
28893W        W45740   8.028  16.842   2.639 -0.0105 -0.0700 -0.1123
28894W        W45741  14.178   1.346  10.829 -0.0560  0.0276 -0.2905
28895W        W45742   3.068   3.963   4.345  0.0412  0.1478 -0.1343
28896W        W45743  13.349  17.464  11.928  0.1187 -0.1580 -0.1582
28897W        W45744  13.757   6.123   3.509  0.4038  0.2443 -0.0428
28898W        W45745  10.255   0.079  11.396 -0.1940  0.1008 -0.5270
28899W        W45746   8.916   1.130  11.185  0.1029  0.2962  0.0055
28900W        W45747  12.547  19.025   0.023  0.0542  0.0363  0.2969
28901W        W45748  16.130   3.077   9.141  0.1128 -0.0993 -0.0334
28902W        W45749   3.003  12.008  12.818  0.0651  0.1076  0.0803
28903W        W45750   2.075   8.030  13.553 -0.1120  0.0674 -0.1319
28904W        W45751  19.340   6.346   2.705  0.0533 -0.3820 -0.0413
28905W        W45752  18.916   9.362  12.873  0.0228  0.1326  0.1003
28906W        W45753   4.516  14.947   0.137  0.1616  0.3057  0.0163
28907W        W45754   6.631   1.505  11.420  0.0677  0.4194 -0.1419
28908W        W45755   3.662   5.066   5.078  0.5523  0.0674  0.0097
28909W        W45756  10.171  11.688  12.017  0.1023  0.0804 -0.4566
28910W        W45757  19.248  16.984   2.937 -0.1453  0.1314 -0.2843
28911W        W45758  11.510   8.504  13.558 -0.2657  0.2041 -0.2336
28912W        W45759   5.789  12.794   5.603  0.2876 -0.0650 -0.3027
28913W        W45760   1.853   7.069  13.189 -0.2455  0.2442  0.1872
28914W        W45761   0.627  10.533   4.864  0.0065 -0.2641  0.1530
28915W        W45762   1.517  17.653   0.247  0.1737 -0.1185  0.0483
28916W        W45763  16.379   8.486  12.513 -0.0376 -0.1243  0.1323
28917W        W45764   9.065   0.415  13.476  0.2099 -0.2669 -0.2719
28918W        W45765   1.438  13.206  14.253  0.2915  0.1354  0.0277
28919W        W45766  13.470   3.214   3.870 -0.0805  0.4366  0.0657
28920W        W45767   2.673  16.946   3.551  0.1404  0.1078 -0.0707
28921W        W45768  19.678  10.339   1.003  0.1026 -0.4596 -0.5226
28922W        W45769   9.475   8.339   1.991  0.3948 -0.2236  0.1275
28923W        W45770   0.503   8.873  13.612  0.1902  0.1900  0.1363
28924W        W45771   9.361  17.450   3.076  0.1546  0.0569 -0.1326
28925W        W45772  19.221  17.864  12.338  0.1898 -0.1911  0.0901
28926W        W45773   1.052  17.973   0.515  0.3800  0.1173  0.4469
28927W        W45774   9.215  13.000   3.363  0.0679  0.0445  0.1048
28928W        W45775  17.052   6.520  12.309 -0.3195 -0.0416  0.1176
28929W        W45776   6.614   6.101   1.865  0.4137  0.0229 -0.6541
28930W        W45777   5.732  17.773   3.200 -0.5878 -0.0437 -0.0202
28931W        W45778   9.208   1.187   1.992 -0.3060  0.0845 -0.0184
28932W        W45779  18.261  14.404   2.476 -0.0281  0.2244  0.1915
28933W        W45780   6.059   5.720   4.923 -0.3238 -0.0309 -0.0698
28934W        W45781   2.746  17.629   4.131  0.1103 -0.1015 -0.0323
28935W        W45782  10.141  13.985  11.421 -0.1703  0.0539  0.2438
28936W        W45783   5.162  17.533   1.024  0.0803 -0.0072  0.4516
28937W        W45784   6.723  13.564   4.864 -0.0276  0.0724 -0.2660
28938W        W45785  18.281   7.168   0.353  0.2064 -0.1063 -0.0211
28939W        W45786   4.935  15.216  12.324 -0.2279 -0.0138 -0.1367
28940W        W45787  12.289  18.812   4.746 -0.2527  0.1034  0.0382
28941W        W45788   3.071  15.102  14.175 -0.0178  0.0746  0.3139
28942W        W45789   5.848   0.515  11.428 -0.1921 -0.0714 -0.2467
28943W        W45790  13.603  17.218  13.136 -0.0339  0.0320 -0.0265
28944W        W45791   8.207   3.087  13.960 -0.1130 -0.0282 -0.2634
28945W        W45792  19.006   0.904  13.952  0.0428 -0.0863 -0.1287
28946W        W45793   1.254   4.433   1.912  0.0631 -0.1140 -0.1041
28947W        W45794  19.305  17.082   0.003 -0.1320  0.3156  0.0704
28948W        W45795  17.462   7.161  13.802  0.0648  0.4420 -0.0069
28949W        W45796  16.712  10.840   4.874 -0.1077  0.0146  0.0076
28950W        W45797   3.231   6.157   2.968 -0.1849 -0.0660 -0.2416
28951W        W45798   4.433   7.836  14.214 -0.0835 -0.0615 -0.1999
28952W        W45799  18.831   9.915  10.073  0.0854 -0.1407 -0.1282
28953W        W45800   8.259  14.530   2.961  0.0458 -0.0337 -0.0408
28954W        W45801  17.413  13.818   2.096  0.1085 -0.0322  0.1295
28955W        W45802   7.128   4.163   1.199  0.2916 -0.1042 -0.0672
28956W        W45803   9.149   4.095   8.853 -0.4310 -0.0892  0.1647
28957W        W45804   5.970   7.590   2.163 -0.0050  0.1687 -0.2079
28958W        W45805  10.111  15.335  10.215 -0.0318 -0.0827  0.1637
28959W        W45806   5.517  13.254  13.341  0.1312  0.1669 -0.0056
28960W        W45807  14.207   1.761  11.679 -0.1570  0.2492 -0.0298
28961W        W45808   1.097  18.783  13.699 -0.0686  0.2677 -0.1295
28962W        W45809  18.037  19.673  12.726 -0.0520  0.0416  0.2605
28963W        W45810  17.128  18.965   3.932 -0.2030 -0.1120  0.0420
28964W        W45811   5.946   5.597   4.452 -0.2716  0.2804 -0.1470
28965W        W45812   3.265  16.142   0.452  0.2480 -0.0956  0.1642
28966W        W45813   0.425  17.141   4.779 -0.0062 -0.0505  0.2399
28967W        W45814  16.030   0.054   1.749  0.0967 -0.0797  0.3672
28968W        W45815   2.651   6.642  10.746 -0.0323  0.0638  0.2263
28969W        W45816   9.620  11.926   0.810  0.1013 -0.3608  0.1764
28970W        W45817  16.389  12.003  10.054  0.1029 -0.1229  0.1169
28971W        W45818  16.218   8.432  11.268  0.0625 -0.1637  0.0712
28972W        W45819   3.970  13.814   3.836  0.2295 -0.0197 -0.1053
28973W        W45820  16.775   8.179   1.546 -0.0337 -0.1573  0.0955
28974W        W45821  12.522   8.100  11.997 -0.0675 -0.4108 -0.2090
28975W        W45822  11.032  15.066  13.064 -0.0038  0.2179  0.1811
28976W        W45823   5.031   6.104   2.046  0.2225  0.0325 -0.1084
28977W        W45824   8.653  18.488   5.023  0.0400  0.2109 -0.0657
28978W        W45825  15.667  15.093   1.499 -0.1126 -0.2145 -0.1726
28979W        W45826   3.953   6.598   3.932 -0.0132  0.1533 -0.1451
28980W        W45827   6.503  12.917   5.527 -0.3275  0.2583 -0.1962
28981W        W45828   4.050   2.591   2.573 -0.0219  0.1037 -0.0523
28982W        W45829   7.194   8.431  12.431 -0.2665 -0.0864  0.3216
28983W        W45830   8.669  19.401   3.530  0.0545  0.0321  0.4368
28984W        W45831  15.320   9.541   1.733 -0.2546  0.2213  0.1654
28985W        W45832  10.342  11.698   3.452  0.1786 -0.0437  0.2472
28986W        W45833  17.325  17.199   0.235 -0.1702 -0.1612  0.1284
28987W        W45834  19.160  12.257   1.711 -0.2323 -0.0022  0.0882
28988W        W45835  16.579   0.198  11.696  0.2655 -0.0323 -0.1381
28989W        W45836   3.243   0.214  12.409 -0.0106  0.1423  0.0873
28990W        W45837  16.824  11.255   0.114  0.1410  0.0905  0.1685
28991W        W45838   8.053  14.582  12.194 -0.0692  0.0094  0.0470
28992W        W45839   7.627   9.123  12.719 -0.1361 -0.1925  0.1645
28993W        W45840   5.882  12.049   0.047 -0.0820  0.0876 -0.3916
28994W        W45841   6.576   2.553   4.403  0.1687  0.0279 -0.2040
28995W        W45842  10.426   8.531   1.813 -0.1362  0.1787  0.2081
28996W        W45843  13.135  12.544   3.720 -0.0737  0.0310  0.0186
28997W        W45844  12.791  19.725   2.183  0.0920 -0.1081 -0.0860
28998W        W45845   9.416   8.016  11.711  0.2210  0.4099  0.0146
28999W        W45846   5.213   2.814  10.750 -0.0902 -0.0348 -0.1632
29000W        W45847  15.051  18.223  12.109  0.0361 -0.2182  0.1272
29001W        W45848  16.413  18.276   0.686  0.0606  0.5239 -0.0628
29002W        W45849  10.802  11.676   3.083  0.3395 -0.0054  0.2775
29003W        W45850  11.597   6.807   1.798  0.3807 -0.1979 -0.0241
29004W        W45851  11.444  13.021   4.630  0.3159 -0.3595 -0.2878
29005W        W45852  13.629  14.452  14.186  0.1311 -0.1987 -0.1024
29006W        W45853   4.366   2.986   2.636  0.1254  0.0133 -0.0514
29007W        W45854   3.017   7.997   2.171 -0.1092 -0.1524 -0.2024
29008W        W45855  15.166   1.890   0.823 -0.0223 -0.2157 -0.0883
29009W        W45856   8.347  17.521   3.174 -0.0160 -0.4434  0.2669
29010W        W45857   7.060   2.368   3.491  0.0894  0.2976  0.0781
29011W        W45858  10.649  17.110   1.778  0.4697  0.1725 -0.0425
29012W        W45859  10.010   5.617   4.465 -0.2659  0.2123  0.2168
29013W        W45860  15.554   7.514  11.038 -0.2025  0.1532 -0.0696
29014W        W45861  11.483   7.576   2.967  0.2258  0.2389  0.2514
29015W        W45862  16.518  19.790   4.895 -0.0629  0.0075 -0.1117
29016W        W45863   0.968   8.100   4.721  0.2190 -0.0248  0.0340
29017W        W45864   0.001  15.083  13.223 -0.2467  0.1190 -0.0597
29018W        W45865  17.895  16.908   0.152 -0.3298  0.1276 -0.2012
29019W        W45866   1.298   1.223  11.497  0.0811 -0.0631  0.0575
29020W        W45867   2.985   7.442  11.170  0.1834  0.1334  0.3395
29021W        W45868   6.548  17.855   9.290 -0.2752 -0.0098  0.0814
29022W        W45869  16.958   2.420  13.463  0.3753  0.3224 -0.1664
29023W        W45870   4.774   7.690   0.606 -0.2556 -0.1190 -0.2059
29024W        W45871   0.672  18.172  11.626 -0.3785 -0.0524  0.0423
29025W        W45872  12.592  16.080  10.624 -0.2777  0.1318  0.2354
29026W        W45873   1.486   3.461  10.491  0.2363  0.1312  0.2395
29027W        W45874   7.043   4.572  14.342 -0.0193  0.0795 -0.0524
29028W        W45875  11.443   4.234  11.119  0.2844  0.1877  0.2028
29029W        W45876   3.520   4.280   3.662 -0.2668 -0.0652  0.0324
29030W        W45877   0.370   5.600   0.731 -0.1314 -0.3275 -0.1816
29031W        W45878   9.730  16.377   2.384  0.2221  0.0941  0.0876
29032W        W45879   2.295   2.147   1.158 -0.0490  0.2299  0.3455
29033W        W45880  11.251   2.146  10.993  0.3592  0.2245  0.0889
29034W        W45881  11.578  17.912  12.660 -0.3452  0.1496 -0.0030
29035W        W45882   3.191   8.982   3.410  0.3141 -0.0334  0.0301
29036W        W45883  12.328   6.956  11.829  0.2914  0.1597  0.0394
29037W        W45884  12.893   5.547  13.403 -0.2413 -0.1705 -0.0057
29038W        W45885  18.306  19.421  12.039 -0.2708  0.0432  0.0676
29039W        W45886  10.021  15.096   1.564 -0.1931  0.1264 -0.2427
29040W        W45887  19.785  14.694   0.644  0.0372  0.1155  0.5114
29041W        W45888   9.031   2.120  10.828 -0.1243  0.1448  0.2641
29042W        W45889  10.316   8.464   0.428 -0.1467  0.3193  0.4921
29043W        W45890  13.688   6.102   0.197 -0.1729  0.0924 -0.0579
29044W        W45891   6.785  10.746  11.896 -0.2257 -0.0330  0.1715
29045W        W45892  17.707   4.415   2.345  0.0996 -0.1871 -0.0145
29046W        W45893   2.197  16.879   0.440 -0.0499 -0.5966  0.0349
29047W        W45894  18.961  16.371  13.580 -0.0670  0.2751  0.1988
29048W        W45895   8.548   3.790   4.282 -0.1448 -0.2853 -0.1419
29049W        W45896   2.058   6.537   4.894  0.1609  0.1232  0.0243
29050W        W45897  15.026   6.522  13.302  0.1618  0.2016 -0.0022
29051W        W45898   0.076   7.017   0.949 -0.2987 -0.2455  0.0976
29052W        W45899   1.776   7.913  10.069 -0.0843 -0.2618 -0.0351
29053W        W45900  13.947  12.951   4.300 -0.1267 -0.1051  0.1502
29054W        W45901   8.935  16.355  13.927 -0.0920  0.0114 -0.2447
29055W        W45902   0.993  13.456   4.710 -0.3055 -0.0001  0.2910
29056W        W45903   1.783  16.056   0.649  0.0891  0.5005 -0.1520
29057W        W45904  17.095   9.349   0.700 -0.2890  0.0372 -0.1564
29058W        W45905  13.674   3.097   0.024 -0.1448 -0.0622  0.2711
29059W        W45906  10.799   5.979  11.547  0.1111  0.2525 -0.4307
29060W        W45907   0.476   9.532  11.192  0.0843 -0.2172 -0.3964
29061W        W45908   5.242   6.906   3.335 -0.1088  0.0529  0.1881
29062W        W45909   6.739  14.128   4.499  0.1461 -0.2344 -0.0665
29063W        W45910  12.570   3.633  11.273  0.1067 -0.0145  0.2678
29064W        W45911  18.383   3.269   1.518  0.0715  0.4145 -0.0074
29065W        W45912   6.486  19.175   1.632  0.0391  0.2896 -0.2131
29066W        W45913   7.138  12.096   3.245  0.2653 -0.0990  0.2502
29067W        W45914   9.876   5.563   3.598  0.1998  0.2030  0.0871
29068W        W45915  15.203   4.256  12.875  0.0518 -0.0112  0.0454
29069W        W45916  16.511  11.559  13.456  0.0318  0.0484  0.1183
29070W        W45917   1.835   0.846  10.129 -0.4334  0.0372 -0.1027
29071W        W45918   8.332   0.893   1.630  0.2823 -0.0512 -0.0571
29072W        W45919   1.930   4.932   1.776 -0.1560  0.3502 -0.4437
29073W        W45920   3.586  17.244   9.396  0.2853  0.0931  0.0675
29074W        W45921   1.557  11.849   3.500  0.2317  0.1937 -0.0143
29075W        W45922   8.914  18.077   1.661  0.2974 -0.3137  0.1142
29076W        W45923   6.990   5.774  10.597 -0.0945 -0.2336  0.0187
29077W        W45924   1.725  11.708   1.808 -0.3221  0.0894 -0.0645
29078W        W45925  15.932  18.545   9.230 -0.0261  0.3184  0.2139
29079W        W45926   6.005   3.493  10.772  0.0607 -0.2514  0.0584
29080W        W45927   1.385  12.557  13.648  0.0978 -0.1704  0.2247
29081W        W45928  17.637  16.430  11.026  0.1255 -0.0581  0.0952
29082W        W45929   3.163  14.585   0.419  0.4228  0.1042 -0.2974
29083W        W45930   1.306   4.500   3.434 -0.0366 -0.4549 -0.1721
29084W        W45931   4.996   9.266   2.263  0.2816  0.5346 -0.0891
29085W        W45932  15.510  16.906   1.174 -0.0597  0.5328 -0.0122
29086W        W45933  14.416  17.056   4.321 -0.4315 -0.2112  0.0693
29087W        W45934   1.124   6.765   2.471  0.0847  0.2363 -0.3339
29088W        W45935  12.893   5.933  10.557 -0.1312  0.0477 -0.2756
29089W        W45936  15.723   1.789  13.973 -0.0150 -0.0395  0.0405
29090W        W45937   4.307  10.164   3.286  0.1222 -0.1200 -0.3389
29091W        W45938   0.426   3.969   0.455 -0.0700  0.1079  0.2495
29092W        W45939  15.016  14.462   1.042 -0.1267 -0.1876  0.0849
29093W        W45940   1.243   5.609  13.007 -0.0698  0.0813 -0.2195
29094W        W45941  16.473  17.324  10.808  0.1322  0.2672 -0.1959
29095W        W45942   5.180  13.823  14.171 -0.0688 -0.1421 -0.3798
29096W        W45943  18.312  11.976  10.567 -0.1641 -0.4397 -0.1795
29097W        W45944  18.534   3.658   3.994  0.1582  0.0270  0.2785
29098W        W45945  10.172  19.408   3.986 -0.2241 -0.1771  0.4619
29099W        W45946   1.521  17.655  11.321 -0.1623  0.1154 -0.2249
29100W        W45947   6.877  19.681   2.999 -0.0766  0.0207 -0.0087
29101W        W45948   2.757  14.054  11.794  0.1489  0.1865  0.2558
29102W        W45949  14.787   0.328   2.140 -0.2413  0.0595 -0.0195
29103W        W45950   2.131  11.585   1.373 -0.1245  0.0796  0.1385
29104W        W45951  19.853  11.998  12.386 -0.0694  0.2967 -0.0046
29105W        W45952  12.494   5.896   2.470  0.1845  0.0444  0.2048
29106W        W45953  12.894  12.627  10.064 -0.2603  0.2139 -0.4578
29107W        W45954  18.025  13.091   2.129 -0.1451  0.0634 -0.2834
29108W        W45955   9.282   1.227   4.462  0.3052 -0.2683 -0.1142
29109W        W45956  14.712  12.153   1.804  0.0845 -0.1099 -0.0283
29110W        W45957   7.714   5.527  12.251  0.1233 -0.1924  0.3765
29111W        W45958   7.367   1.810  14.089  0.0498 -0.0217  0.2393
29112W        W45959  15.336  15.431   2.946 -0.0375  0.0749  0.2349
29113W        W45960  15.102   0.341   2.650  0.1817  0.2929 -0.0110
29114W        W45961   4.608   0.643   0.285 -0.1729 -0.0347 -0.1268
29115W        W45962  16.186   5.171   9.352 -0.0020  0.2091 -0.1523
29116W        W45963  10.279   3.191   1.993  0.0147 -0.1520 -0.2770
29117W        W45964   7.586   6.697  11.514  0.1093 -0.1497  0.3679
29118W        W45965   2.772   1.686   0.396 -0.4004 -0.0506 -0.0310
29119W        W45966  15.228   9.289   9.969  0.0487  0.0706  0.0990
29120W        W45967   5.097  18.428   3.940 -0.0784  0.2149 -0.3476
29121W        W45968  13.736  15.323   2.792  0.0778 -0.2081 -0.1132
29122W        W45969   2.397   2.927   2.786  0.1277  0.0603  0.1157
29123W        W45970   1.287   9.315  11.249  0.2329 -0.3178  0.0236
29124W        W45971  14.337  16.877   4.977 -0.1494 -0.1115  0.2846
29125W        W45972  11.747  17.048   2.957 -0.2809  0.0507  0.2423
29126W        W45973  13.781  13.344   4.707  0.1886  0.2008  0.1371
29127W        W45974   5.652   0.676  13.408 -0.2250 -0.0263  0.2219
29128W        W45975   2.459  17.371   2.790 -0.0122 -0.0856 -0.2584
29129W        W45976   5.076  12.934   0.238 -0.1768  0.0323 -0.3645
29130W        W45977  12.564   1.643   9.823 -0.1820  0.4396 -0.1512
29131W        W45978   6.987   0.104  13.839 -0.0774 -0.2086  0.2061
29132W        W45979   2.451  13.273  10.681 -0.1861  0.2344  0.0265
29133W        W45980  10.756  16.944   3.825  0.0999  0.1398  0.1691
29134W        W45981  19.670  19.319  12.591  0.1581  0.1328  0.1206
29135W        W45982   7.189   0.059   1.915 -0.2691  0.0745 -0.2107
29136W        W45983  16.137   3.341   1.785  0.0072 -0.3941  0.2182
29137W        W45984  15.434  11.554  13.393 -0.2959 -0.0606  0.3039
29138W        W45985  11.238  16.674   0.948 -0.5199 -0.0772  0.2479
29139W        W45986  16.122  15.615   0.169  0.1491  0.1031  0.0111
29140W        W45987   2.459  16.791  10.853 -0.2048  0.1870  0.2860
29141W        W45988   7.376  15.187  11.950 -0.1006 -0.2715 -0.2431
29142W        W45989   6.596  15.566  14.003 -0.0890  0.0785  0.1745
29143W        W45990  19.393  19.369  13.004 -0.2041 -0.1791  0.2774
29144W        W45991   6.634   1.971  13.768 -0.0857  0.1834  0.2374
29145W        W45992  16.342  18.899   0.290 -0.1248  0.0424  0.1417
29146W        W45993  17.885  11.031   4.108  0.0829  0.2135 -0.1001
29147W        W45994  18.838   6.390   3.077 -0.2532  0.3833 -0.1039
29148W        W45995  15.761  15.033  11.830 -0.2429  0.4077 -0.0617
29149W        W45996   0.266   3.377   2.407 -0.1554 -0.0721 -0.2900
29150W        W45997  19.745  19.723  12.261  0.0164 -0.0936  0.0369
29151W        W45998  14.660   8.094   0.973  0.1783  0.0090 -0.0660
29152W        W45999   0.127  17.402  13.676  0.1749 -0.1437 -0.1100
29153W        W46000   4.966  19.213   1.453 -0.1680  0.0714  0.0182
29154W        W46001  17.221   7.224   1.211  0.0882  0.2070 -0.3314
29155W        W46002   9.386   0.551  10.651 -0.2450  0.0885  0.0934
29156W        W46003   9.107  11.820   1.511 -0.0074  0.1860  0.1880
29157W        W46004   6.740  12.350   1.169 -0.0140  0.0418  0.1994
29158W        W46005  12.762   3.427  12.213  0.2847 -0.2943  0.1118
29159W        W46006  13.529  19.571  12.621 -0.0541  0.2202 -0.0698
29160W        W46007  11.683   3.423   0.256 -0.1480 -0.2487  0.0037
29161W        W46008   9.882   1.626  13.175 -0.1743 -0.0009  0.5458
29162W        W46009  18.287  13.545   0.242 -0.1144 -0.0491 -0.0292
29163W        W46010   4.856   9.899  11.726 -0.1310  0.2683  0.0139
29164W        W46011   3.515  19.119   3.277 -0.2008  0.1318  0.1978
29165W        W46012  10.637  19.649  13.631 -0.3628  0.0766 -0.0137
29166W        W46013   1.404  15.725  12.483 -0.3030 -0.2334 -0.3116
29167W        W46014  12.438  12.484  12.370 -0.1983  0.0112 -0.1261
29168W        W46015   0.007  19.280   3.333 -0.0422  0.0833  0.1704
29169W        W46016   1.659   6.017   9.943 -0.1211  0.1219 -0.0161
29170W        W46017  13.016  18.469   1.827  0.2645  0.3029  0.5806
29171W        W46018  16.395  13.008   2.700  0.1892 -0.1571 -0.0299
29172W        W46019   5.658   5.824   3.701  0.1473  0.1387 -0.1560
29173W        W46020  19.164  14.341   2.404  0.1450 -0.1146  0.2381
29174W        W46021   3.883  12.168  13.044 -0.2256  0.1873 -0.2927
29175W        W46022   1.618  17.438  13.227 -0.0475 -0.0790  0.3295
29176W        W46023   3.809  15.562  10.868  0.3104  0.1118 -0.0306
29177W        W46024  10.992   9.819   1.134 -0.0498 -0.2599  0.0104
29178W        W46025  10.375  19.696   1.072 -0.2445 -0.2138 -0.0075
29179W        W46026   4.968  13.377  10.762  0.0642  0.0568 -0.1153
29180W        W46027  14.160  13.468   3.386  0.0905  0.2190  0.0209
29181W        W46028  12.550   5.473  10.680  0.1462 -0.1529 -0.0174
29182W        W46029  13.276   5.170  14.046  0.1316 -0.0095  0.0096
29183W        W46030  16.124   1.041   3.409  0.0106  0.0752  0.2901
29184W        W46031  14.026   7.095  12.588 -0.0117  0.2883 -0.1575
29185W        W46032   0.684   2.438  10.658 -0.0397 -0.0341 -0.0507
29186W        W46033  19.399  11.847   2.659 -0.1485 -0.2238 -0.1569
29187W        W46034  14.615   3.200  10.305 -0.0241  0.4611 -0.0741
29188W        W46035  19.700  19.803  12.804 -0.1152 -0.3089  0.0860
29189W        W46036  16.308  15.427  12.156  0.1368 -0.0457  0.0818
29190W        W46037  14.695  12.973   0.889  0.0178 -0.0260  0.0334
29191W        W46038   0.963  10.661  10.698  0.2000  0.1649 -0.1382
29192W        W46039  11.697  15.725   0.430 -0.2130 -0.3011 -0.1741
29193W        W46040  14.282  15.867   3.978  0.3013  0.3857  0.0477
29194W        W46041  18.445   1.444   5.401  0.0182  0.0298 -0.0830
29195W        W46042  11.956  13.967  11.690  0.0995 -0.4020 -0.1127
29196W        W46043   0.981  15.195  12.051  0.3716  0.3224 -0.0658
29197W        W46044   5.119  14.534  11.014 -0.2980 -0.2452 -0.0082
29198W        W46045  15.358   5.125   2.454  0.0325 -0.2012  0.0126
29199W        W46046   4.067  16.097  11.515  0.1786  0.1578 -0.3784
29200W        W46047  12.917   5.223   9.830  0.1732 -0.0592 -0.1496
29201W        W46048  15.743  15.219  10.738  0.1916  0.4503 -0.1177
29202W        W46049   8.687   5.642  12.124 -0.0096 -0.1807 -0.2886
29203W        W46050   8.921   5.506  10.462 -0.3355  0.0333  0.2649
29204W        W46051  17.803  15.618  12.089 -0.0735  0.0942 -0.0127
29205W        W46052  19.728  19.247   9.362  0.4262 -0.2120 -0.0498
29206W        W46053  12.660  12.562  11.877 -0.1970  0.0604  0.0140
29207W        W46054  12.765   0.435  13.554  0.1400 -0.2696  0.2777
29208W        W46055  14.836  14.968   0.180 -0.0404 -0.2275 -0.0519
29209W        W46056   3.711   3.292   1.881 -0.1025 -0.1228 -0.1122
29210W        W46057  17.150   8.218  12.099 -0.0054 -0.2769 -0.0186
29211W        W46058  10.100   8.639  10.552 -0.0575 -0.1481 -0.1500
29212W        W46059  10.158   0.147  12.307 -0.2164  0.0295  0.0362
29213W        W46060  18.090  10.077  10.678  0.0154 -0.3267 -0.0345
29214W        W46061   1.735   7.551   4.626  0.0647  0.2205 -0.0862
29215W        W46062  17.818   9.594  13.848 -0.0402 -0.0488  0.2322
29216W        W46063   7.590  18.638   3.538 -0.0838 -0.3040  0.1592
29217W        W46064  10.229   9.582   5.370  0.0406 -0.0675 -0.0237
29218W        W46065  18.427   4.446  10.364  0.3137 -0.0316  0.0530
29219W        W46066   8.887  10.561   2.168  0.2622 -0.1626 -0.2169
29220W        W46067  14.212  15.738  13.972 -0.0952 -0.0596 -0.4346
29221W        W46068  19.258   1.477  12.698  0.0077  0.1122 -0.0365
29222W        W46069  19.562   5.946   2.581 -0.1361 -0.0600 -0.0020
29223W        W46070   7.788   7.617   3.865  0.1171  0.2835  0.0376
29224W        W46071   8.190  18.953   2.063  0.0321 -0.1066  0.1428
29225W        W46072   4.779  19.655   2.195 -0.0085 -0.0669 -0.1983
29226W        W46073   2.787  15.512   4.523 -0.2423 -0.0235 -0.2077
29227W        W46074   8.127  12.001   2.354  0.3810 -0.1589  0.0531
29228W        W46075  18.512  15.241  11.438 -0.1824  0.3178 -0.0329
29229W        W46076  11.489   6.517  12.001 -0.2673 -0.1616 -0.0339
29230W        W46077  12.498   4.952  10.746 -0.3921 -0.3746  0.3480
29231W        W46078  19.705   7.333   2.234  0.0008 -0.1232 -0.1216
29232W        W46079  12.663   9.333  10.261  0.0256 -0.2522  0.2130
29233W        W46080   6.896  12.977   2.817  0.4001  0.0216  0.1502
29234W        W46081  13.797  10.047   2.374 -0.2958  0.0689  0.4510
29235W        W46082   7.083  19.484   2.131 -0.1605  0.0851  0.3115
29236W        W46083   3.371   2.122  12.212  0.0336  0.3515  0.1045
29237W        W46084   3.554  18.178   1.733  0.3226 -0.1691  0.1626
29238W        W46085  17.643   8.787  11.553  0.1162 -0.3832  0.0131
29239W        W46086  15.244  17.228   0.225 -0.1109 -0.0067  0.1863
29240W        W46087  17.190  15.718   1.848 -0.0044 -0.0868  0.3722
29241W        W46088  14.247  12.396  13.975  0.1633  0.2014 -0.2124
29242W        W46089   9.458  17.515   4.228 -0.1501 -0.2532  0.3830
29243W        W46090   4.408  12.787  11.757  0.2127  0.0721  0.0160
29244W        W46091  18.571  14.301  12.002  0.2521  0.0146 -0.3618
29245W        W46092   2.744   0.982   5.017 -0.1727 -0.0833 -0.1718
29246W        W46093   8.992  12.301  11.250 -0.2710 -0.2406 -0.1039
29247W        W46094  12.220   0.087  11.206  0.0662 -0.1229  0.1662
29248W        W46095  15.038   1.707   4.422 -0.3032 -0.1171  0.0100
29249W        W46096   9.756  19.254  11.443 -0.3130  0.0830 -0.0089
29250W        W46097  16.610   6.038  10.745 -0.0324  0.0531 -0.1701
29251W        W46098  19.195   0.381   0.768 -0.1576 -0.3354 -0.2409
29252W        W46099  10.586  13.513   3.909  0.2498 -0.2088 -0.2313
29253W        W46100  18.956  10.279   2.357 -0.0781  0.1634 -0.1372
29254W        W46101   9.029   8.801  10.573 -0.2203 -0.1230 -0.1246
29255W        W46102  19.475  11.589  11.311 -0.0601  0.2530  0.0497
29256W        W46103   6.784  12.587  13.558  0.0049  0.1261 -0.0393
29257W        W46104  18.656  15.744   0.372  0.2057 -0.0327  0.0247
29258W        W46105   9.481  14.388   4.709 -0.0693  0.0716 -0.1376
29259W        W46106   1.653  11.451   2.801  0.1686  0.1311 -0.1415
29260W        W46107   9.925  16.109   1.417  0.0066  0.3674 -0.2211
29261W        W46108   9.895  10.458  12.410  0.0620 -0.0102  0.0312
29262W        W46109  13.958   6.669   4.302 -0.1344 -0.1338  0.0554
29263W        W46110   1.743  13.438  13.876  0.3007  0.1061 -0.1175
29264W        W46111   3.132  11.913  12.244  0.0317 -0.2711  0.2211
29265W        W46112   8.424   0.746   3.817 -0.2507  0.0563  0.1298
29266W        W46113   8.134  11.288   1.178  0.0279  0.1018 -0.2660
29267W        W46114   9.223   9.940   4.417 -0.1119  0.0666 -0.2163
29268W        W46115   9.379  16.953  12.020  0.0659  0.4066 -0.3156
29269W        W46116  18.827   3.023   0.619  0.2626  0.0011  0.3243
29270W        W46117  12.693  10.962  10.918 -0.2145  0.2507  0.1273
29271W        W46118   0.048  14.213   1.949  0.0658  0.0091 -0.1548
29272W        W46119   1.360   9.846   4.943 -0.3698 -0.0831  0.4778
29273W        W46120   0.807   1.219  11.534  0.1691 -0.0835 -0.0427
29274W        W46121   2.469  11.801  11.363  0.1991  0.1495 -0.3584
29275W        W46122  18.599   5.730  11.703 -0.2523  0.1302 -0.0602
29276W        W46123  18.519  18.725  13.111  0.1561 -0.3245  0.0589
29277W        W46124  11.178  15.342  12.698  0.3103 -0.2306 -0.0766
29278W        W46125  17.041   4.889  13.346  0.0562  0.1875 -0.0696
29279W        W46126  19.059   7.931   2.470 -0.1008 -0.1170  0.0269
29280W        W46127   0.513   4.670  14.139  0.0968  0.1818  0.2741
29281W        W46128   9.618   8.702   3.919 -0.0833  0.1091  0.2994
29282W        W46129   7.194  16.390  13.579 -0.0193 -0.2886  0.0035
29283W        W46130  13.570  11.957   0.940  0.0822  0.1127 -0.0090
29284W        W46131  18.741  13.309   0.954 -0.1558  0.2648 -0.0391
29285W        W46132   8.684   2.377   1.018  0.0323  0.0353 -0.1894
29286W        W46133   7.372   2.529   5.434  0.1051 -0.3154  0.2186
29287W        W46134   8.235  11.130   0.427 -0.0888  0.0293 -0.0495
29288W        W46135  18.616  11.948   3.873  0.1540  0.0473 -0.5211
29289W        W46136   4.293   5.820  10.725 -0.0546 -0.0585 -0.1117
29290W        W46137  15.037   9.505  13.700 -0.1309  0.0026 -0.3749
29291W        W46138  15.641  12.014  12.732  0.1445  0.2250  0.1964
29292W        W46139   6.875  17.979   4.736 -0.0460 -0.0883  0.0804
29293W        W46140  16.758  11.916  13.764 -0.2731  0.1082 -0.2855
29294W        W46141  11.583  18.562  11.191 -0.1498 -0.3180 -0.2183
29295W        W46142  15.207  19.682  14.291  0.1589 -0.0686 -0.1279
29296W        W46143  14.898  13.021   0.035 -0.0291  0.1868 -0.1853
29297W        W46144  13.065  13.876  13.774 -0.2403 -0.4788  0.0498
29298W        W46145  14.675   2.320   0.551 -0.0405  0.1198 -0.0705
29299W        W46146  19.193  13.467   1.853 -0.0391 -0.2637 -0.1671
29300W        W46147  12.897  17.455  12.191 -0.2619  0.2080 -0.2064
29301W        W46148  15.618   5.253   1.605 -0.1995 -0.2111 -0.2306
29302W        W46149   5.094   8.319  11.353 -0.2702  0.0014  0.1176
29303W        W46150   3.472  16.327   3.167 -0.1959  0.1083 -0.0901
29304W        W46151  16.358  10.382   0.289 -0.2622 -0.2993 -0.2939
29305W        W46152  16.277   2.818   3.223 -0.3246  0.3198 -0.0149
29306W        W46153   6.770  13.938   2.623 -0.1069  0.2651 -0.0436
29307W        W46154  18.832  16.937   2.668 -0.3310  0.2307  0.0169
29308W        W46155  15.730  10.559   2.631 -0.3468 -0.1774  0.2129
29309W        W46156  18.196   9.611   3.193  0.1084  0.1294 -0.2195
29310W        W46157  12.042   7.502   2.667 -0.2504  0.1154 -0.1109
29311W        W46158   6.049   0.312   0.558  0.2076  0.0038  0.3322
29312W        W46159  15.367   5.172   0.503 -0.0294 -0.1202 -0.0189
29313W        W46160  16.334   9.094   2.632 -0.0435 -0.2933 -0.2958
29314W        W46161  18.174  10.127  13.562 -0.2076  0.0502  0.2024
29315W        W46162   5.813   4.356  13.747 -0.3629  0.1442 -0.0710
29316W        W46163  18.854  10.405  12.622 -0.0913  0.0542 -0.4351
29317W        W46164   0.078  17.493  11.810 -0.1717 -0.1941 -0.0919
29318W        W46165  17.372  18.739   4.348 -0.0919 -0.2048 -0.0000
29319W        W46166   7.754  18.150   2.115 -0.0302  0.2534  0.0569
29320W        W46167  18.508  18.934  12.221 -0.0283 -0.0768 -0.1306
29321W        W46168   2.262  13.903   4.105  0.2882 -0.0049 -0.1988
29322W        W46169  19.156  19.567   0.156 -0.0089 -0.0242 -0.0173
29323W        W46170  10.337  18.499   2.647  0.1491  0.0915  0.1142
29324W        W46171   7.933   1.199   9.783  0.0480  0.1039 -0.1320
29325W        W46172  12.003  12.202  12.600 -0.1636 -0.0916 -0.0865
29326W        W46173  18.315   0.365   2.569  0.1536  0.1238  0.1084
29327W        W46174   2.282   8.855  11.601  0.1285  0.3331  0.1918
29328W        W46175   8.372   0.919   3.159  0.2014 -0.0820  0.2892
29329W        W46176   0.000  10.278  13.928 -0.0444 -0.1165 -0.0542
29330W        W46177   2.949  19.314   0.797  0.0295 -0.3347 -0.1464
29331W        W46178   5.250   3.344   2.275 -0.0568 -0.0880 -0.1031
29332W        W46179  15.189  14.355  11.364  0.1346 -0.0098 -0.0973
29333W        W46180   5.557  13.641  12.586 -0.1105 -0.1985 -0.2076
29334W        W46181  13.093  11.696  10.304  0.2725 -0.2361 -0.1750
29335W        W46182  16.601  10.595   2.962 -0.3344  0.1020  0.1632
29336W        W46183   2.808   9.379   4.163  0.4467 -0.0239  0.0642
29337W        W46184   9.709  13.206   2.663 -0.1140 -0.2021 -0.0743
29338W        W46185  18.407  17.131   4.591  0.0020 -0.1175 -0.2098
29339W        W46186  18.118   2.384   2.374  0.0785  0.0515  0.0671
29340W        W46187   5.214   4.602   5.489  0.1479 -0.3114 -0.0467
29341W        W46188   0.136  11.024   4.314  0.2384  0.0164 -0.0406
29342W        W46189  11.236  17.497   0.080  0.4394 -0.0183  0.0621
29343W        W46190   1.721   9.307  12.147 -0.2494 -0.3309  0.2501
29344W        W46191  12.102  15.518  10.515 -0.1523  0.2409  0.2158
29345W        W46192   9.212   1.868   0.198  0.3079 -0.0164 -0.5039
29346W        W46193  10.778  18.108   4.928  0.2304 -0.2478 -0.1911
29347W        W46194  15.372   1.545   1.928 -0.0679  0.3354 -0.1185
29348W        W46195   5.249   7.962  10.941  0.1386 -0.4038  0.4198
29349W        W46196  15.160   7.224  12.578  0.3454 -0.2562 -0.0046
29350W        W46197   2.732   1.383   4.611  0.1197  0.2036 -0.2954
29351W        W46198  11.511   1.819  13.365  0.1187 -0.0202 -0.5119
29352W        W46199   8.769   9.692  14.179  0.2950  0.0619  0.1216
29353W        W46200   4.960  15.377   2.875  0.1046  0.3656 -0.2315
29354W        W46201   5.847  16.607  12.201 -0.6811 -0.1905  0.1050
29355W        W46202   7.622   3.039   0.683 -0.0937 -0.2339 -0.1288
29356W        W46203  16.488  17.373   1.273  0.0006  0.3585 -0.3647
29357W        W46204   1.807   6.506   3.429  0.1820  0.0731  0.1205
29358W        W46205   6.012  12.014   2.653  0.2194  0.0536 -0.3770
29359W        W46206   6.113  14.456   2.675  0.3312  0.0305  0.0889
29360W        W46207   6.552   1.091   3.749 -0.0533  0.0959  0.0425
29361W        W46208   3.512   5.635  14.140  0.0897  0.4904  0.0761
29362W        W46209   5.767  17.015   0.860  0.2799 -0.2258 -0.0182
29363W        W46210  14.894   1.679   3.494  0.3227 -0.0590  0.0345
29364W        W46211  12.601   1.960   1.114 -0.0635 -0.1461  0.1353
29365W        W46212   9.924   6.427   3.319 -0.1771  0.2715  0.2990
29366W        W46213  15.360  17.662   5.455  0.1683 -0.1972 -0.3489
29367W        W46214   7.467   4.546   2.329 -0.2163 -0.1404 -0.1603
29368W        W46215  14.301  16.327  14.001 -0.0007 -0.1589 -0.2433
29369W        W46216  12.836  16.987   2.807 -0.0464 -0.1505 -0.0482
29370W        W46217  12.576   1.882   3.171  0.1922 -0.1593  0.1048
29371W        W46218  19.534   6.723  11.077 -0.3052 -0.1924  0.1350
29372W        W46219  13.844   9.308  11.437 -0.3839 -0.0984  0.2235
29373W        W46220  19.863   0.463  13.913  0.1639 -0.0052 -0.0764
29374W        W46221  13.076  10.263   0.650  0.3392  0.2909  0.0808
29375W        W46222   5.237  14.824  14.012 -0.1543  0.2988 -0.2789
29376W        W46223  12.660  14.080  13.322 -0.2416  0.0587  0.1859
29377W        W46224  19.265  15.133  10.904  0.0658 -0.4624 -0.3466
29378W        W46225   5.945  18.926  11.287  0.2577 -0.0573 -0.0430
29379W        W46226   8.469  15.282  13.388  0.1546  0.0711 -0.0246
29380W        W46227  11.314  10.676  14.259  0.1023 -0.1740 -0.0146
29381W        W46228  16.699   3.474   4.093  0.2057 -0.2404 -0.2856
29382W        W46229  15.272  10.118   4.858 -0.0244  0.3706  0.2312
29383W        W46230   4.547   2.598   2.411 -0.2841  0.3317  0.1864
29384W        W46231   0.463  13.233  14.181 -0.0124  0.0948  0.0688
29385W        W46232  11.809  18.044   4.677  0.1024 -0.0654  0.1131
29386W        W46233  14.320  13.012  14.310 -0.0259 -0.0296 -0.3603
29387W        W46234  16.979   2.839   2.790 -0.2977 -0.0661  0.0902
29388W        W46235   4.286  15.930  12.870 -0.1975  0.1812  0.0987
29389W        W46236  14.680   2.347  11.957  0.0644 -0.0810 -0.3021
29390W        W46237  18.507   6.675   5.254  0.1648 -0.3531  0.0623
29391W        W46238   6.425  11.686   2.706  0.3285  0.3534 -0.6569
29392W        W46239   6.624   1.159  11.876 -0.0585 -0.1674 -0.0096
29393W        W46240  14.963   7.158  13.976  0.0684  0.0085  0.2268
29394W        W46241  19.518   0.842  13.498  0.0522 -0.3018  0.1511
29395W        W46242   1.325   2.005  13.076 -0.0045  0.0040  0.2802
29396W        W46243   7.028  14.488   4.110 -0.1372 -0.2263 -0.0694
29397W        W46244  13.605   0.675  11.791 -0.3542 -0.1476 -0.1395
29398W        W46245  17.733   0.984  13.825  0.2625 -0.1717  0.1748
29399W        W46246  10.920   1.693  11.815  0.1183 -0.2436  0.2287
29400W        W46247   4.255   9.639   3.420 -0.0278  0.0477 -0.0932
29401W        W46248  17.535  14.981   0.335 -0.0362  0.0725  0.1694
29402W        W46249   0.769  10.793  11.520  0.5294 -0.0332 -0.3513
29403W        W46250   3.176   1.762   2.917  0.1191  0.0770 -0.0539
29404W        W46251   4.332  12.513   0.365  0.1142  0.2075 -0.0356
29405W        W46252   5.138   7.689  10.542  0.1990 -0.1481 -0.5366
29406W        W46253   0.159   0.084   3.945 -0.0638  0.1292 -0.1097
29407W        W46254  18.640  13.526  10.788 -0.1033 -0.0753  0.2948
29408W        W46255   5.793  17.295   4.987 -0.0976 -0.0259  0.1035
29409W        W46256  10.642  10.155   1.038 -0.2749  0.0395 -0.1804
29410W        W46257   9.579  18.483  13.089 -0.3167 -0.0413 -0.0447
29411W        W46258   7.951   7.630  11.347  0.0340 -0.0081 -0.0073
29412W        W46259  13.926  18.929  12.301 -0.0457 -0.0136 -0.1200
29413W        W46260   6.763   1.082  12.455  0.1028  0.0824 -0.0405
29414W        W46261  13.422  13.023   4.509 -0.0513  0.1080  0.0886
29415W        W46262   9.295   0.419  12.965  0.0378  0.2448  0.2933
29416W        W46263   3.466  11.651   0.236  0.0408 -0.1667  0.3305
29417W        W46264   1.880   4.631  13.550 -0.0618 -0.1765  0.2821
29418W        W46265  13.991   1.534   9.844 -0.2778  0.0527  0.1893
29419W        W46266   4.130  15.382  11.973 -0.1607 -0.0157 -0.1542
29420W        W46267   9.827   6.574  10.064  0.2418  0.0405  0.0456
29421W        W46268   5.915  10.345   1.715 -0.1301 -0.1119 -0.1345
29422W        W46269  10.429  18.369   0.012 -0.0786  0.2277  0.1793
29423W        W46270   0.842  19.353  13.841  0.1371  0.4274  0.3350
29424W        W46271   8.393  18.310  12.446  0.1637 -0.1308 -0.0955
29425W        W46272  13.184   3.126   4.511 -0.1866  0.0769  0.2427
29426W        W46273  19.363   4.375  13.026  0.1097  0.0887 -0.0384
29427W        W46274  10.265  12.993   4.689 -0.0440  0.0298  0.4286
29428W        W46275  13.168   2.033  11.554 -0.0514 -0.4809 -0.1220
29429W        W46276   4.801   1.122  12.391  0.1604 -0.1345 -0.1273
29430W        W46277  15.732   4.123   0.761 -0.0380 -0.0993 -0.1352
29431W        W46278  12.205   1.052   0.219  0.3527 -0.1680  0.1818
29432W        W46279  11.949  11.807  10.442  0.2487 -0.0795 -0.3951
29433W        W46280   5.656   5.651  12.093 -0.0945 -0.0187  0.0859
29434W        W46281   4.518   0.673  10.638  0.1955  0.0443  0.1819
29435W        W46282   3.081   9.495   0.719 -0.1641  0.2597 -0.0442
29436W        W46283  12.814  11.364  10.584 -0.3124  0.1682 -0.1454
29437W        W46284   2.497   7.915   5.313  0.3802  0.1047  0.0027
29438W        W46285   9.490  19.250  12.251 -0.0364 -0.0546 -0.1668
29439W        W46286  16.001  19.401   4.250 -0.0081 -0.1734  0.0449
29440W        W46287   2.329   6.842  11.583  0.1147  0.2826 -0.0281
29441W        W46288   6.360   0.606  11.169  0.1264  0.1386  0.2156
29442W        W46289   4.696   7.509   3.386 -0.4173 -0.1285 -0.0339
29443W        W46290  11.286  11.372  12.533  0.0680  0.0005  0.1655
29444W        W46291   2.830  16.895   0.060 -0.3283 -0.2565 -0.2047
29445W        W46292   4.762   2.787  11.039  0.3828 -0.0818  0.3466
29446W        W46293   3.042  19.141  12.394  0.1376 -0.0360 -0.1964
29447W        W46294   6.452   0.153  10.054  0.4755 -0.0143  0.1442
29448W        W46295   3.568  13.834   0.766  0.0172  0.1955 -0.0450
29449W        W46296   9.984   7.687  12.763 -0.0518 -0.0274  0.3743
29450W        W46297   2.592   6.374   3.993 -0.1249 -0.1094  0.1518
29451W        W46298  15.814  14.974  12.869 -0.1780  0.1196  0.0602
29452W        W46299   4.897   1.526   3.095  0.0248 -0.2380  0.1732
29453W        W46300   6.968  11.359   1.031 -0.0456 -0.0297  0.1149
29454W        W46301  17.923   1.604   1.177  0.1034  0.0541  0.0818
29455W        W46302  13.736  17.762   5.398 -0.2218  0.5962  0.1043
29456W        W46303   5.153  14.716   3.084 -0.1951  0.2161 -0.0223
29457W        W46304  10.966  19.261   1.506  0.1211 -0.1428  0.2119
29458W        W46305   7.284  17.659   0.660 -0.0340 -0.0137  0.0680
29459W        W46306  13.726  15.515  14.081 -0.3379  0.1281 -0.1377
29460W        W46307  14.322   0.285   4.401 -0.3722 -0.3098  0.2206
29461W        W46308   0.062   6.072   2.164  0.3277  0.1262 -0.0778
29462W        W46309  12.005  18.282   2.943  0.2239 -0.0747  0.0234
29463W        W46310   5.509   8.338   3.642  0.0267  0.2348 -0.1795
29464W        W46311   7.932   0.725  11.815  0.2067 -0.0029 -0.1250
29465W        W46312  16.816  17.522   3.164 -0.2622  0.0073 -0.0539
29466W        W46313  12.736  12.936  13.865  0.0688 -0.0678  0.0489
29467W        W46314  19.563  10.750   4.172  0.1971  0.1001 -0.1161
29468W        W46315  17.884  13.115  12.595 -0.0508  0.1483 -0.0304
29469W        W46316   7.736  16.167   4.024 -0.1538  0.0495 -0.0700
29470W        W46317   2.778   5.574  10.723  0.2978  0.2408  0.0041
29471W        W46318   0.873  15.848   1.117  0.1362 -0.1850  0.1641
29472W        W46319  12.180  10.153   4.291 -0.2773 -0.1338  0.1038
29473W        W46320   0.588   1.908   3.912 -0.0701 -0.0082  0.0171
29474W        W46321  12.389  14.471   0.180  0.0490 -0.1321  0.1936
29475W        W46322  14.980   2.952  12.575  0.0990 -0.1670 -0.3256
29476W        W46323  12.050   8.632   8.736 -0.1950 -0.2007 -0.2253
29477W        W46324   1.920   3.287   3.982  0.1158  0.1255 -0.1732
29478W        W46325   8.372   0.322   0.987  0.1948 -0.0726  0.0613
29479W        W46326   1.780  15.121  13.664 -0.2659  0.1704 -0.1002
29480W        W46327  13.907   8.130   0.239 -0.0857 -0.1678  0.3985
29481W        W46328   3.969   4.612   3.805 -0.3494  0.0660 -0.2452
29482W        W46329  11.911  17.698   2.261  0.1262  0.0360 -0.1590
29483W        W46330  11.285   3.738   1.074 -0.0279  0.2684  0.0041
29484W        W46331   9.802  16.537   3.398 -0.1313 -0.0539 -0.1781
29485W        W46332   9.678  18.790  11.269 -0.1826  0.1333 -0.1403
29486W        W46333   9.363   4.524   1.232  0.0565 -0.1370  0.0258
29487W        W46334  11.683   8.672   0.150  0.0924 -0.0781  0.1165
29488W        W46335  12.135  18.256   2.449  0.1489 -0.0437  0.0030
29489W        W46336  15.765  12.228   3.381  0.1026 -0.0378  0.1277
29490W        W46337   4.616  13.715  12.082 -0.0434 -0.1463  0.2185
29491W        W46338  19.440  12.830   4.871 -0.3530  0.1923 -0.1203
29492W        W46339   0.398   9.591   0.628 -0.1681  0.2207  0.2035
29493W        W46340  15.892   6.412   2.586  0.1350  0.0030  0.1108
29494W        W46341  12.930  15.211  11.643  0.0610  0.1909 -0.0403
29495W        W46342   5.455  14.053  13.795 -0.0408  0.0857  0.0164
29496W        W46343   7.103   5.990   1.089  0.2176 -0.3171  0.0386
29497W        W46344   1.075   8.842  11.464  0.2768 -0.0694 -0.0748
29498W        W46345  15.322  10.542  13.006  0.1538  0.0378 -0.0772
29499W        W46346  12.316  11.858   1.625 -0.1737 -0.0326  0.1666
29500W        W46347  11.170   5.220  10.361 -0.1398  0.0828  0.0418
29501W        W46348  15.275  14.810   5.041 -0.0275  0.3773  0.2147
29502W        W46349  18.703  16.247  11.363  0.1543  0.2916  0.3627
29503W        W46350  11.260  18.017  13.106 -0.1076  0.0698 -0.0653
29504W        W46351   8.589   7.491   3.390 -0.0884 -0.3053  0.1034
29505W        W46352  14.775   0.724   2.902 -0.2134  0.2155  0.0266
29506W        W46353  11.172   9.589   0.157 -0.2337  0.1659  0.1776
29507W        W46354  17.551   5.676  10.796  0.1780  0.1279  0.0204
29508W        W46355   5.585  17.283   3.253 -0.1511  0.2163 -0.0047
29509W        W46356   8.553   2.827   1.221 -0.1126 -0.0147  0.1036
29510W        W46357  16.772  19.605   0.969  0.0980 -0.0148 -0.0326
29511W        W46358  15.317  18.264   4.568 -0.0195  0.2698 -0.0789
29512W        W46359  18.204   4.340   0.264  0.1659 -0.4140 -0.0277
29513W        W46360  13.027  18.523   2.800 -0.0183  0.1110 -0.1116
29514W        W46361  18.887  13.049   9.177  0.1648 -0.0588  0.0759
29515W        W46362   5.885   1.844  10.101  0.3214 -0.0868 -0.1024
29516W        W46363  10.967  13.074   4.531  0.1849  0.0710 -0.0855
29517W        W46364   8.821  13.515   2.058 -0.0496 -0.0821 -0.0744
29518W        W46365   1.397   3.208   4.177 -0.2511  0.5581  0.2195
29519W        W46366  13.168  17.853   1.134 -0.1123 -0.4709  0.0071
29520W        W46367  17.133   4.648  11.961  0.0159 -0.0261 -0.4116
29521W        W46368  15.399   7.071   0.375  0.0403  0.1754 -0.1343
29522W        W46369   0.484   2.126  13.675 -0.2783  0.0883 -0.1510
29523W        W46370   1.374  13.283   0.371 -0.1015  0.3883  0.2132
29524W        W46371   8.189   8.800   1.946 -0.0327  0.2878  0.0631
29525W        W46372   6.683  17.585   0.578  0.0807  0.0861 -0.0796
29526W        W46373  12.305  16.002  12.532  0.1262 -0.0685 -0.2252
29527W        W46374   2.188  11.512   1.914 -0.0975 -0.1548 -0.0656
29528W        W46375  11.474  18.577   3.869 -0.0625  0.1081  0.0747
29529W        W46376  12.606  14.473  12.057 -0.0659 -0.0642  0.0445
29530W        W46377  12.677  14.984  12.048 -0.3965  0.2008 -0.1103
29531W        W46378   4.218   5.239   0.934 -0.1041  0.2105  0.2166
29532W        W46379   8.131  11.393  10.816  0.1417  0.0913  0.1242
29533W        W46380   4.945  17.753   1.401  0.2805  0.0015 -0.2630
29534W        W46381   3.920   9.967   2.371  0.0457  0.2202  0.1022
29535W        W46382   7.763  11.892   4.030 -0.0553  0.3233  0.0335
29536W        W46383  18.263   8.511  12.436 -0.0256 -0.1981 -0.1985
29537W        W46384   7.586  13.371   1.323 -0.1045 -0.0137  0.2182
29538W        W46385   0.603  13.831  14.149  0.2471  0.1352 -0.2105
29539W        W46386  10.531  15.077  12.204 -0.3880 -0.4058 -0.1188
29540W        W46387   4.679   6.671  11.110 -0.0809 -0.3132 -0.2085
29541W        W46388  15.104  16.135   0.499 -0.0758 -0.0909  0.1189
29542W        W46389   8.458   9.613  10.861  0.0269 -0.0560  0.0116
29543W        W46390   0.275   6.489   4.518  0.1239  0.5613  0.0072
29544W        W46391  17.314  10.587   3.646  0.1125  0.1706 -0.0470
29545W        W46392  11.982  18.464   1.846 -0.0299  0.1191 -0.0161
29546W        W46393  10.183   9.024  13.390 -0.1870 -0.0972 -0.2615
29547W        W46394   4.631  12.195   2.636  0.0866 -0.0657 -0.4175
29548W        W46395   2.525  16.467   3.394  0.0220 -0.2377 -0.1112
29549W        W46396  19.157   3.732   2.971  0.1194 -0.1590 -0.0168
29550W        W46397   5.603  15.616  12.370 -0.0361 -0.0426  0.1932
29551W        W46398   5.474   8.669  13.154  0.0075 -0.2761  0.1909
29552W        W46399  16.720  12.806  11.977 -0.2025 -0.1498  0.1672
29553W        W46400  12.163   9.166  13.526 -0.5835  0.0979 -0.3055
29554W        W46401   4.807   7.521   0.060 -0.5215  0.0090  0.1431
29555W        W46402  16.638   9.253  12.765  0.0322  0.4229 -0.1221
29556W        W46403   7.455   3.841   3.428  0.2483 -0.2819 -0.1662
29557W        W46404  19.226  15.135   2.324  0.5753  0.0170 -0.1938
29558W        W46405  13.707  11.051   1.668 -0.0994  0.2836  0.1497
29559W        W46406   6.290  16.933   2.228 -0.3540 -0.0322 -0.0204
29560W        W46407  10.346   9.709  10.753  0.2875  0.4412  0.0344
29561W        W46408  13.716   3.851  11.180  0.0497  0.2945 -0.2161
29562W        W46409   7.766   8.118  12.227 -0.1751  0.1176  0.1769
29563W        W46410  10.833  11.762  13.274 -0.0159 -0.1588  0.2111
29564W        W46411   7.253   9.352   1.821  0.1588  0.0568 -0.1310
29565W        W46412   2.549   2.282   1.606 -0.3091 -0.0842  0.1697
29566W        W46413  15.315   5.090  10.694  0.3880  0.2690 -0.1219
29567W        W46414  14.851  13.196  13.018 -0.2563 -0.4794 -0.1881
29568W        W46415   2.573   0.410  13.025 -0.1695  0.0728  0.0624
29569W        W46416  15.607  18.228   3.798  0.0002  0.1705 -0.3637
29570W        W46417   6.573  17.180   3.838 -0.0423 -0.1362 -0.1058
29571W        W46418  11.800   3.610  11.890 -0.2260  0.1528 -0.1766
29572W        W46419   4.591   7.327   3.850  0.2896 -0.3278 -0.1238
29573W        W46420  16.239  17.837  13.551  0.2050  0.0472 -0.3821
29574W        W46421  18.164  18.480  10.194 -0.1029 -0.1217 -0.0616
29575W        W46422  14.625  18.304  12.528  0.2936 -0.2529 -0.0020
29576W        W46423  16.307   8.221   1.398  0.2487  0.0649  0.1153
29577W        W46424   2.950  15.218  10.416 -0.4257 -0.3419 -0.0786
29578W        W46425   3.621   1.690  12.612 -0.0793 -0.2098 -0.0256
29579W        W46426  13.761  16.824  10.678 -0.0628 -0.0115  0.1133
29580W        W46427  17.004   6.081  10.366  0.2454 -0.0159 -0.1596
29581W        W46428  17.081  11.453   2.176 -0.4475  0.1419 -0.0869
29582W        W46429   2.073  13.883  14.013 -0.1373 -0.0009  0.0263
29583W        W46430  17.665   5.140   2.637 -0.1262 -0.1261  0.1235
29584W        W46431  15.023   7.560   4.641 -0.0491 -0.2406  0.0671
29585W        W46432   6.656  15.360   0.902 -0.1146  0.3489  0.0690
29586W        W46433   3.647  11.095  14.255 -0.0147  0.1654 -0.1821
29587W        W46434   2.817   5.725   1.796 -0.1378 -0.3639  0.0054
29588W        W46435  18.620   0.077   0.697 -0.0694 -0.1725 -0.2584
29589W        W46436   8.762   0.695   3.418  0.0749 -0.0603  0.2846
29590W        W46437   5.522   4.906   9.604 -0.0448  0.2140 -0.0078
29591W        W46438  11.776   7.468   1.731  0.0389 -0.0704  0.0858
29592W        W46439   5.680   6.852  12.071  0.4186 -0.2837 -0.0524
29593W        W46440   6.194  13.895  12.050 -0.0227 -0.0814 -0.5121
29594W        W46441   1.866   0.624   3.741  0.0132 -0.0746  0.1701
29595W        W46442  11.183  18.101  10.853  0.0958 -0.1494  0.1395
29596W        W46443   6.929   5.446  11.477  0.2255 -0.2564 -0.0186
29597W        W46444   7.090  14.192  12.885 -0.1032  0.3055  0.2166
29598W        W46445  18.603   2.397   0.942  0.0736  0.0199  0.0184
29599W        W46446  14.721   2.432  12.479 -0.1293 -0.0555 -0.1735
29600W        W46447   5.217   4.555  13.384 -0.0233 -0.2163 -0.3303
29601W        W46448  12.038   5.846   4.577  0.0576  0.0977 -0.1983
29602W        W46449   8.573  19.585   4.412  0.0904 -0.2284  0.2438
29603W        W46450   5.489   9.047   1.945  0.0858 -0.0375 -0.0004
29604W        W46451  17.080   8.151   3.517 -0.1019  0.0391 -0.2345
29605W        W46452   9.478   7.368   0.889 -0.1953  0.1170  0.2395
29606W        W46453  12.301  10.966  12.883  0.3211 -0.0455  0.2229
29607W        W46454   0.609   0.662   1.650 -0.1174 -0.4410  0.0321
29608W        W46455  10.942  19.150   2.185 -0.0339  0.0880 -0.0381
29609W        W46456  13.302   9.519   4.827  0.1274 -0.0488 -0.0032
29610W        W46457   2.708  18.568   4.757  0.3872  0.0696 -0.0366
29611W        W46458  12.188  16.469   2.478  0.0320 -0.0307 -0.0818
29612W        W46459  18.326  14.079  13.888 -0.1698 -0.2217  0.1415
29613W        W46460  18.102   3.152  12.721 -0.1105  0.1384  0.0365
29614W        W46461  17.291   9.045  10.020  0.1352 -0.2721  0.2307
29615W        W46462  14.407   8.992   3.811 -0.2878 -0.1525  0.0131
29616W        W46463  15.831  11.729  11.081  0.0049  0.0512 -0.1366
29617W        W46464   3.840  15.185   4.801  0.0792 -0.1775  0.3248
29618W        W46465   7.611   0.547  13.375  0.2333 -0.1991 -0.0549
29619W        W46466   1.564   1.895  13.507  0.0176 -0.1697  0.2315
29620W        W46467   5.348  15.769   0.079 -0.0851  0.1275  0.0556
29621W        W46468  15.172   2.593   4.144  0.1909 -0.0824  0.0156
29622W        W46469  15.158  18.547  13.290  0.0091  0.1515 -0.0482
29623W        W46470  12.313   4.057   1.107 -0.1063  0.0758  0.1605
29624W        W46471   8.597   9.581  12.788 -0.1575  0.2526 -0.0334
29625W        W46472  11.555   8.968   9.743 -0.4745  0.2840 -0.2823
29626W        W46473  10.271  17.604   3.324  0.4262 -0.0300  0.1194
29627W        W46474   0.551  17.840   2.109 -0.3326 -0.1687 -0.3396
29628W        W46475   2.717  16.161   2.877  0.0634  0.1752 -0.0390
29629W        W46476   4.606  15.522  12.195  0.3325 -0.1189 -0.0630
29630W        W46477   3.297   2.606  13.065 -0.1997  0.0825 -0.2483
29631W        W46478   5.660  14.538   1.349 -0.3385 -0.2293  0.3119
29632W        W46479  19.796  15.881   3.461 -0.0334 -0.2168  0.3676
29633W        W46480   9.579  10.240   0.076  0.0832  0.2367 -0.1806
29634W        W46481   4.242   5.186   3.420  0.0619 -0.2581  0.0687
29635W        W46482   6.685   4.163  13.408  0.0770  0.0530 -0.0008
29636W        W46483  12.944  17.599  13.462 -0.1181  0.0071  0.3023
29637W        W46484  18.604   9.189   3.290 -0.1990  0.3171  0.0057
29638W        W46485  11.283  18.411   0.400  0.4399  0.0253 -0.0068
29639W        W46486   6.717  10.367  13.499  0.0742 -0.1229 -0.0292
29640W        W46487   9.888  11.716  14.079 -0.0631 -0.1021  0.0596
29641W        W46488   3.108   8.148  12.734 -0.0470  0.0885  0.4518
29642W        W46489   2.196   5.033   0.094 -0.2882 -0.2563 -0.0303
29643W        W46490  10.370   7.731  13.733 -0.1029 -0.2394  0.0417
29644W        W46491  10.873  19.577   1.127 -0.0610  0.1028 -0.0754
29645W        W46492   8.395   9.998  12.879 -0.1741  0.1900 -0.2930
29646W        W46493  12.335  18.100   0.263 -0.1231 -0.3887  0.6252
29647W        W46494  17.634   6.021   2.442 -0.2211  0.3126  0.2847
29648W        W46495   2.143   8.805   0.565  0.0174  0.1563 -0.1903
29649W        W46496  13.034   0.056  11.087  0.1250  0.1312  0.1189
29650W        W46497  19.807   8.977   0.130  0.1217  0.1023  0.3156
29651W        W46498   9.613   7.044   1.479 -0.1259 -0.0443  0.3562
29652W        W46499   1.614  17.792   1.982  0.0396 -0.0245  0.0211
29653W        W46500   3.648   7.273   1.949 -0.2867 -0.0928  0.2096
29654W        W46501   8.591   4.213   9.745 -0.1066  0.3062 -0.0757
29655W        W46502  19.097   2.218  10.278  0.3350 -0.3477 -0.2043
29656W        W46503   2.385  14.502   4.100  0.2626  0.0738  0.1288
29657W        W46504   5.947  15.295  12.183 -0.1944 -0.1346  0.0799
29658W        W46505   1.145   8.691   1.481 -0.5752 -0.0849  0.0118
29659W        W46506   9.259   2.822  13.098 -0.0420 -0.1420  0.0325
29660W        W46507   4.900  11.298  12.390 -0.2297 -0.1296  0.2484
29661W        W46508  17.917   4.802  10.353 -0.1999  0.0513 -0.1163
29662W        W46509   9.591   7.363   3.134  0.4736 -0.0313 -0.1776
29663W        W46510  13.475  13.350   2.480 -0.0551 -0.1219 -0.0466
29664W        W46511  17.140   6.188   4.340 -0.0690 -0.3488 -0.0284
29665W        W46512  13.628   3.166  13.859  0.1077 -0.1150 -0.1626
29666W        W46513   4.575   6.373   2.826  0.2363  0.1431 -0.0526
29667W        W46514   0.423  18.100  14.281 -0.1895  0.2585  0.0705
29668W        W46515  12.787   5.917   1.122  0.1480  0.0338  0.1722
29669W        W46516  17.476   7.787   3.080 -0.0424  0.0756  0.1754
29670W        W46517  14.474   3.415   2.469  0.0042 -0.0869  0.3725
29671W        W46518   0.153  15.770  11.487 -0.2139  0.4844  0.0282
29672W        W46519  12.118   0.507  14.335  0.0182  0.3558 -0.3958
29673W        W46520  11.564   7.227  11.439 -0.2097 -0.1228  0.1090
29674W        W46521   1.649  10.871  11.025 -0.0448 -0.3340  0.0200
29675W        W46522   4.019  11.958  13.847 -0.3004 -0.0492 -0.0322
29676W        W46523   7.610  16.754   2.373 -0.0139  0.1739 -0.1708
29677W        W46524   2.264   2.738  13.471 -0.1220 -0.0315  0.0483
29678W        W46525   5.480  17.343  12.530  0.1383 -0.1569 -0.0722
29679W        W46526   1.813   1.368   0.367 -0.0311  0.2430  0.4948
29680W        W46527  14.168  17.324  11.496 -0.1484 -0.0328  0.1451
29681W        W46528  15.722  13.935   3.656  0.0044  0.1920  0.0974
29682W        W46529  19.222   9.516   1.490 -0.0823 -0.1206  0.2957
29683W        W46530   6.088  17.693  13.106  0.0599 -0.1461 -0.0461
29684W        W46531   1.790  14.271   4.019 -0.0629 -0.2548  0.0128
29685W        W46532   8.581   8.032  10.942  0.2750  0.1378  0.1385
29686W        W46533  14.188   5.938   3.666 -0.0423 -0.1023 -0.0449
29687W        W46534   8.363  18.872   1.614  0.4664 -0.1318  0.1311
29688W        W46535  18.155   0.041   0.484  0.0041  0.2967  0.1922
29689W        W46536  18.439   1.382   4.105  0.0410 -0.1871 -0.2271
29690W        W46537   2.371   2.110  14.085 -0.0024 -0.0675  0.1823
29691W        W46538  10.600  16.021  10.661  0.3352  0.2681  0.4046
29692W        W46539   8.633   8.160   4.757 -0.0233  0.0144  0.1226
29693W        W46540   9.254   8.538   9.755  0.1681  0.2822 -0.0276
29694W        W46541  17.476   1.590  12.401  0.2652 -0.0768 -0.0098
29695W        W46542  11.468   9.908  12.096  0.0668 -0.2121  0.2784
29696W        W46543   3.378  11.452   2.170 -0.0837  0.1052 -0.0428
29697W        W46544   6.503   1.602   0.731  0.2092  0.0493  0.1921
29698W        W46545  19.004   1.476  10.082  0.0028  0.3379  0.3795
29699W        W46546   7.929  17.847   1.021 -0.1177 -0.0967  0.1495
29700W        W46547   9.945  17.832  10.733  0.4581  0.1363  0.0555
29701W        W46548   6.389  17.739  10.609  0.1434  0.0834 -0.2079
29702W        W46549  18.121   5.125  12.843  0.0524 -0.0885 -0.2585
29703W        W46550   0.226   4.103  10.010  0.1674  0.0351  0.0844
29704W        W46551   0.572   8.661   2.454 -0.0811  0.3423 -0.1270
29705W        W46552  10.009   6.238   1.564  0.0825  0.1069 -0.0837
29706W        W46553   4.185   3.830  13.121  0.1390 -0.1798 -0.1249
29707W        W46554  10.502  15.062   2.648  0.0081 -0.1590  0.4111
29708W        W46555  10.393   6.404   3.571  0.0611  0.1433 -0.2881
29709W        W46556  10.528  14.221  13.481 -0.2012  0.0868  0.1024
29710W        W46557   0.541  13.001  12.509 -0.3513  0.0190 -0.2995
29711W        W46558  10.857   3.299  12.492  0.0302  0.1629  0.2755
29712W        W46559   1.351  11.289  11.088  0.2506 -0.4681 -0.1426
29713W        W46560   0.842   5.243   1.602  0.0113 -0.1365  0.0076
29714W        W46561   6.524  14.698   5.289  0.2512  0.2005  0.0495
29715W        W46562   7.391   6.674   0.037  0.0440  0.1234  0.0950
29716W        W46563  11.764  16.311   2.176  0.4413 -0.0070 -0.1433
29717W        W46564  16.457   9.178   4.524  0.1995 -0.0278 -0.4270
29718W        W46565  14.713  11.226   0.310 -0.0248 -0.1171  0.0383
29719W        W46566   9.243  12.897  11.995  0.1746 -0.0439  0.2654
29720W        W46567  14.163  17.575   3.276 -0.0228  0.3207  0.0786
29721W        W46568  10.466   3.052   3.068  0.0604 -0.0337  0.0150
29722W        W46569  14.322  12.059   0.554  0.1932 -0.0623 -0.1896
29723W        W46570  15.554  19.056  13.900  0.1532  0.0028  0.1367
29724W        W46571   8.856   8.327   3.944 -0.2223 -0.1928 -0.2671
29725W        W46572   0.325   2.945  10.236  0.0263  0.0607 -0.0354
29726W        W46573  11.354  13.910   4.088  0.0150  0.4402  0.2113
29727W        W46574   9.769  18.183  12.091 -0.0288  0.0255 -0.3193
29728W        W46575   9.463   9.289  10.488  0.0246 -0.2257 -0.1309
29729W        W46576  18.090  11.898  13.359  0.0408  0.1350  0.2386
29730W        W46577   5.540  15.275  10.589 -0.1022  0.0646 -0.1077
29731W        W46578  15.572   6.437   0.175  0.0327 -0.0032 -0.1859
29732W        W46579  11.249   7.387   0.328  0.1977 -0.3272 -0.1766
29733W        W46580   2.279   6.361   3.543 -0.1774 -0.0755  0.3091
29734W        W46581  17.662   0.173  14.186 -0.2887 -0.0860  0.0961
29735W        W46582  17.363   9.772   4.939  0.2421  0.2139 -0.1202
29736W        W46583  19.785   8.764  10.986  0.2252  0.0638 -0.3093
29737W        W46584  15.067  18.219   3.652 -0.1462 -0.0381  0.0175
29738W        W46585   2.043   7.252  12.694  0.4019 -0.1408  0.0944
29739W        W46586  18.673  19.677   2.379 -0.0433  0.1366  0.1227
29740W        W46587   2.138  11.229   3.096 -0.0891  0.1636  0.2130
29741W        W46588  17.969   6.958  12.824  0.1669  0.1550 -0.0886
29742W        W46589  12.883  15.319  12.637  0.2103 -0.0675 -0.0269
29743W        W46590  11.120   7.726  10.657  0.1492  0.0726 -0.0881
29744W        W46591   0.396  19.749   2.128  0.0701  0.2908  0.2362
29745W        W46592   9.212  14.320   1.953  0.0645 -0.1353  0.0301
29746W        W46593  10.814  14.751   4.084  0.0010  0.2045 -0.0101
29747W        W46594  16.310  15.740   1.070  0.2452  0.1801  0.1159
29748W        W46595  10.562  15.218   1.625  0.1051 -0.1356 -0.0688
29749W        W46596  12.858  17.072  13.150  0.2737  0.2635 -0.0786
29750W        W46597   6.449   2.757  12.864 -0.1957  0.3584  0.1490
29751W        W46598   8.338  14.796  13.085 -0.0581  0.0187  0.3257
29752W        W46599   4.019   6.808   4.406 -0.3072  0.0575 -0.2118
29753W        W46600  12.180   2.559   3.594 -0.0811 -0.0437 -0.1995
29754W        W46601  15.071   0.548  14.011 -0.2404  0.2751  0.2869
29755W        W46602  18.470  14.239   0.874 -0.0640 -0.3130  0.3624
29756W        W46603  18.431   1.211   3.655  0.0970  0.2174  0.0334
29757W        W46604  19.086   3.792   4.610  0.0601 -0.0697 -0.1788
29758W        W46605   0.422  15.091   0.059  0.3639  0.0693 -0.4849
29759W        W46606  15.540   5.091  11.646  0.2040 -0.1256  0.0346
29760W        W46607   9.637  13.356  13.919 -0.6470 -0.2864 -0.3297
29761W        W46608  13.043  12.982   5.888 -0.2091 -0.1683 -0.0981
29762W        W46609   4.310  13.584  13.244  0.0780 -0.2558  0.0545
29763W        W46610  18.114   9.220  12.994 -0.3498 -0.1333 -0.2506
29764W        W46611  14.982   3.599  11.411  0.0537 -0.0704 -0.3851
29765W        W46612   7.483  10.646   0.378 -0.0813  0.2433  0.1082
29766W        W46613   7.330  11.545   0.732  0.1264  0.2525 -0.0031
29767W        W46614  19.630   3.451  13.070  0.0274  0.1290  0.0700
29768W        W46615  19.364   1.692   2.945 -0.0434 -0.1531  0.1755
29769W        W46616   7.596   9.805  11.055  0.4416 -0.2184  0.1459
29770W        W46617  15.898   8.111  10.433 -0.1062  0.1340  0.0933
29771W        W46618   6.903  17.966   0.876  0.0929  0.1405  0.2124
29772W        W46619   4.830  17.266   5.128 -0.2032  0.1037  0.2960
29773W        W46620  16.873   5.518   1.417  0.0302 -0.0829  0.3015
29774W        W46621   7.814  15.966  11.197 -0.2254  0.1131 -0.0457
29775W        W46622  11.814  15.172   2.839  0.0915  0.0504 -0.2572
29776W        W46623   2.138  15.215   4.643 -0.0612 -0.0852  0.1433
29777W        W46624   1.528   8.195  13.811 -0.2332 -0.1048 -0.3067
29778W        W46625  10.557   3.163  11.538 -0.0457  0.4747  0.0822
29779W        W46626  17.963  11.093  11.642  0.0122 -0.2164  0.0825
29780W        W46627  19.084   9.603  13.336 -0.2087 -0.0497  0.1725
29781W        W46628  12.581   4.453   3.864 -0.3658 -0.2836  0.0007
29782W        W46629  12.108   1.732  11.701 -0.2151  0.2022 -0.2659
29783W        W46630   7.929  12.655   3.605 -0.2150  0.0784  0.2659
29784W        W46631   4.007   2.958   5.503 -0.1357 -0.0542  0.2609
29785W        W46632  14.184   9.953  11.877 -0.1153 -0.0175 -0.0519
29786W        W46633   9.581   2.432   1.617 -0.1466 -0.4090 -0.1004
29787W        W46634   5.294  17.105  11.188 -0.2339 -0.0398 -0.3020
29788W        W46635  18.118  16.977   4.214  0.0277  0.2082 -0.3585
29789W        W46636  12.560  11.731   2.130 -0.2612 -0.1078  0.0296
29790W        W46637   7.965  12.188   0.355 -0.2392 -0.0559  0.0808
29791W        W46638   7.325  19.568  13.785 -0.1603  0.0467 -0.0579
29792W        W46639  16.145   2.574  10.914  0.0851 -0.4387  0.3452
29793W        W46640  16.697   0.091  14.284  0.0616  0.1761  0.1157
29794W        W46641   7.884  18.129  14.048 -0.1499  0.1509 -0.1916
29795W        W46642   0.843  13.831   2.674  0.3806 -0.1421 -0.1911
29796W        W46643   1.696  12.940  13.928 -0.2971  0.0903 -0.0093
29797W        W46644  17.426   8.706  13.301 -0.1920  0.1251  0.5187
29798W        W46645  10.939  19.609   2.372  0.0867 -0.2987 -0.3614
29799W        W46646   6.150  12.005  11.370 -0.2925 -0.1210 -0.0690
29800W        W46647  18.302   4.054  11.307  0.0903  0.1302 -0.3611
29801W        W46648  15.327  12.966  12.300 -0.1572  0.0355  0.5416
29802W        W46649  13.055  12.906   2.460 -0.0559 -0.1388  0.4472
29803W        W46650   3.860  11.449   5.069 -0.2196  0.0393  0.0364
29804W        W46651   8.410  10.852   3.034 -0.1299 -0.0096  0.0980
29805W        W46652  13.353  16.413   1.551  0.0718  0.1686 -0.2805
29806W        W46653  16.090  15.498  11.729 -0.3868  0.0725 -0.0577
29807W        W46654   5.938  13.704   4.423 -0.0672  0.0577  0.2280
29808W        W46655  16.409  10.413   9.122 -0.0156  0.0575 -0.2040
29809W        W46656   5.435   9.028   5.181 -0.2006 -0.1579  0.0132
29810W        W46657   6.194  13.544   2.282  0.4625  0.0721  0.3004
29811W        W46658  15.428  19.203   0.394  0.1511 -0.0176 -0.0449
29812W        W46659   4.294  15.602  11.460 -0.0043  0.3954  0.3276
29813W        W46660  11.327   1.191   3.957  0.1962 -0.3315  0.2176
29814W        W46661   6.269  17.925   5.378  0.0497  0.1116 -0.1143
29815W        W46662  19.547   6.477   2.077 -0.0862  0.0770 -0.1427
29816W        W46663   9.818   2.616   4.391  0.0231  0.1091  0.0034
29817W        W46664   7.197  17.701   4.456  0.2525 -0.4008  0.1272
29818W        W46665  11.243   2.409   3.944  0.0507 -0.3793 -0.2341
29819W        W46666   1.927  13.233   0.562 -0.3138 -0.0808  0.1935
29820W        W46667   7.536  15.524  13.357 -0.0547  0.2389  0.0590
29821W        W46668  17.911  10.368  11.132 -0.0599 -0.5144 -0.0856
29822W        W46669   8.497   5.181  14.148 -0.0661  0.3065  0.0601
29823W        W46670   6.980  12.917   0.815  0.0197 -0.1787  0.1497
29824W        W46671   2.746   2.996   4.279  0.0150 -0.0619  0.1148
29825W        W46672  11.785  14.289  13.921 -0.0056  0.0769 -0.1495
29826W        W46673   8.184   5.264  12.332 -0.2504  0.1640 -0.4479
29827W        W46674   3.022   0.558   5.188  0.3585  0.3645 -0.0073
29828W        W46675  15.553  17.804  11.865 -0.4956 -0.0756  0.1065
29829W        W46676  15.462   6.668  11.118 -0.0842 -0.3599  0.1621
29830W        W46677   0.111   3.218   1.077  0.2191  0.1899 -0.1360
29831W        W46678  14.298  17.575   0.643  0.0400 -0.0441 -0.1322
29832W        W46679   1.308  10.460  13.017 -0.2549 -0.3097  0.2830
29833W        W46680  18.892  11.580   3.046 -0.2239 -0.0787 -0.2904
29834W        W46681  18.198  13.137   1.119 -0.1170  0.0206  0.1852
29835W        W46682  11.859  18.895  12.146 -0.2633  0.0974 -0.1306
29836W        W46683   3.943  10.977   2.617 -0.4502  0.1043 -0.1369
29837W        W46684  17.716   4.456   4.046 -0.2920  0.2886 -0.2420
29838W        W46685   4.763   0.291   2.811  0.2011  0.0774 -0.0872
29839W        W46686  10.723   4.524   8.897 -0.0839  0.1162  0.2634
29840W        W46687   3.334  11.697   3.808  0.0024  0.2317 -0.0708
29841W        W46688  16.236  10.080   5.162  0.1136  0.1986 -0.1798
29842W        W46689  10.853  18.814   4.589  0.1288  0.0147  0.0471
29843W        W46690   8.794   8.513  10.880 -0.1482  0.3850  0.0121
29844W        W46691  19.875  12.893   2.073 -0.1482 -0.6258  0.0043
29845W        W46692   5.320  12.849  11.257  0.0660 -0.1223 -0.2023
29846W        W46693  12.113  15.442   4.388 -0.2637 -0.0887 -0.2398
29847W        W46694  16.178  11.065   9.864  0.2331  0.0561  0.0987
29848W        W46695   6.771  15.574  12.577 -0.2885 -0.1537  0.1914
29849W        W46696   1.243   0.181  11.337 -0.0902  0.3132 -0.1669
29850W        W46697  16.021  12.275   1.349 -0.2533  0.0609  0.2634
29851W        W46698   7.578  17.724   9.787 -0.0536  0.2710 -0.1332
29852W        W46699   8.037   6.392  12.489 -0.2839 -0.0004 -0.0137
29853W        W46700   2.669   6.173  12.504  0.0087 -0.0717  0.0768
29854W        W46701   4.641   2.462  12.386 -0.0574 -0.0263  0.0810
29855W        W46702   5.967  11.258  13.930  0.1090  0.0482 -0.4651
29856W        W46703   3.668  19.581   3.211  0.0045 -0.0075  0.2714
29857W        W46704   8.001   8.093  10.458  0.2155  0.0894  0.2005
29858W        W46705  11.023   9.747   2.461 -0.0585  0.0465 -0.3084
29859W        W46706   4.410   3.757   9.788 -0.2485 -0.0030 -0.2752
29860W        W46707   4.318   0.903  13.212 -0.1112 -0.0642  0.2011
29861W        W46708   6.530   6.145   3.954 -0.1624  0.1580  0.2825
29862W        W46709  17.135   7.183   0.370 -0.2307 -0.2954  0.3356
29863W        W46710   6.707  17.617   3.398 -0.2572 -0.3190  0.0627
29864W        W46711   9.460  12.484   2.650  0.2138 -0.0775  0.0046
29865W        W46712  14.112  12.138   0.065 -0.0957 -0.2076  0.0230
29866W        W46713  10.320   4.833  11.264  0.0295 -0.1250  0.3397
29867W        W46714  15.398  18.868   0.853  0.0176 -0.1102  0.3523
29868W        W46715   3.837   1.857   3.900 -0.1253 -0.0102  0.0393
29869W        W46716   5.935   3.582  10.152  0.3583 -0.2098  0.3584
29870W        W46717  15.299  14.152   5.040 -0.1619 -0.1430  0.1412
29871W        W46718   3.574   5.428  13.666 -0.0995  0.3030  0.2399
29872W        W46719  16.328  15.038  11.346  0.1849 -0.1959  0.1015
29873W        W46720   5.574   0.929   3.270  0.3383 -0.3211  0.0732
29874W        W46721   4.252   6.365   4.323 -0.0030 -0.1182 -0.0898
29875W        W46722   1.474  18.389   4.812  0.3023 -0.3241  0.3533
29876W        W46723  12.864   9.262  11.859  0.1313  0.1723 -0.1229
29877W        W46724  19.416  15.222  10.424  0.0309  0.4349 -0.3120
29878W        W46725   6.116   5.331  13.349  0.1780  0.0584 -0.1482
29879W        W46726  18.892   0.704  11.748  0.0798 -0.1489  0.1476
29880W        W46727  18.891   2.870   0.078  0.0245  0.1104  0.2137
29881W        W46728  18.498  15.172   1.588 -0.1511 -0.1611  0.3528
29882W        W46729   7.175   8.346   3.736  0.4651 -0.2724  0.1702
29883W        W46730   4.768   9.119   1.271 -0.3308 -0.3805  0.0157
29884W        W46731   5.829   8.444   0.211  0.1237  0.2650  0.4200
29885W        W46732  17.870   4.901   0.692 -0.0196  0.2663  0.3769
29886W        W46733   5.813   1.497   1.447 -0.1360 -0.1464  0.1407
29887W        W46734   5.274  18.165   3.399  0.2346 -0.2997 -0.0196
29888W        W46735  15.762  15.675   3.691  0.2248 -0.1171 -0.2456
29889W        W46736   5.934  16.539   9.940  0.1648 -0.1465 -0.1910
29890W        W46737   6.049  19.231  10.701 -0.3132 -0.0533 -0.0438
29891W        W46738   7.753   3.680   1.755 -0.2416 -0.0557 -0.0669
29892W        W46739   0.970   9.055   1.835 -0.0102 -0.0680  0.0407
29893W        W46740  11.007  17.805   3.876 -0.1998  0.0357 -0.0056
29894W        W46741   4.657  11.204  13.374 -0.0927  0.0196 -0.3905
29895W        W46742   3.794  11.792   1.162 -0.2345  0.1572  0.2214
29896W        W46743   1.324  15.998   3.382 -0.1262  0.0037 -0.0422
29897W        W46744   8.861   3.476  12.103 -0.2881  0.0205 -0.2047
29898W        W46745  12.475  15.020  12.799  0.1889  0.0192  0.0982
29899W        W46746   9.823   2.491   1.021 -0.0617 -0.0131  0.4841
29900W        W46747   0.963  18.772  10.907  0.0195  0.0500 -0.0711
29901W        W46748  16.369   9.992   9.497 -0.1748 -0.0306  0.1003
29902W        W46749   4.462  16.147   0.510  0.0409 -0.2964  0.1874
29903W        W46750  16.475   5.053   1.152 -0.3961 -0.0107 -0.3897
29904W        W46751   8.045  16.538  10.402  0.2434  0.2423  0.0152
29905W        W46752   8.033   6.452   4.330  0.0763 -0.0497  0.2504
29906W        W46753  13.696  17.975  13.784  0.1689 -0.1183 -0.2065
29907W        W46754   7.153  12.134   0.543  0.0307  0.0480 -0.2021
29908W        W46755  16.381  16.319   3.433  0.1388  0.1571 -0.2031
29909W        W46756  16.904  17.932   3.848  0.0743 -0.2174 -0.4488
29910W        W46757   1.107   6.114   4.292 -0.1265  0.1483 -0.1074
29911W        W46758   9.370   3.458   3.985 -0.1444 -0.0121  0.0461
29912W        W46759   7.765   7.168  11.435 -0.1166  0.0423  0.2695
29913W        W46760  18.311   6.470  12.466 -0.1229 -0.2188  0.0876
29914W        W46761   1.915  15.469   1.344  0.2447  0.0500  0.1855
29915W        W46762   7.798  10.254   0.331  0.3741  0.0003 -0.2045
29916W        W46763   8.311   7.255  12.741  0.2260  0.0656  0.4217
29917W        W46764   9.957  11.757  13.520 -0.3566  0.1924  0.0948
29918W        W46765   0.425   3.505   4.974 -0.0586 -0.1628  0.0870
29919W        W46766   7.268   0.035  10.520 -0.3017  0.1588 -0.0489
29920W        W46767  11.094  12.521   4.093 -0.0079 -0.2473  0.1678
29921W        W46768  12.570  11.514  13.674 -0.1864 -0.0858 -0.1950
29922W        W46769  16.077  11.746   0.207 -0.2748 -0.1224 -0.2223
29923W        W46770   7.758  11.274   3.551 -0.2003 -0.0909 -0.0674
29924W        W46771   2.551   2.630   3.911 -0.1662 -0.0244  0.3509
29925W        W46772   2.346   8.468   3.153 -0.0281  0.1571 -0.0161
29926W        W46773  13.745  10.595   5.072 -0.1622 -0.0199 -0.0483
29927W        W46774  19.255  10.580   1.094 -0.3517  0.0216 -0.0454
29928W        W46775   2.024   4.070   4.539  0.1023  0.2190  0.1086
29929W        W46776   1.781  13.743  11.980 -0.0890  0.0270 -0.1996
29930W        W46777   8.053  13.136   3.729 -0.0367  0.0009  0.1022
29931W        W46778   4.173  17.533   4.529 -0.2752  0.3580  0.1589
29932W        W46779  14.245   1.456  12.046 -0.3280  0.2515  0.1886
29933W        W46780   3.792   9.972  11.976  0.0502  0.1302 -0.1559
29934W        W46781   4.621   0.804  12.786  0.0208  0.0139 -0.0287
29935W        W46782   2.342   9.361   4.282  0.0278 -0.0412 -0.2159
29936W        W46783  15.100  19.647  13.248  0.1146 -0.1571  0.1207
29937W        W46784  12.521   7.598   4.778  0.2789  0.2713 -0.1756
29938W        W46785  15.798   2.464   9.916 -0.0081 -0.0028 -0.0652
29939W        W46786  10.225   6.789  13.701  0.4508  0.0832  0.4287
29940W        W46787  16.067  10.461   9.523  0.0134 -0.0495 -0.1530
29941W        W46788  18.762   7.513   1.268 -0.0752 -0.0133 -0.0034
29942W        W46789   3.364   7.354   2.416  0.1100  0.0576  0.3501
29943W        W46790  14.135   7.790  14.356  0.1955  0.0557 -0.1246
29944W        W46791   8.720  17.948   4.433 -0.1681  0.0190  0.1307
29945W        W46792   3.216   2.335  11.692  0.0592  0.3029 -0.2912
29946W        W46793  15.625  11.558  12.575 -0.0497 -0.1189 -0.0275
29947W        W46794   9.124  14.444   5.423  0.0820 -0.1359  0.2710
29948W        W46795   3.983   8.599  11.951  0.0494 -0.2407  0.3075
29949W        W46796  11.922  18.799  10.474  0.2981  0.1347 -0.1759
29950W        W46797   5.528  11.207   0.554  0.1441  0.0045  0.2910
29951W        W46798   0.680   4.561   2.132 -0.1302 -0.1778  0.2313
29952W        W46799   5.469  16.777   3.936  0.1115 -0.1247 -0.0051
29953W        W46800  19.857   7.264  11.693 -0.1353  0.0096  0.2760
29954W        W46801  12.484   0.260   2.140  0.2586  0.1886  0.0194
29955W        W46802   5.649   5.369   3.856 -0.0949  0.0838 -0.4499
29956W        W46803   4.901   1.939   2.751  0.0707  0.0490 -0.3555
29957W        W46804   5.361   4.819   3.217 -0.5121  0.0542  0.0830
29958W        W46805  16.598  11.154   1.933 -0.0728 -0.0213  0.2365
29959W        W46806   2.454  13.201   2.469 -0.0064  0.1682 -0.1978
29960W        W46807   0.317  18.581   0.122 -0.1965 -0.1151  0.0218
29961W        W46808   2.814  10.600   3.339  0.4910  0.2555  0.0010
29962W        W46809   6.237   8.530  10.821 -0.2563 -0.3254  0.2081
29963W        W46810  15.237  14.357  12.228 -0.1808 -0.0936 -0.0453
29964W        W46811   6.076   7.726   4.492  0.3222 -0.1223  0.2095
29965W        W46812   8.240   8.126   0.123 -0.2239 -0.3404  0.1259
29966W        W46813  16.927   5.408  12.340  0.2713  0.0274 -0.2926
29967W        W46814  15.667  18.973  12.476  0.0788  0.1266  0.1353
29968W        W46815   6.697   3.421   0.679  0.1183 -0.2885 -0.2457
29969W        W46816  12.647  11.841  10.539  0.1214 -0.1220 -0.1264
29970W        W46817  14.152  10.040   3.728  0.2417  0.2179  0.2096
29971W        W46818   6.470  11.105  13.900  0.2229  0.1645  0.1126
29972W        W46819   5.818   4.432   4.928  0.0782  0.2001  0.0381
29973W        W46820   9.828  14.499   2.328 -0.1319 -0.5345  0.1340
29974W        W46821   0.418  16.217   4.689 -0.0294 -0.2553 -0.1431
29975W        W46822  15.184  17.413   4.634 -0.0991  0.0507 -0.2188
29976W        W46823   1.697  18.617  10.070  0.0091  0.2434  0.3855
29977W        W46824  17.212  15.167  10.883  0.1741 -0.1305  0.0306
29978W        W46825  16.465   6.070   4.854  0.0650 -0.0695  0.0937
29979W        W46826  10.786   8.171   1.483  0.3239 -0.0455  0.2855
29980W        W46827  17.288   8.451  12.471  0.1906 -0.1016  0.1030
29981W        W46828  11.112  16.253   2.198 -0.0705  0.0222  0.1622
29982W        W46829   0.972  15.265  13.364 -0.1718 -0.1854 -0.1806
29983W        W46830   2.066   5.296  13.287 -0.1634  0.1636  0.3909
29984W        W46831   6.661  14.285   3.877  0.1096 -0.1593  0.0934
29985W        W46832  12.863  13.254   4.367 -0.1270  0.2983 -0.1558
29986W        W46833  11.081   4.366  10.676  0.2244 -0.2022  0.0124
29987W        W46834  18.302   6.122   3.859  0.0041 -0.1385  0.0802
29988W        W46835   6.248  19.871   0.887 -0.3441 -0.0193 -0.2660
29989W        W46836   0.547  16.994  11.052  0.1723  0.3370  0.1427
29990W        W46837  17.428   6.444   1.231 -0.0378 -0.0318 -0.0276
29991W        W46838   8.287   3.688  13.908  0.0850 -0.3378 -0.0209
29992W        W46839   5.810   4.624   4.365 -0.3226 -0.1516 -0.2306
29993W        W46840   0.426   8.835   5.407  0.0534  0.0083  0.0027
29994W        W46841   7.142  14.163   0.192  0.1065  0.0933 -0.0684
29995W        W46842   3.287   7.216   0.428  0.0713 -0.1922 -0.1879
29996W        W46843   8.722   4.613   2.258 -0.0138  0.0205  0.0869
29997W        W46844  13.070  12.834  11.807 -0.0704 -0.2383 -0.0759
29998W        W46845  14.223   0.449   0.272  0.0366 -0.1731  0.3637
29999W        W46846  18.872  10.729  12.248 -0.2240 -0.0329  0.2640
30000W        W46847  14.083  11.427   1.469  0.0711 -0.2172  0.4867
30001W        W46848   4.836   6.208  12.272  0.2415  0.0626 -0.0322
30002W        W46849   8.268   2.808   1.627 -0.0482  0.0512 -0.2181
30003W        W46850   8.478   8.933   9.023 -0.0324 -0.1007 -0.1231
30004W        W46851  16.359   8.031  10.291 -0.0917  0.1168 -0.4242
30005W        W46852  18.060   7.368   0.742 -0.3125 -0.1593  0.1340
30006W        W46853  12.613  12.175   0.502 -0.1145 -0.1848 -0.1463
30007W        W46854   7.785   7.659  10.432 -0.0586  0.1402 -0.0569
30008W        W46855   8.795  18.326   0.932  0.1260 -0.1011  0.0490
30009W        W46856  19.449  15.483  12.075  0.0002  0.0834 -0.0638
30010W        W46857   7.259   1.132  10.548  0.1717  0.6788  0.0651
30011W        W46858   7.323   7.374   3.777  0.0865  0.3453  0.0378
30012W        W46859  13.630   2.793   2.945  0.3396 -0.0350  0.1233
30013W        W46860  16.099   7.543   1.930 -0.2837  0.1379 -0.2103
30014W        W46861  16.699   6.464   1.041 -0.2554  0.1659 -0.1304
30015W        W46862  13.509  12.712  13.150 -0.0450  0.0237  0.2903
30016W        W46863   3.539  17.185   1.695  0.2332 -0.2344  0.4162
30017W        W46864  12.784  15.574  10.483 -0.0928  0.1660 -0.1420
30018W        W46865  17.035  14.387  11.416  0.2035 -0.0847  0.0363
30019W        W46866   0.100   5.776   4.733  0.0077  0.0519 -0.0630
30020W        W46867  15.068   8.140  11.611 -0.3295 -0.3562 -0.2231
30021W        W46868  18.957  12.193   3.283 -0.1053  0.0529 -0.1186
30022W        W46869  15.563   9.763   2.699  0.1212  0.2795 -0.1697
30023W        W46870  18.003  16.038  12.232  0.2245 -0.2641 -0.1363
30024W        W46871  19.665   4.914  10.809 -0.0676  0.0244 -0.2425
30025W        W46872  12.063  19.112   0.294 -0.0005 -0.0075  0.3250
30026W        W46873  13.033  11.436  13.386 -0.2037  0.2141 -0.0385
30027W        W46874  15.410   6.404  11.677  0.1232 -0.2984  0.1216
30028W        W46875  17.546   6.427  12.168  0.1627  0.2943 -0.2136
30029W        W46876  10.124   1.908   3.913 -0.0107  0.0145  0.1951
30030W        W46877  14.561  10.409   4.204 -0.2286  0.3826 -0.1165
30031W        W46878  16.729  14.089   0.444  0.2269  0.0289 -0.1417
30032W        W46879  16.409  18.102  13.957 -0.0439  0.0389  0.0791
30033W        W46880  10.649   5.118   3.617  0.2517  0.1344  0.1541
30034W        W46881  10.946  16.136   1.683  0.0266 -0.0585  0.2645
30035W        W46882  13.149   1.772  11.029  0.2597 -0.2014  0.0100
30036W        W46883  10.656  15.103  11.130 -0.1056 -0.2043 -0.1028
30037W        W46884  12.556   4.673  10.276 -0.0998 -0.0586  0.2604
30038W        W46885  10.940  17.780   4.385 -0.0839 -0.0509  0.1207
30039W        W46886   9.040   4.775   3.960  0.2979  0.0387  0.1010
30040W        W46887  13.107  18.603  13.443 -0.1814 -0.0872  0.5761
30041W        W46888   5.463  11.533  10.795 -0.0498 -0.1009 -0.0036
30042W        W46889  10.994   7.727  12.772 -0.2571  0.0288  0.3286
30043W        W46890   3.623  11.805  12.204 -0.1627 -0.0230 -0.0950
30044W        W46891  18.272   6.677  13.810 -0.1289 -0.0474  0.0257
30045W        W46892  12.906   2.517   9.930  0.2574  0.0024  0.2033
30046W        W46893   1.591  17.504  12.673  0.0391  0.4647 -0.4682
30047W        W46894   6.988   3.794   9.864  0.0356  0.1325  0.2262
30048W        W46895   7.455   9.234  14.326  0.4583  0.2551  0.0749
30049W        W46896   9.295   7.933   1.541  0.2107  0.0008 -0.2608
30050W        W46897   1.168   8.474   3.829  0.0463  0.3215 -0.2329
30051W        W46898  13.231  11.877   2.669  0.0913 -0.1640  0.3026
30052W        W46899  15.375   3.349   2.468 -0.0288  0.2534  0.2143
30053W        W46900  13.310  16.231   0.782 -0.0317 -0.2419 -0.0530
30054W        W46901   8.408   4.673   9.828  0.2189  0.0762 -0.2056
30055W        W46902   3.648  18.415   3.548  0.0869 -0.2816  0.0638
30056W        W46903   2.657  10.762  10.704 -0.0554  0.0106  0.0608
30057W        W46904  17.810   0.259   2.567 -0.0313  0.0114  0.0265
30058W        W46905   1.591   9.703  12.758  0.0045 -0.5091  0.0864
30059W        W46906   0.411   2.000  12.308  0.1663  0.1316  0.0856
30060W        W46907  19.327  11.620  14.034  0.3117 -0.0467  0.0379
30061W        W46908  12.596   6.767   9.721 -0.5542 -0.3026 -0.0126
30062W        W46909  13.875   2.699   5.022  0.0894  0.0724 -0.0397
30063W        W46910  10.390  11.954   1.850  0.0209  0.3703  0.1506
30064W        W46911  17.641   4.483   1.494 -0.2837 -0.0106 -0.1924
30065W        W46912   5.494  10.316   2.761 -0.2276 -0.0778 -0.0713
30066W        W46913  12.960  18.782  12.604  0.0106 -0.0723  0.3554
30067W        W46914   5.238  15.454   1.813  0.1439  0.2040  0.0029
30068W        W46915   7.146   1.966  13.682 -0.0225 -0.4027  0.1947
30069W        W46916   7.118  10.073  11.313 -0.1599  0.3285  0.2450
30070W        W46917  13.968   0.394   1.309  0.1017  0.1759 -0.0237
30071W        W46918   2.616   1.410  11.366  0.1831  0.0033  0.0215
30072W        W46919  17.135  15.022   1.845 -0.1576 -0.0369 -0.1752
30073W        W46920  14.614   8.355  12.936 -0.0421 -0.1938  0.0712
30074W        W46921  17.279  15.657  11.060  0.0717 -0.0440 -0.2642
30075W        W46922   7.052   7.484   1.239 -0.0335  0.1276 -0.0358
30076W        W46923   3.408   3.609   1.098 -0.0368  0.0831 -0.0759
30077W        W46924  13.461   4.956   1.443  0.0979  0.0138  0.2685
30078W        W46925  19.356   1.728   0.518  0.0562  0.2538  0.1524
30079W        W46926  16.120  18.402  11.714 -0.1111  0.0426  0.0167
30080W        W46927  17.159  16.967  11.587 -0.1141 -0.1436  0.4728
30081W        W46928   0.851  17.069   0.562  0.2362 -0.0376  0.0183
30082W        W46929  15.938   7.231  11.262  0.0861 -0.0572  0.2230
30083W        W46930  12.572   5.039   2.681  0.1649 -0.0227  0.1882
30084W        W46931  19.508   0.773  14.079 -0.0443 -0.0068  0.0802
30085W        W46932   8.721  11.152   0.453 -0.1591 -0.1319  0.0755
30086W        W46933   4.851   1.757   4.770  0.2291 -0.1977  0.0887
30087W        W46934  16.936  18.616   2.968  0.1674 -0.1225 -0.0277
30088W        W46935  13.625   6.882   2.908  0.2833 -0.2275 -0.0359
30089W        W46936   6.961  11.488  11.574  0.0312  0.0471  0.1370
30090W        W46937   0.591   5.390   2.700  0.0673  0.0830 -0.4008
30091W        W46938  17.685  15.720  12.617 -0.2608 -0.0702  0.0464
30092W        W46939   0.059   0.532  11.499 -0.0168 -0.0553 -0.0880
30093W        W46940   7.430   2.836   4.940  0.1015  0.1256  0.1013
30094W        W46941  14.972  16.582  11.572  0.2294 -0.0215  0.0161
30095W        W46942   8.233  15.261  10.789  0.0046  0.0842 -0.1245
30096W        W46943   4.498   3.955   3.366  0.1149  0.0184 -0.0567
30097W        W46944   8.952   2.209  12.730 -0.1238 -0.0068 -0.1997
30098W        W46945   7.452  17.202  11.814 -0.0069  0.0993  0.0644
30099W        W46946   3.656   9.368  13.127  0.0024  0.0122 -0.1525
30100W        W46947   8.088   6.148  13.969  0.0005  0.1469 -0.1191
30101W        W46948  17.383  11.096   2.761 -0.1760  0.0896 -0.2220
30102W        W46949   6.045   4.484   9.833 -0.1875 -0.0131 -0.3605
30103W        W46950  12.322  13.112   3.026 -0.1073 -0.0508  0.2341
30104W        W46951  13.369   1.341  14.097 -0.1228 -0.0450  0.0520
30105W        W46952   8.945   6.498   4.140  0.1644  0.4179  0.1181
30106W        W46953   8.802  17.692  11.089 -0.0155 -0.4391 -0.1091
30107W        W46954   4.268  15.464   2.517 -0.2068  0.1352  0.1060
30108W        W46955  12.629  16.829  11.215  0.1770 -0.2260  0.0643
30109W        W46956  16.228   4.220   5.054  0.2656  0.0930 -0.5231
30110W        W46957  10.055  17.936   0.209 -0.2291 -0.0757 -0.3279
30111W        W46958   0.561  19.385   4.757 -0.1773 -0.2234  0.2667
30112W        W46959   4.118  11.518   3.596  0.1799 -0.1984 -0.1584
30113W        W46960   4.856  19.760  12.033  0.0111 -0.2333 -0.1738
30114W        W46961  11.006   8.089   9.388 -0.0918  0.0123 -0.0969
30115W        W46962   8.696   1.678  10.546  0.0977  0.0167  0.1516
30116W        W46963   3.817   9.744   5.102 -0.0965 -0.0650  0.1088
30117W        W46964  10.287  14.558   0.965  0.1678  0.3110 -0.3309
30118W        W46965  16.001   9.506   3.767 -0.1432  0.0238  0.2904
30119W        W46966  13.815  11.898   1.371 -0.1210  0.0557  0.0692
30120W        W46967  16.295  10.375  10.643  0.0191  0.0111 -0.2512
30121W        W46968  15.128   6.841   0.738 -0.1892 -0.1024  0.2655
30122W        W46969   9.446   6.469   3.221  0.4032 -0.1726 -0.3391
30123W        W46970   8.122  11.721  10.378  0.0695 -0.0910 -0.1146
30124W        W46971  17.694   9.323   4.891  0.2124 -0.1782  0.0378
30125W        W46972   7.120  13.127  11.542  0.1389  0.0134  0.0660
30126W        W46973  10.535  12.672  11.952 -0.1998  0.2368  0.2588
30127W        W46974   9.377  11.553   0.640  0.2098 -0.0868  0.2845
30128W        W46975  19.809   9.502   0.518 -0.1572  0.3060 -0.2557
30129W        W46976   1.047  12.882   4.528  0.0771  0.0535  0.3610
30130W        W46977  11.867   5.034   5.257 -0.1176 -0.2418  0.1019
30131W        W46978  14.594   7.303   3.729  0.2861 -0.0994  0.0553
30132W        W46979   7.993   2.738   0.469 -0.1212 -0.1890  0.0070
30133W        W46980   0.680  16.373   1.227  0.1152 -0.0720 -0.1304
30134W        W46981   6.438   0.949  13.880  0.2044 -0.2876 -0.0453
30135W        W46982   9.123  14.941   1.465 -0.3138  0.1536 -0.3198
30136W        W46983   2.567  13.623   0.997  0.0485 -0.2546  0.0526
30137W        W46984   5.813  12.337   2.351  0.0863  0.4062  0.5264
30138W        W46985   5.915  11.015   4.656  0.2041  0.3021 -0.1353
30139W        W46986   4.350  12.772   3.231 -0.0692 -0.0643 -0.0906
30140W        W46987   6.647  17.553   9.687  0.0204 -0.0188 -0.1798
30141W        W46988  11.685   2.420   1.305  0.2661 -0.0454  0.2281
30142W        W46989   9.793  11.897   4.686 -0.0059  0.1438 -0.1410
30143W        W46990  14.527   4.707  10.608  0.0674  0.0211 -0.0037
30144W        W46991   7.028   9.084  13.937 -0.4110  0.1000  0.0606
30145W        W46992   0.441   5.888  12.462 -0.0236  0.1036 -0.0516
30146W        W46993  10.499  10.124   4.559  0.0263  0.0930  0.0514
30147W        W46994   6.588   3.891  14.242  0.1995  0.0859  0.2886
30148W        W46995  14.739   1.399   3.902  0.0307 -0.1832 -0.1829
30149W        W46996  19.270   5.024  10.129  0.0214  0.2849 -0.1079
30150W        W46997  11.954   1.132  11.087  0.2360  0.0068 -0.1553
30151W        W46998  12.152   9.493   1.853  0.0247 -0.0450  0.2343
30152W        W46999   9.484   5.095  13.443 -0.1600  0.1095 -0.1416
30153W        W47000   2.225   1.004  12.084 -0.2538 -0.2586  0.0882
30154W        W47001   0.513   7.829  10.602  0.1373  0.2250  0.0512
30155W        W47002   7.982  14.058   0.697  0.1074  0.0632 -0.0243
30156W        W47003   0.934  18.171  13.440 -0.1613  0.0153  0.4228
30157W        W47004   6.563   9.792   1.426  0.3365  0.2769 -0.1032
30158W        W47005  15.096   8.121  12.203  0.1049  0.0689  0.2932
30159W        W47006   2.881   0.220   2.125  0.1047 -0.0259  0.0281
30160W        W47007  12.460   7.032  14.038 -0.3420  0.2285 -0.0076
30161W        W47008   3.907  10.596   5.689 -0.2157  0.1117 -0.2354
30162W        W47009   9.260   2.003  11.232 -0.3608 -0.1410 -0.0645
30163W        W47010   2.291  10.522   2.549 -0.1447 -0.0652 -0.4800
30164W        W47011   2.967  13.531   0.753 -0.1158 -0.1559  0.1481
30165W        W47012  13.055  18.362   0.710  0.1183 -0.0557 -0.0201
30166W        W47013  16.598  18.381   3.461  0.2941 -0.1269  0.2388
30167W        W47014   5.404   6.373   0.319 -0.1827 -0.1025 -0.3002
30168W        W47015   4.057  10.093   4.203  0.1040 -0.2768  0.0762
30169W        W47016   3.886  15.343   5.270  0.1494 -0.0704 -0.1121
30170W        W47017   8.437   6.155  10.831 -0.0478 -0.0356  0.0974
30171W        W47018  17.318   3.305   3.275  0.0567  0.1021 -0.1539
30172W        W47019  15.272  12.340  14.018 -0.0204  0.0892  0.1193
30173W        W47020   9.551   0.159  10.272  0.1299 -0.2040  0.3726
30174W        W47021   6.901  10.222  10.872 -0.3705 -0.1484  0.0840
30175W        W47022   9.654  12.938  10.624 -0.0696 -0.2253 -0.1630
30176W        W47023   2.868  19.458  11.416  0.1403  0.1043 -0.2249
30177W        W47024   8.930  14.940   5.530 -0.3543  0.2089 -0.1088
30178W        W47025   7.264   8.408  14.354  0.4601 -0.0185 -0.4721
30179W        W47026  10.049  18.486   4.672  0.2210  0.0555 -0.0888
30180W        W47027  10.864  14.507  13.791  0.1505  0.0053  0.0057
30181W        W47028  18.117   8.098   4.280 -0.1645 -0.2415 -0.0255
30182W        W47029  12.728   3.511   1.169  0.1522  0.1067 -0.0450
30183W        W47030  15.725   9.860  13.572 -0.2413 -0.2088 -0.0312
30184W        W47031  11.881  12.958   0.656 -0.2864  0.0419  0.0677
30185W        W47032  19.635  10.455   3.774  0.2243 -0.0911  0.2968
30186W        W47033   6.377   1.474   1.230  0.1078  0.4659 -0.2895
30187W        W47034  12.282   5.417   5.406 -0.1192  0.3631  0.1146
30188W        W47035  19.150  12.295  12.726 -0.2639 -0.1595  0.0117
30189W        W47036  11.471  16.995  13.329  0.0983 -0.0103 -0.0731
30190W        W47037  13.230   6.150   3.726 -0.0338  0.3416 -0.1563
30191W        W47038  11.523  11.318  10.563 -0.1911 -0.1429 -0.2119
30192W        W47039   0.808  15.542   2.145 -0.2356 -0.2733 -0.2604
30193W        W47040  15.474  10.942  14.362 -0.0062  0.1971  0.2150
30194W        W47041   1.621   8.757   2.411 -0.0381 -0.0281  0.1205
30195W        W47042   4.316  13.660   3.575  0.2090 -0.3126 -0.0835
30196W        W47043   7.002   9.906  13.815 -0.1122 -0.0876 -0.2953
30197W        W47044  19.117  12.352   2.407  0.0790  0.0302 -0.1639
30198W        W47045   4.387  17.265  12.871 -0.2967  0.0633  0.4268
30199W        W47046   8.776   1.124   4.554 -0.0382 -0.2489 -0.2375
30200W        W47047   1.865  16.369  13.658 -0.0185 -0.2342  0.2337
30201W        W47048  11.228   0.916   4.757 -0.1056 -0.0332 -0.3057
30202W        W47049   6.941   8.607  14.014  0.2930 -0.1370  0.0856
30203W        W47050  12.993  12.436   4.301 -0.0009  0.0914 -0.1324
30204W        W47051   9.032  10.596  13.272  0.3926  0.0684 -0.1489
30205W        W47052  11.515  12.295   3.845 -0.3276 -0.1662  0.2405
30206W        W47053  16.589   0.138  13.763  0.0996 -0.0483 -0.2731
30207W        W47054  13.521  18.578   1.622 -0.4882  0.1073  0.2565
30208W        W47055  19.665   1.025   1.310  0.0013  0.1014  0.3214
30209W        W47056  13.204   9.504  12.602 -0.1741  0.1937  0.0467
30210W        W47057  16.328   0.175  10.805  0.0029 -0.3611 -0.0630
30211W        W47058   1.259   0.462   4.836 -0.0075  0.0167 -0.0891
30212W        W47059  10.040  16.948  13.735  0.0063 -0.1408 -0.1730
30213W        W47060   0.045  16.353  11.563  0.0787  0.0002  0.0517
30214W        W47061   6.440  13.661   2.832  0.0073 -0.0787 -0.0340
30215W        W47062   1.771   4.745   4.393  0.4240  0.0752  0.0553
30216W        W47063  14.589  18.609   2.352 -0.3410  0.0720  0.0748
30217W        W47064  17.116  16.543   3.545  0.2120 -0.1468  0.0295
30218W        W47065  13.811   8.511  11.201  0.1706  0.3938 -0.0980
30219W        W47066  11.628  15.084   1.978 -0.0113  0.1524 -0.0684
30220W        W47067   0.208  17.906  13.820 -0.0825  0.2453 -0.1122
30221W        W47068   7.206  17.944  11.205 -0.0706 -0.0500 -0.0820
30222W        W47069  14.941  14.856  11.433 -0.3738 -0.1596 -0.3593
30223W        W47070   7.839   9.148   1.169 -0.0373 -0.2658 -0.2220
30224W        W47071   7.846   2.783  10.015  0.4398  0.1175  0.0243
30225W        W47072   5.390  19.866  12.703  0.1253 -0.2152 -0.2100
30226W        W47073  16.522  12.559   1.285 -0.2022  0.0916  0.0877
30227W        W47074  14.741  12.047   1.333 -0.2551  0.1013  0.1845
30228W        W47075  15.597   6.232  11.192 -0.5454 -0.0047  0.0356
30229W        W47076  10.454  16.831   2.905 -0.0814 -0.3424  0.0214
30230W        W47077   2.969   7.361   1.201 -0.3428 -0.0832 -0.0070
30231W        W47078  17.664  15.479  13.846  0.0023 -0.0378  0.5045
30232W        W47079   2.495   4.769  14.130 -0.3321 -0.1346 -0.0216
30233W        W47080  10.037  16.198  13.964  0.1679  0.2724  0.0269
30234W        W47081   0.803  13.561   1.033  0.0121  0.0912  0.3382
30235W        W47082  15.800   7.941  11.690 -0.3984  0.0974 -0.1005
30236W        W47083   5.458  12.779   3.574  0.1847 -0.0051 -0.0208
30237W        W47084  14.750   4.045  12.893  0.2345  0.0523 -0.1311
30238W        W47085   2.056   9.725  12.993  0.4162 -0.3709 -0.0116
30239W        W47086  19.260   7.813  11.587 -0.1690  0.3225 -0.0689
30240W        W47087   3.867  17.584   1.570 -0.1285  0.3337  0.4822
30241W        W47088  18.568   2.141   3.777 -0.3451  0.0206  0.0693
30242W        W47089   6.741  13.083   9.629  0.0445 -0.0451 -0.3955
30243W        W47090   7.010  17.518  12.397  0.0576  0.2445  0.0646
30244W        W47091   5.551  11.132  13.556  0.0376  0.2102  0.0411
30245W        W47092  14.527   1.182   0.476  0.0121 -0.1282  0.3843
30246W        W47093   7.599   3.236   1.970 -0.1724 -0.0638  0.0762
30247W        W47094   6.986  17.396  11.887 -0.1229 -0.2167 -0.0331
30248W        W47095  15.306   8.719   1.495  0.1047  0.1309 -0.0257
30249W        W47096  11.958  10.895   3.832  0.1802 -0.0547 -0.1607
30250W        W47097  14.308   5.618   1.308 -0.0375 -0.1672  0.1343
30251W        W47098   5.489   4.897  14.234  0.2239  0.0325 -0.0088
30252W        W47099  11.332  10.724   3.155 -0.2041 -0.0092 -0.0710
30253W        W47100  13.645   8.930   2.635  0.0484 -0.0754 -0.1660
30254W        W47101  10.879   9.873  12.608  0.0273  0.1556  0.0772
30255W        W47102  15.858  14.023  10.301 -0.3328 -0.1226 -0.2895
30256W        W47103  11.461  16.702   2.176 -0.1797 -0.1617  0.0633
30257W        W47104   0.411  18.949   3.995  0.1661  0.2012  0.1999
30258W        W47105  17.281  16.708   3.079 -0.2256 -0.2671  0.2201
30259W        W47106  19.795   4.382  14.192  0.0709  0.2770 -0.1431
30260W        W47107   5.766  11.176   2.519 -0.0596  0.0684  0.0108
30261W        W47108  15.882  11.460   0.722 -0.2762  0.0655  0.1808
30262W        W47109  18.516  12.998   9.561  0.0031 -0.1787  0.2943
30263W        W47110   7.617  19.285   2.185 -0.0686  0.1294 -0.2200
30264W        W47111   8.470  15.734   0.127 -0.0549 -0.1362  0.0296
30265W        W47112   1.952   1.856  10.545 -0.0623  0.1465  0.3107
30266W        W47113   9.207   1.065   0.883 -0.0723  0.2742  0.0048
30267W        W47114  17.921   1.814   2.222 -0.0987  0.0552 -0.1245
30268W        W47115   5.562   2.728   9.556  0.1292  0.0479  0.2287
30269W        W47116   0.570   3.450   0.353  0.2912  0.0446 -0.1486
30270W        W47117   9.831  14.757   4.802 -0.0364 -0.1656  0.0073
30271W        W47118   4.692   3.678   3.827  0.0098  0.1703 -0.0750
30272W        W47119   5.588   1.809  13.953 -0.0976  0.3144  0.0040
30273W        W47120   5.311  15.247   0.082 -0.2319 -0.0688 -0.0269
30274W        W47121   1.298  17.820   3.200 -0.2455  0.0494 -0.1872
30275W        W47122   1.725  17.077   4.496 -0.1340  0.0664  0.0200
30276W        W47123   4.931   4.984   1.637 -0.1545 -0.0194 -0.2832
30277W        W47124  12.060   7.486  11.356 -0.1486  0.1934  0.1544
30278W        W47125   0.963   8.560   0.209 -0.1918  0.2236 -0.0980
30279W        W47126  14.343  19.150  13.470 -0.0255  0.0833  0.3688
30280W        W47127  11.821   8.227   3.151  0.0718  0.1242  0.0548
30281W        W47128  17.032   9.972   3.500  0.2099 -0.0992 -0.1880
30282W        W47129  13.884  13.365  11.787 -0.1094  0.1853 -0.0895
30283W        W47130  19.085  16.085   0.484 -0.1551 -0.0860  0.0722
30284W        W47131   9.711  14.624   2.836 -0.1791 -0.3297 -0.1098
30285W        W47132  13.031   8.903   4.129 -0.0125 -0.0190  0.0452
30286W        W47133  12.502  15.181   0.762  0.0623  0.2349 -0.3692
30287W        W47134   1.880  19.311   4.170 -0.7289 -0.2194 -0.0203
30288W        W47135   8.062  15.206  14.307  0.0199  0.0252 -0.0355
30289W        W47136  14.749  12.735  14.022  0.1191 -0.1441 -0.0692
30290W        W47137   3.519  10.081   4.292  0.0129 -0.1377 -0.2593
30291W        W47138   5.067   3.361   4.709 -0.4998 -0.1741 -0.2953
30292W        W47139   5.144   8.693   3.037 -0.1541  0.1491  0.0872
30293W        W47140  12.258  11.560  12.043  0.4153  0.1139  0.0169
30294W        W47141   3.708  12.312   3.634 -0.1864 -0.0329 -0.3124
30295W        W47142   5.254  14.723   0.589 -0.0455  0.3012  0.0182
30296W        W47143   5.078   9.112   3.281  0.1263  0.1816  0.3235
30297W        W47144  11.469   4.352   3.960  0.0773 -0.2705  0.0832
30298W        W47145  13.274  11.384   2.660 -0.2556  0.2574  0.2447
30299W        W47146   3.950  17.183  12.508  0.3259  0.0659  0.1397
30300W        W47147  15.592  13.368   3.514  0.0682  0.0924 -0.3746
30301W        W47148   0.128  11.907  14.234 -0.2618  0.1491 -0.0857
30302W        W47149  16.149   7.183  10.304  0.1351 -0.2986  0.2591
30303W        W47150  16.935   0.999   0.476 -0.0957  0.2015  0.2321
30304W        W47151  17.364  10.031  10.374 -0.0561 -0.0502 -0.0557
30305W        W47152  11.128  17.936  12.534 -0.1362 -0.2050 -0.4129
30306W        W47153   0.388   8.817   1.002 -0.2794 -0.0961  0.1466
30307W        W47154   6.828   5.976  13.572 -0.0125  0.6259 -0.1510
30308W        W47155   3.219  15.892  11.627 -0.1147 -0.1535 -0.2617
30309W        W47156   2.522  15.961  12.100 -0.3439  0.3756  0.1467
30310W        W47157  15.217  18.038   9.768  0.1670 -0.2047 -0.1197
30311W        W47158  12.882   3.555   4.197  0.0986  0.0005 -0.2227
30312W        W47159   4.161  11.229  10.466  0.5464 -0.2528  0.3236
30313W        W47160   3.414   5.778  11.231  0.1003 -0.2030  0.0441
30314W        W47161  10.862   3.723   2.459 -0.0158  0.2207  0.0877
30315W        W47162   2.266  13.158   1.056 -0.0686 -0.0134 -0.1172
30316W        W47163   2.127   4.269   4.984 -0.1179 -0.1074  0.0588
30317W        W47164  10.952  16.873  10.604  0.1475  0.2344  0.1563
30318W        W47165   2.599  15.488   1.569 -0.0223  0.3818  0.2087
30319W        W47166  15.937   9.874  14.088  0.2478 -0.1881  0.1218
30320W        W47167  18.789  17.488  11.077  0.2930  0.0361 -0.2801
30321W        W47168  13.773  11.833   2.741  0.2777 -0.1096 -0.0409
30322W        W47169  13.843   1.226   3.907  0.1735  0.2494 -0.0660
30323W        W47170   7.080  10.459   5.325  0.0573 -0.0328 -0.1259
30324W        W47171   1.196   7.449  12.878 -0.1222  0.1114  0.0462
30325W        W47172  14.045  13.369  14.113  0.1418 -0.2179  0.3184
30326W        W47173   9.484   8.682  12.384 -0.0208  0.0301 -0.2102
30327W        W47174  16.413   6.536  11.521  0.2707  0.0149 -0.2393
30328W        W47175   5.472   4.985  10.141 -0.0114  0.0327 -0.2347
30329W        W47176   6.176   3.657  14.035  0.0279  0.4297  0.2521
30330W        W47177  15.743   3.708  13.866  0.0242 -0.0127 -0.0153
30331W        W47178   1.957   2.799   4.174  0.0776  0.2500 -0.0128
30332W        W47179  13.246  15.578   2.792  0.3095 -0.2624 -0.0165
30333W        W47180   2.792  13.606  10.614  0.0100 -0.1585  0.0079
30334W        W47181   3.892  13.878  13.512 -0.1345 -0.1384 -0.0189
30335W        W47182  15.191  12.463  12.338  0.0015  0.0661 -0.0322
30336W        W47183  14.231   0.928  14.096  0.0414 -0.0129  0.0028
30337W        W47184  14.227   0.232   2.257 -0.2620 -0.0269 -0.0298
30338W        W47185   3.129   1.409   0.717  0.1759  0.3550  0.1547
30339W        W47186   3.281  14.705   5.306  0.0510  0.0113  0.1226
30340W        W47187  10.739  19.658  10.133 -0.0568  0.2160 -0.1614
30341W        W47188  13.165  16.642   9.862  0.1769 -0.1263 -0.0170
30342W        W47189  16.902   0.963  11.849  0.1421 -0.2240 -0.0906
30343W        W47190   2.848   4.401   1.865 -0.2414 -0.0717 -0.0842
30344W        W47191  13.864   7.180  11.603 -0.0252 -0.0153  0.0266
30345W        W47192   6.895  11.275  13.672 -0.3498  0.0236 -0.2795
30346W        W47193   6.602   4.042  10.065  0.0928  0.0104  0.1091
30347W        W47194  18.479   6.164  11.981  0.0566  0.1312 -0.1319
30348W        W47195   2.064   9.700   2.297 -0.1291  0.2422  0.0289
30349W        W47196   8.022  16.153  12.115 -0.0973  0.1286  0.1310
30350W        W47197  13.298  12.701  13.583 -0.3838  0.0427 -0.2468
30351W        W47198  13.611   8.072   3.317  0.2388  0.0246  0.2293
30352W        W47199  14.838  10.277   2.839 -0.0636  0.3534  0.1125
30353W        W47200  18.235  19.335   9.335  0.0307 -0.1142 -0.0921
30354W        W47201  19.455   9.181  12.177  0.3633 -0.2266 -0.1194
30355W        W47202  18.966   4.350  11.821  0.2832  0.0426  0.0546
30356W        W47203   7.554   8.762  11.628 -0.2507  0.2235  0.2226
30357W        W47204   0.759   4.701   4.259 -0.1000  0.1157 -0.0632
30358W        W47205   7.116  10.523   0.901  0.0057  0.1462  0.0374
30359W        W47206   1.342  12.431  13.156  0.0001  0.1009  0.1123
30360W        W47207  13.966  15.586   3.621  0.1612  0.0251 -0.0941
30361W        W47208  13.834   4.562  11.386  0.3110 -0.2062  0.0173
30362W        W47209   1.574  13.091  10.770  0.0295 -0.2661  0.0003
30363W        W47210   8.673  18.695  12.425 -0.3993 -0.2180  0.1119
30364W        W47211  14.741   2.809   3.825 -0.2310  0.0342  0.2876
30365W        W47212  17.002  12.408   4.336  0.1502  0.1960 -0.1224
30366W        W47213  11.111  14.930  14.062 -0.3906 -0.1440  0.0064
30367W        W47214   5.019   7.708   3.734 -0.1585 -0.0737  0.3442
30368W        W47215  15.112  12.791  10.143 -0.1713 -0.0866  0.0246
30369W        W47216  16.525  10.996   2.443 -0.0799 -0.0489 -0.1076
30370W        W47217   4.965  10.208   4.517  0.0119  0.0476  0.0049
30371W        W47218  15.601  17.969  13.496 -0.4543 -0.2106 -0.2272
30372W        W47219  18.433  14.685  11.072 -0.2487  0.3195  0.2131
30373W        W47220   5.289   6.742   4.540 -0.3258 -0.0371  0.2537
30374W        W47221   3.021   3.339   0.020  0.0686 -0.0274  0.1343
30375W        W47222   1.348  11.320   0.160 -0.0928 -0.1599 -0.0332
30376W        W47223  18.985  13.952  10.673 -0.0959  0.2210  0.0803
30377W        W47224   9.042   7.255   0.703  0.1112 -0.1162 -0.1629
30378W        W47225  14.968   0.596  11.768 -0.1847 -0.3332  0.0176
30379W        W47226   6.669  12.785   3.634 -0.0854  0.1313 -0.0612
30380W        W47227   1.761  13.383   3.469  0.2273 -0.1686 -0.3121
30381W        W47228  10.736   6.110   0.717 -0.1799 -0.0903 -0.0895
30382W        W47229  14.894   9.788  10.916 -0.2335  0.1130 -0.2296
30383W        W47230  11.582  19.687  10.540 -0.1066 -0.0460  0.2240
30384W        W47231  10.325   9.165   0.674  0.1385 -0.0603  0.2156
30385W        W47232  15.638   6.368   3.636  0.6834  0.0569 -0.2614
30386W        W47233   5.927   2.831   1.815  0.0025 -0.1203 -0.3600
30387W        W47234   4.110  15.917   0.777 -0.0682  0.0785  0.2862
30388W        W47235   3.096  17.630   4.494 -0.1700 -0.1968 -0.0121
30389W        W47236  19.574   7.072  14.352 -0.2764  0.1311 -0.1990
30390W        W47237   6.548  17.000   1.308  0.2584 -0.4634 -0.3431
30391W        W47238   3.940   1.232   2.614 -0.0364  0.3701  0.2707
30392W        W47239  17.542   3.005   1.305 -0.1586 -0.1232 -0.6845
30393W        W47240   2.297   5.111   0.573  0.1643 -0.1901  0.4027
30394W        W47241   1.884  12.410  14.256  0.2342 -0.1403  0.3185
30395W        W47242  12.051  12.595  10.569 -0.1441 -0.0219 -0.1129
30396W        W47243   3.005   1.144   0.059  0.3717 -0.3694  0.2034
30397W        W47244   3.137   5.845  10.444 -0.0784  0.1096 -0.0952
30398W        W47245   0.344   4.068   2.938  0.0861  0.0889  0.2404
30399W        W47246   0.170   4.846  12.524  0.3086 -0.1148  0.0144
30400W        W47247  19.638   3.952   1.558  0.1170  0.3522 -0.3529
30401W        W47248  14.322   2.567   3.190 -0.1364 -0.1906  0.2112
30402W        W47249  10.234   4.711   0.989 -0.2049 -0.1391 -0.1296
30403W        W47250   4.961   9.770   2.286 -0.2196 -0.5497 -0.1867
30404W        W47251  19.513  14.260  13.734  0.0225  0.2147  0.0145
30405W        W47252   6.319   6.346   0.828 -0.1355 -0.0943 -0.1807
30406W        W47253   7.199  10.467  10.578 -0.1523 -0.1268 -0.4779
30407W        W47254   4.443   7.248  14.305  0.3048  0.1490 -0.1795
30408W        W47255  15.077  11.422  12.584  0.1393  0.0296  0.0339
30409W        W47256   7.995   5.149  10.582  0.0736  0.1520  0.0673
30410W        W47257   9.360  19.727   4.416  0.0107 -0.0000 -0.4594
30411W        W47258  16.461   3.581   2.564  0.2884  0.0321 -0.0531
30412W        W47259  15.791   2.031  13.544  0.2332 -0.0571 -0.0083
30413W        W47260  14.618  18.200  13.937 -0.2405  0.0837  0.0204
30414W        W47261   3.290  16.495  11.861 -0.3310 -0.1735  0.3670
30415W        W47262   8.308  16.402  12.465  0.2679  0.0922  0.0094
30416W        W47263   2.874  13.444   2.593 -0.1753  0.3661 -0.1325
30417W        W47264   0.296   9.894  14.177 -0.1544  0.0165  0.2013
30418W        W47265   8.056   5.565   2.188  0.1244  0.1126  0.0181
30419W        W47266   6.377  12.062   3.057  0.2922  0.1162  0.2253
30420W        W47267   4.172   2.633  11.688  0.1428 -0.1564  0.0576
30421W        W47268  17.440   5.838  11.491  0.2680  0.0864 -0.0199
30422W        W47269   7.924   8.401   4.160  0.0853 -0.0724 -0.0299
30423W        W47270  15.487  13.350   0.770 -0.1996 -0.2310  0.1047
30424W        W47271  15.273   1.979   3.669 -0.0290 -0.0979  0.1327
30425W        W47272  18.810  13.869  12.136 -0.1344  0.0005  0.2305
30426W        W47273  10.092  10.107  11.552  0.1953 -0.5304 -0.0422
30427W        W47274   5.665   6.145  10.596 -0.2995  0.1270 -0.0169
30428W        W47275   1.395   9.849  10.778  0.1144 -0.1495 -0.0803
30429W        W47276  10.623   2.121   1.893  0.5109  0.2216  0.1569
30430W        W47277   9.573  18.932   3.863  0.2921  0.2110 -0.2050
30431W        W47278  10.114  15.033   2.944  0.0531 -0.0895  0.3229
30432W        W47279   1.904   3.042  11.567  0.0557 -0.1071 -0.0016
30433W        W47280   2.330  16.451   4.469 -0.0924  0.2668  0.1953
30434W        W47281   6.129   6.164  10.221 -0.0209  0.0088  0.0929
30435W        W47282   7.260  14.304   1.462 -0.1217  0.0268 -0.0390
30436W        W47283   8.798   3.212   2.514  0.3131 -0.0167  0.2895
30437W        W47284   0.091  16.178   3.797 -0.1756  0.2546  0.1225
30438W        W47285   3.784  17.169  11.918 -0.1349  0.1523  0.1925
30439W        W47286   6.327  14.749   0.104  0.4777 -0.1856  0.2001
30440W        W47287  19.011  16.169   1.600 -0.1256 -0.1721  0.0116
30441W        W47288  16.135  15.147  12.559  0.1468  0.0902 -0.1650
30442W        W47289  13.779   5.002   0.952  0.1755 -0.0391  0.1960
30443W        W47290  13.301  10.886  12.523  0.0889 -0.1025 -0.1150
30444W        W47291  17.421  13.542   1.436  0.0036  0.1647 -0.0754
30445W        W47292  10.686  17.567  14.362 -0.0766  0.2081 -0.0697
30446W        W47293   9.448   8.720   4.436 -0.1218  0.0430 -0.0310
30447W        W47294  18.545   1.701   4.471  0.1317  0.0093  0.2946
30448W        W47295   6.082   4.375   0.329 -0.0357 -0.0567  0.2662
30449W        W47296   7.891  17.297  12.060  0.1154 -0.0116 -0.1826
30450W        W47297  14.377   5.254  14.048 -0.1806 -0.0698 -0.1875
30451W        W47298   1.070   5.266   9.090 -0.3463 -0.0576 -0.2922
30452W        W47299   0.187   5.731  12.928 -0.0220  0.4937  0.0550
30453W        W47300  19.775   5.042  11.615  0.3554 -0.0734  0.1584
30454W        W47301   9.210  19.363  12.639 -0.3406  0.2840  0.0901
30455W        W47302  16.154  12.670   2.222  0.2048 -0.0875  0.0275
30456W        W47303  12.869   3.249  11.196  0.0696  0.0250 -0.0709
30457W        W47304   7.642  11.761   1.963  0.0467 -0.0105  0.0989
30458W        W47305  15.365   5.334  10.094  0.0487 -0.1631 -0.2214
30459W        W47306   2.933   9.830  13.711 -0.0996 -0.0643 -0.2888
30460W        W47307  17.422   2.615  11.994 -0.3565  0.2216  0.1949
30461W        W47308  15.394  15.845   3.388 -0.2064  0.0972  0.0121
30462W        W47309  15.431  18.741  11.599  0.0521  0.0345  0.0742
30463W        W47310  17.974  11.072  13.066  0.1421 -0.3364 -0.1635
30464W        W47311   6.679   1.496   2.561 -0.0898 -0.0156 -0.0746
30465W        W47312   5.843  18.451  11.586 -0.0178 -0.0006  0.0403
30466W        W47313   8.879  16.964  11.894  0.2030 -0.0416 -0.2445
30467W        W47314   5.511   2.305  13.746  0.3172 -0.2833 -0.1336
30468W        W47315  15.965   1.367   0.417  0.1990  0.0886  0.1082
30469W        W47316   5.080  16.571  13.383  0.3219  0.1179 -0.5743
30470W        W47317  10.668   2.676   1.203  0.1169  0.3620  0.3973
30471W        W47318  18.007  17.364   3.912  0.0899 -0.1011  0.1883
30472W        W47319   1.095  10.684   1.236  0.3788  0.0186  0.2357
30473W        W47320  12.544   7.426   1.011 -0.2422  0.0282 -0.0851
30474W        W47321   3.976   5.542   8.766  0.0933  0.2533  0.1591
30475W        W47322  18.382  19.048  10.872  0.0305  0.1856 -0.2748
30476W        W47323  14.889   8.532   3.536  0.0426  0.2058  0.0808
30477W        W47324  16.680   4.040  12.467 -0.2079 -0.3499  0.0720
30478W        W47325  10.347  17.441  10.091  0.1407 -0.1968  0.3385
30479W        W47326  13.406  19.150   1.822  0.1606  0.1362 -0.1662
30480W        W47327  18.316  15.190   3.897  0.0632 -0.3421  0.0069
30481W        W47328  18.929  18.308  11.412 -0.0075 -0.1268 -0.1384
30482W        W47329   1.482   3.860  11.821 -0.1035  0.1386 -0.0887
30483W        W47330   0.709   9.901  11.704  0.2387  0.1364  0.3112
30484W        W47331   2.964  14.193   4.682  0.1242 -0.0259  0.0976
30485W        W47332  14.203  18.690   3.658  0.2677  0.0470  0.2836
30486W        W47333   5.372   2.252  13.200 -0.2414  0.0491 -0.1389
30487W        W47334  12.241  18.993   4.237  0.2068 -0.0409  0.2772
30488W        W47335   8.810   4.734  11.730  0.1149  0.0172  0.0670
30489W        W47336   6.296  13.035  11.090  0.0368  0.2069  0.1458
30490W        W47337  16.045   6.174   0.583  0.1298 -0.0305  0.1806
30491W        W47338  17.839   9.963   5.277 -0.1916  0.0662 -0.3019
30492W        W47339  18.694   8.868   3.663 -0.1621 -0.0522 -0.3406
30493W        W47340  19.305  10.405  11.291  0.1334 -0.1313 -0.2042
30494W        W47341  12.786   4.761   4.817  0.0225  0.1131  0.1112
30495W        W47342   7.637  12.160  10.578  0.2506 -0.1671 -0.2986
30496W        W47343   6.694   9.407   0.518  0.2818  0.0153 -0.0560
30497W        W47344   5.979  19.552  12.048  0.1061  0.0553  0.2395
30498W        W47345  12.434   6.654   1.936  0.0821  0.1053  0.3258
30499W        W47346   0.646  17.095   3.810 -0.0535 -0.2452 -0.1632
30500W        W47347   2.319  16.200  11.552 -0.2624  0.2251 -0.0205
30501W        W47348  12.497  15.964   4.996 -0.3611  0.1136 -0.3765
30502W        W47349   6.605   3.661  10.947 -0.0387 -0.0005 -0.0560
30503W        W47350   2.371   0.118   2.115  0.3127  0.0404 -0.2436
30504W        W47351   1.510  11.740  10.390 -0.2206  0.1501  0.1729
30505W        W47352   2.638   9.265   2.914 -0.1951  0.0248 -0.0991
30506W        W47353   6.046  17.418  12.289 -0.1153 -0.0337 -0.0860
30507W        W47354  13.587  18.044   0.860 -0.2512 -0.2062 -0.2973
30508W        W47355  16.692   0.555   1.923  0.4801 -0.1956  0.1129
30509W        W47356   4.193  15.199  12.435  0.0267  0.2291  0.1207
30510W        W47357   8.910   3.661  13.417  0.1176  0.0623 -0.1561
30511W        W47358  12.947  11.368  11.326 -0.0583 -0.0095 -0.1670
30512W        W47359  17.075  15.773   3.939  0.0086  0.0177  0.2401
30513W        W47360  19.824  11.730   3.167 -0.1955 -0.0365  0.2538
30514W        W47361  13.972  14.894   2.814  0.1250  0.1480 -0.2703
30515W        W47362   6.410   2.729  11.029 -0.0969  0.0573  0.2115
30516W        W47363  11.315   3.175   1.248  0.0083 -0.2312 -0.0958
30517W        W47364  14.542   0.666  13.296 -0.0229  0.0399  0.0707
30518W        W47365   4.120   2.328   1.163 -0.1156 -0.2276 -0.0533
30519W        W47366  12.048   4.689  10.519  0.0815  0.1711  0.1211
30520W        W47367  15.162  18.911   3.212  0.0165 -0.3326 -0.1946
30521W        W47368  18.000   7.033   4.252 -0.1062 -0.1888 -0.2012
30522W        W47369   0.155   7.779  14.341 -0.3973 -0.5504  0.0221
30523W        W47370  14.344  17.483  10.765 -0.2299  0.0104  0.1098
30524W        W47371  14.372  12.474  11.732 -0.1583  0.3034 -0.0719
30525W        W47372   9.051   1.425  10.058  0.1222  0.2056 -0.5905
30526W        W47373   4.411  19.792  12.374 -0.0968 -0.1057 -0.0367
30527W        W47374  14.955   8.101  12.679 -0.0740  0.0598 -0.3279
30528W        W47375   8.808   1.005   9.957 -0.1106 -0.0056  0.3735
30529W        W47376   8.891   8.618  11.829  0.1870  0.0381 -0.3928
30530W        W47377   1.014  19.641   9.851  0.0850 -0.0086  0.1506
30531W        W47378  13.230   4.468  11.120  0.0896  0.0781 -0.3308
30532W        W47379  18.046  13.549  11.364 -0.3611 -0.0633  0.0909
30533W        W47380  16.875   7.788  11.403 -0.2189 -0.4269  0.3703
30534W        W47381  18.314  14.839   2.216 -0.0884 -0.1373  0.1763
30535W        W47382   9.934   1.837  12.151 -0.1614  0.2197 -0.1441
30536W        W47383   0.392   4.881  11.779 -0.1076  0.0463  0.1659
30537W        W47384   5.252  19.135   2.736 -0.0333 -0.1802  0.0388
30538W        W47385   5.673  19.535   1.827 -0.2195 -0.0240  0.0793
30539W        W47386   1.965  17.739  11.324 -0.1091 -0.1522  0.0695
30540W        W47387   0.751  11.123  10.724 -0.1985 -0.2656  0.1037
30541W        W47388   2.551   7.072  11.181  0.1386 -0.0852  0.1112
30542W        W47389  10.300   6.820   4.690  0.0485 -0.1419 -0.0223
30543W        W47390  11.011  15.155   0.918 -0.0851  0.3479  0.3431
30544W        W47391   6.422   8.056  11.148 -0.0264 -0.0138 -0.0358
30545W        W47392   4.757  15.358   2.424  0.0116  0.3198 -0.1138
30546W        W47393  12.257   1.981  10.228  0.4136 -0.1755 -0.1458
30547W        W47394   2.132   5.665  10.839  0.1362 -0.2126  0.2129
30548W        W47395   9.513  14.141  10.237 -0.2150 -0.2447  0.2030
30549W        W47396   9.891  19.506   4.951 -0.0039 -0.1692  0.1093
30550W        W47397  18.603   2.108  11.372 -0.1335 -0.0430 -0.4364
30551W        W47398  17.248  11.006   0.237  0.0548 -0.3410 -0.3560
30552W        W47399  10.877   7.585  11.742 -0.1474 -0.1851  0.0816
30553W        W47400   7.063   5.985  12.606  0.0954 -0.2465  0.0638
30554W        W47401   1.040   6.379  12.794  0.0076  0.2499  0.1152
30555W        W47402  10.423  15.971   1.730  0.0661 -0.0390 -0.0780
30556W        W47403   2.975  16.972   3.948 -0.1063  0.3259  0.1539
30557W        W47404  17.732  16.618  12.926  0.2430 -0.0195 -0.0966
30558W        W47405  10.555  18.665   3.579  0.0030  0.1898  0.0984
30559W        W47406   6.266  14.647   1.464 -0.0043 -0.2955 -0.2193
30560W        W47407   3.495  15.596  12.832 -0.3627 -0.2851  0.1492
30561W        W47408   2.044  18.806   0.765 -0.0920 -0.1410 -0.2727
30562W        W47409   1.907   1.553  11.345  0.2731  0.1607 -0.2061
30563W        W47410  10.592   6.801   2.300  0.0442 -0.0537 -0.0761
30564W        W47411   9.610  16.228   3.764 -0.2050 -0.0742 -0.0856
30565W        W47412  15.131   6.278  11.210  0.2363 -0.2751  0.3135
30566W        W47413   6.005   8.311  11.330 -0.1072 -0.0503  0.1158
30567W        W47414  16.612  18.864   4.818  0.1302  0.0192  0.0388
30568W        W47415  12.586   1.728   2.542 -0.0094  0.0627 -0.3289
30569W        W47416  18.001   1.378   3.898  0.0313 -0.0977 -0.1258
30570W        W47417   9.415   9.380  14.003 -0.0329  0.2751  0.0094
30571W        W47418  19.795  11.067  13.204  0.1734  0.2734  0.0537
30572W        W47419  13.342   6.098   2.386 -0.0864 -0.2937  0.0237
30573W        W47420   9.414   7.845   3.431  0.4694  0.3938 -0.0001
30574W        W47421  15.377  12.753   1.796  0.1053 -0.2291 -0.2496
30575W        W47422  14.373  13.014   9.409 -0.3354  0.4146  0.0395
30576W        W47423  14.649  19.320   5.303 -0.2547 -0.2735  0.1651
30577W        W47424  11.715  12.325  13.001 -0.1219  0.3741  0.3828
30578W        W47425   7.163  17.720   1.301 -0.0518 -0.0090 -0.0093
30579W        W47426  12.427  12.456  12.949  0.1511 -0.1805  0.1136
30580W        W47427   3.374   1.097  10.874  0.2665 -0.2825 -0.0361
30581W        W47428  13.315  12.593   2.210 -0.0711 -0.2780 -0.1238
30582W        W47429  12.314   7.376  13.581  0.2551 -0.3443  0.1082
30583W        W47430  16.557  18.733  13.381  0.1834 -0.5449  0.0628
30584W        W47431  16.107  10.170   1.391 -0.3719 -0.0228  0.3632
30585W        W47432   9.549   8.525   0.594 -0.3452 -0.1881  0.1355
30586W        W47433  17.376   1.653  11.169 -0.0523 -0.0505 -0.3898
30587W        W47434  10.784  16.102   3.444 -0.1376 -0.1209 -0.2307
30588W        W47435  17.144  10.262   4.170  0.0059 -0.0131  0.3822
30589W        W47436  13.541   6.662  13.230  0.0521 -0.0598  0.4207
30590W        W47437  10.796  18.287  10.404 -0.2490  0.1118  0.1650
30591W        W47438  16.786  19.293   4.148 -0.0169  0.0883 -0.0285
30592W        W47439  12.919   0.525   9.082 -0.0427 -0.1772  0.3332
30593W        W47440   0.257   4.358   4.530 -0.0362 -0.1547  0.1201
30594W        W47441  17.733   4.145  11.233  0.0764 -0.1776  0.2858
30595W        W47442   3.708   7.396   2.837 -0.1648  0.3032  0.0080
30596W        W47443   0.889  17.462  10.319  0.0220  0.0617 -0.0408
30597W        W47444   7.566  15.387   0.714 -0.1631  0.0827 -0.2404
30598W        W47445  19.498  10.372  10.404 -0.5041 -0.0349  0.0543
30599W        W47446  13.081  11.980   3.952  0.2015 -0.2049 -0.2086
30600W        W47447  11.679   3.127   2.333  0.1835 -0.0580 -0.0341
30601W        W47448   4.562   3.818  12.311 -0.3291  0.0578  0.2885
30602W        W47449  13.206   1.154  13.506 -0.1008 -0.1984 -0.1315
30603W        W47450   4.616  15.731   1.324  0.0184 -0.2463  0.3448
30604W        W47451   5.224  14.828   5.787  0.0879  0.0668 -0.1017
30605W        W47452   6.631   3.897   3.024 -0.1856  0.2126  0.0697
30606W        W47453  16.950   5.861  12.771  0.1234  0.1943  0.1789
30607W        W47454   8.296  10.622  10.685 -0.2478 -0.1688 -0.2472
30608W        W47455  19.388  17.622   4.411  0.0268 -0.1993 -0.2082
30609W        W47456  15.531   1.416   2.903 -0.0591  0.0817 -0.0913
30610W        W47457  11.557   2.987   3.352  0.2531 -0.5064 -0.1621
30611W        W47458   3.195   9.598   4.425  0.1057  0.2155  0.0533
30612W        W47459  18.631  10.756   4.588  0.0562  0.0459  0.1199
30613W        W47460   8.043  15.709   0.608  0.2054 -0.0666  0.1639
30614W        W47461   1.588  14.026  10.782 -0.2266  0.2625 -0.1330
30615W        W47462   1.603  17.394  10.308  0.0612  0.1410 -0.0596
30616W        W47463   1.990  18.093  11.715  0.0336  0.1281  0.0320
30617W        W47464  15.188  10.835   3.437 -0.3169 -0.1160 -0.1119
30618W        W47465  15.986  14.434  10.787  0.0810 -0.2122  0.4206
30619W        W47466  19.255   8.706  11.158  0.2608  0.2066  0.1295
30620W        W47467   7.083  19.001  11.024  0.2847  0.1153 -0.5828
30621W        W47468  18.237   3.422  11.673  0.2803 -0.1117 -0.4231
30622W        W47469   4.539   4.856  10.439  0.3007  0.0069 -0.0633
30623W        W47470   0.086   8.556  13.831 -0.3466  0.1766  0.2896
30624W        W47471  11.262  15.125  11.993 -0.1980  0.4058  0.0573
30625W        W47472   9.968  10.016   3.332  0.1616 -0.0869 -0.1748
30626W        W47473   7.247   3.957   0.809 -0.0359  0.0625  0.1242
30627W        W47474  10.294   1.442   0.709  0.0970  0.1632 -0.0530
30628W        W47475  14.532   7.664   2.572 -0.2242 -0.1069  0.1557
30629W        W47476  18.454   2.607   0.452  0.0242  0.1998  0.1747
30630W        W47477   3.808  10.233  13.433  0.0575 -0.2791 -0.1402
30631W        W47478   1.105   0.009  10.360 -0.0393 -0.1053  0.0507
30632W        W47479  10.140   0.778   1.833  0.0159 -0.3711  0.0691
30633W        W47480  14.097   1.322   0.758  0.1708 -0.1673  0.1295
30634W        W47481  12.228  13.714  10.927 -0.2644  0.0421  0.0991
30635W        W47482   9.276  11.645  10.776 -0.0121  0.0248 -0.2397
30636W        W47483   3.218   5.080   3.362 -0.1792  0.3998  0.1007
30637W        W47484   1.352   6.754   3.466 -0.1717 -0.1468 -0.0495
30638W        W47485  11.394  13.235   3.700 -0.0680  0.3814  0.1355
30639W        W47486  11.543  10.560   4.616 -0.1174 -0.0765 -0.0500
30640W        W47487   0.414  11.135  12.426  0.0733 -0.2332  0.4244
30641W        W47488  12.364   9.696  13.633 -0.1072  0.0169  0.0805
30642W        W47489   1.690  17.844  12.292  0.1304  0.1037 -0.1996
30643W        W47490  12.658  15.737  13.366  0.3528 -0.2874 -0.2446
30644W        W47491  17.862  15.598   2.401 -0.2379  0.2050  0.2461
30645W        W47492  10.153  15.321   3.491  0.4703  0.0415  0.1289
30646W        W47493  11.885   0.621  12.204 -0.2369  0.2419 -0.2996
30647W        W47494  12.945   1.274  10.014  0.0431  0.2019 -0.1859
30648W        W47495   5.431  11.056   4.728 -0.1776 -0.1327  0.1918
30649W        W47496  12.655   0.019  12.565 -0.0618  0.2757 -0.2547
30650W        W47497   6.460   0.167  12.718  0.0492  0.0461  0.1887
30651W        W47498   9.686   4.323   1.546 -0.0180  0.1203  0.1814
30652W        W47499   1.469   4.596   1.389  0.1600 -0.0958  0.1443
30653W        W47500  17.493   7.012  12.229 -0.2897 -0.1013  0.1982
30654W        W47501  15.450  11.953  10.593 -0.0743 -0.0039  0.1231
30655W        W47502  10.321  16.957   4.760  0.3691  0.3382 -0.0128
30656W        W47503  10.410   6.895  12.777 -0.4978  0.0723  0.2399
30657W        W47504  10.602   0.680  13.619 -0.1573 -0.0903  0.0471
30658W        W47505   0.616   6.085   3.082  0.1049 -0.1719  0.0294
30659W        W47506   0.159  12.209  13.804  0.4569 -0.0859 -0.0605
30660W        W47507   6.622   5.276  11.109 -0.1589 -0.1402 -0.1917
30661W        W47508  18.972  19.590   2.797  0.0826  0.1331 -0.0730
30662W        W47509  10.742   6.769   5.073  0.0731  0.0217  0.0159
30663W        W47510   1.998   5.981   2.254  0.0811 -0.0814  0.0209
30664W        W47511  15.502  18.269   0.175 -0.3205 -0.1295 -0.0980
30665W        W47512   7.409   8.772  12.100 -0.1346  0.2668 -0.0397
30666W        W47513   1.343   0.156   2.467  0.3893  0.0435 -0.3498
30667W        W47514   7.525   1.443   1.257  0.3357  0.0626 -0.0405
30668W        W47515  15.684   4.783   0.075 -0.1295  0.0307 -0.0165
30669W        W47516  13.153   1.715  10.111  0.0286 -0.0889  0.0578
30670W        W47517   2.676   9.713  11.890  0.2145  0.0588  0.1629
30671W        W47518   1.889   9.359   4.532 -0.0328  0.2798  0.1501
30672W        W47519  13.894   3.872   4.565  0.1566 -0.0135 -0.1979
30673W        W47520  18.027   2.858   1.315 -0.2731 -0.0737  0.0933
30674W        W47521   7.712  12.414  13.255  0.0214 -0.1193 -0.3003
30675W        W47522  13.830  16.050   3.287 -0.1457  0.0529 -0.2800
30676W        W47523   0.261  17.068   1.576 -0.4195  0.3183  0.1010
30677W        W47524  18.000   3.610   3.775 -0.0317  0.1677  0.0268
30678W        W47525   9.092  18.709   5.169  0.0124 -0.0754  0.4435
30679W        W47526   7.170  16.354  10.703 -0.0929  0.0817  0.2371
30680W        W47527   2.942   6.893  12.592 -0.6076 -0.3263 -0.0002
30681W        W47528  12.618  13.621  12.248  0.0577 -0.4935  0.0122
30682W        W47529  13.948   6.223  11.654  0.1450  0.2413  0.2268
30683W        W47530  14.776   4.173   1.576  0.0864 -0.0178  0.3444
30684W        W47531   7.578   3.937  13.212  0.0378  0.2215  0.0889
30685W        W47532   6.873   5.127  11.887 -0.1852  0.0950 -0.1144
30686W        W47533   5.188   8.782  11.723 -0.3359  0.3694  0.0101
30687W        W47534  15.885  10.364   3.855 -0.3191  0.0496 -0.3685
30688W        W47535  16.871   0.571   2.844  0.1422  0.1190 -0.1085
30689W        W47536  11.522   6.047   1.148  0.1936 -0.3053  0.1402
30690W        W47537   0.141  18.914   9.429 -0.2194  0.3237 -0.3184
30691W        W47538  15.192   1.538  13.028 -0.1759 -0.0118 -0.3145
30692W        W47539   0.118  17.137   3.041  0.1418  0.2167 -0.3676
30693W        W47540   3.627   2.938   3.253 -0.3079  0.2083  0.2885
30694W        W47541   9.105   7.431   4.242 -0.1297 -0.3895  0.0289
30695W        W47542   0.178   5.019  14.005  0.1368  0.2615 -0.1125
30696W        W47543  10.212   6.955  13.242  0.0331 -0.1169 -0.1146
30697W        W47544  16.148   9.678   4.241  0.2660  0.0983  0.1155
30698W        W47545  19.132  15.477   0.451 -0.2460  0.2978 -0.2178
30699W        W47546   4.307   2.045  12.393 -0.4887 -0.2271  0.1092
30700W        W47547   8.545  18.784   1.059  0.0400  0.2524  0.2848
30701W        W47548   5.378  16.247  11.058  0.0696 -0.0634 -0.0843
30702W        W47549   3.960  15.312   3.281  0.0322 -0.0205  0.1416
30703W        W47550   0.605  11.592   3.725 -0.0972  0.3517  0.1489
30704W        W47551  14.785   4.690   1.229  0.0757 -0.1106 -0.3732
30705W        W47552   7.819  11.680   0.150  0.4571  0.0379 -0.0590
30706W        W47553   8.516   7.292   2.916  0.0198  0.1856 -0.1888
30707W        W47554  17.783  13.812   1.688 -0.0738 -0.0509  0.0974
30708W        W47555   2.156   7.133   2.742 -0.0524  0.2510 -0.1181
30709W        W47556  17.220   5.366   3.570  0.0514 -0.4761  0.0711
30710W        W47557   0.790   2.636  11.092  0.1200 -0.1629 -0.0116
30711W        W47558   5.752  13.908   5.429  0.1774  0.0791 -0.0921
30712W        W47559   9.587  16.484   4.209  0.0078 -0.1059 -0.4122
30713W        W47560   9.326   6.232   9.747  0.0833 -0.2288 -0.0530
30714W        W47561  17.271  15.795  13.843  0.0864 -0.2520  0.0482
30715W        W47562  16.714   8.186  14.315 -0.1057 -0.0802 -0.1415
30716W        W47563  13.236  10.967   4.322  0.1542 -0.0398 -0.0583
30717W        W47564   8.132  12.717   2.120  0.2723 -0.3955  0.0301
30718W        W47565   4.587   1.939   2.337  0.2094  0.0699 -0.1689
30719W        W47566   3.755  19.679  11.556 -0.1427  0.1244 -0.3770
30720W        W47567   7.905   9.484  13.616 -0.0966 -0.2523  0.1229
30721W        W47568   9.043   7.577   3.130 -0.1660 -0.1544 -0.0148
30722W        W47569   9.441  11.113   3.092  0.0939 -0.2466 -0.2507
30723W        W47570  12.114   7.912  10.347  0.2394 -0.0751 -0.2260
30724W        W47571  14.735   0.640   3.446  0.2008 -0.2627 -0.0024
30725W        W47572   5.588   1.934   2.406  0.0756  0.0800  0.2778
30726W        W47573   4.195   2.158   0.666  0.2030  0.0623 -0.3625
30727W        W47574   8.888  13.280   2.491  0.1354  0.0199  0.0508
30728W        W47575   2.182  12.155   3.155 -0.2751  0.0062  0.3410
30729W        W47576   8.142   9.829   0.109 -0.2335 -0.0847  0.1340
30730W        W47577  17.099   0.802  12.354 -0.1198 -0.1525  0.1041
30731W        W47578   1.983  16.998   4.040  0.2540 -0.0486  0.1811
30732W        W47579   4.688   3.056   3.197  0.0021  0.0110 -0.0690
30733W        W47580  16.016   5.896   1.415  0.2810 -0.3281 -0.0535
30734W        W47581  16.383  17.281   3.255  0.2126 -0.0572 -0.1967
30735W        W47582  10.541   1.613   1.998  0.1026 -0.2831 -0.2465
30736W        W47583  12.516  15.038   1.728  0.0081 -0.3135 -0.1184
30737W        W47584  17.183  12.808   0.790 -0.5682 -0.0376  0.1495
30738W        W47585   6.839   8.302   4.840 -0.1499  0.1011  0.1306
30739W        W47586  15.943  13.686   3.188  0.1815 -0.0721 -0.0057
30740W        W47587   1.762  19.453   1.934  0.3777 -0.1630 -0.2943
30741W        W47588  10.547   3.494  10.546  0.2449 -0.2094  0.0468
30742W        W47589   0.623  11.047   0.800  0.0924  0.1037  0.0408
30743W        W47590  11.617  15.801   1.390 -0.2937 -0.0906  0.1860
30744W        W47591  10.287  14.903  11.753  0.0444  0.1813  0.0554
30745W        W47592   4.267   4.823  13.211 -0.1339  0.2768  0.1937
30746W        W47593  11.786   4.745   1.916  0.0619  0.1804  0.2980
30747W        W47594   5.618  15.367  11.300  0.3688  0.1437  0.1071
30748W        W47595  16.593  16.403  10.116  0.2371 -0.0112  0.5678
30749W        W47596   7.452   2.950  13.515  0.0554  0.3513 -0.1100
30750W        W47597  15.943  14.096   2.938 -0.2039  0.1364  0.1008
30751W        W47598  10.642  11.797  12.234 -0.0068 -0.0448  0.2311
30752W        W47599  17.659  16.312  11.508  0.1017  0.0894  0.0259
30753W        W47600  14.188   8.497  12.638  0.0267  0.1865  0.0367
30754W        W47601   1.253  14.396  11.078 -0.5325  0.2386 -0.2574
30755W        W47602  18.436   7.006   1.690 -0.0568  0.4297 -0.1219
30756W        W47603  14.546  10.353  13.964 -0.1410 -0.2810 -0.0889
30757W        W47604   7.069  16.767  11.976  0.0932 -0.1804 -0.0422
30758W        W47605   3.765  19.249   0.363 -0.1102  0.0005 -0.0377
30759W        W47606   7.687  16.789  12.848 -0.0932 -0.1794  0.1248
30760W        W47607  18.609   6.712  10.418 -0.2450  0.0366 -0.1812
30761W        W47608  17.693  12.081  13.621 -0.0549  0.4693 -0.0784
30762W        W47609  14.017  15.860   1.357 -0.2863  0.0738 -0.0746
30763W        W47610  17.581   8.494  11.940  0.0666 -0.0034 -0.2251
30764W        W47611  12.324  18.982  11.457  0.0768  0.4182 -0.1156
30765W        W47612  11.012   0.960   2.951  0.0052  0.2772 -0.0058
30766W        W47613   6.901   4.543   3.971 -0.0953 -0.0180 -0.0648
30767W        W47614   7.181   9.724  14.302  0.2374  0.1008 -0.3176
30768W        W47615   6.590   9.827  14.350 -0.1294  0.0564  0.0007
30769W        W47616  14.552   8.459  10.399  0.3515  0.1267  0.0885
30770W        W47617  12.610  12.138  14.116  0.1449  0.1418 -0.1423
30771W        W47618   0.951   4.401   3.807 -0.0443  0.0932 -0.2647
30772W        W47619   4.461  18.790   3.321 -0.0361  0.0330 -0.2512
30773W        W47620  17.558   5.568   2.142  0.1427  0.2300 -0.1545
30774W        W47621  18.018   9.284   1.453 -0.1096  0.4047 -0.0425
30775W        W47622  11.139   5.706  12.706  0.0837 -0.1957 -0.1061
30776W        W47623  16.707   4.029   3.187  0.0268 -0.0020  0.0143
30777W        W47624   4.813  18.315   3.494 -0.1156 -0.1557 -0.0888
30778W        W47625   2.980   9.522  11.478 -0.0015 -0.1791  0.0140
30779W        W47626  14.887  12.596  13.205 -0.2533  0.2349  0.1619
30780W        W47627   6.812   7.458   2.337 -0.3380  0.2305  0.0507
30781W        W47628  13.061  16.305   4.554 -0.0084 -0.0722  0.0978
30782W        W47629  11.716  10.129  12.509 -0.3118  0.0536  0.1693
30783W        W47630  14.648  17.006  13.424  0.2124  0.5576  0.1838
30784W        W47631   4.779   6.677  12.067 -0.0716 -0.0251  0.0748
30785W        W47632  13.116  19.252   2.216  0.1546 -0.1881 -0.3586
30786W        W47633  13.754   2.702  12.778 -0.1655 -0.1368  0.0583
30787W        W47634   8.229  13.303  13.374  0.0622 -0.0087 -0.3518
30788W        W47635   0.360  18.263   1.904 -0.1635  0.1152 -0.1534
30789W        W47636  15.948   4.479  10.141  0.1695 -0.0948  0.0240
30790W        W47637  10.808   0.151  10.475 -0.0776 -0.1082 -0.2660
30791W        W47638  16.981  12.419  11.924  0.0187 -0.1796  0.0427
30792W        W47639   0.266  14.034   2.612  0.2637 -0.1028 -0.0909
30793W        W47640   9.295   0.266   1.046  0.1519  0.0296 -0.1241
30794W        W47641  11.111   3.415   1.840 -0.2276  0.0266 -0.1236
30795W        W47642  16.916   5.288   3.998  0.1867  0.0610 -0.2517
30796W        W47643   6.064  13.965  13.772  0.5663 -0.3561 -0.0891
30797W        W47644  11.827  19.630   2.517 -0.1025  0.0657  0.1181
30798W        W47645  18.320  13.222  11.718 -0.3586 -0.1479 -0.0837
30799W        W47646  11.711  12.970   2.187 -0.1642 -0.0413 -0.1333
30800W        W47647   5.910  11.344  12.339 -0.0619 -0.0889 -0.0102
30801W        W47648  10.208   3.816  10.339  0.3218  0.2190  0.0785
30802W        W47649   9.511  16.608  11.316  0.0603  0.1686  0.0092
30803W        W47650  14.275   1.718   2.592 -0.0819  0.1112 -0.2348
30804W        W47651   4.781  15.987   0.174 -0.0519  0.1282 -0.1236
30805W        W47652   0.980  16.755  11.308  0.2455  0.3754  0.1066
30806W        W47653   9.192  18.772  11.533 -0.3392 -0.1300 -0.2517
30807W        W47654   8.916  16.715   1.429 -0.0422  0.0085 -0.4097
30808W        W47655  18.087  14.906   3.549  0.5541  0.1352  0.4316
30809W        W47656   7.640   3.104  11.959  0.0177  0.0581  0.2656
30810W        W47657  10.740   9.391  10.554 -0.1196  0.2666 -0.1052
30811W        W47658   5.139  13.421  11.877  0.1587  0.0332  0.3048
30812W        W47659  15.684  14.357  12.553  0.1475  0.2573 -0.0658
30813W        W47660   8.383   9.668  13.683  0.2301 -0.2348  0.0623
30814W        W47661  11.750   3.669   4.355 -0.2792  0.0944  0.0382
30815W        W47662  11.626  12.117  13.450  0.2041  0.0996 -0.0786
30816W        W47663   7.852   6.505  10.214 -0.3873 -0.0041 -0.1306
30817W        W47664   9.827   2.219  10.863  0.0309  0.1883  0.3197
30818W        W47665   0.057   7.435   0.647  0.1026 -0.0132 -0.0841
30819W        W47666   2.549   8.076   2.853 -0.0244  0.0853 -0.2213
30820W        W47667   8.245   7.541  11.769  0.1258  0.1101 -0.2453
30821W        W47668  16.772  15.110  14.313  0.0155 -0.0825  0.2242
30822W        W47669  10.048   3.503   1.288 -0.1021  0.2194 -0.1123
30823W        W47670   9.639  18.283  13.577  0.0016  0.1541  0.0020
30824W        W47671   8.227   4.848   0.639 -0.0474  0.2403  0.1150
30825W        W47672   9.995  19.120   3.149  0.1470 -0.2259  0.0982
30826W        W47673   2.545  17.881   3.640 -0.0510  0.1814 -0.0326
30827W        W47674  12.932   3.839   3.795  0.1909 -0.0422 -0.1464
30828W        W47675   8.225   0.022   3.012  0.0338 -0.0061 -0.4534
30829W        W47676  14.556   0.404  11.567  0.0328 -0.0365 -0.1975
30830W        W47677   8.934   2.230   0.462 -0.0232  0.2607 -0.0830
30831W        W47678  12.762  12.081  10.049  0.1335  0.2012 -0.2263
30832W        W47679  16.351   9.292   4.063  0.0429  0.1330 -0.0031
30833W        W47680   1.069   3.785   2.686  0.2149 -0.0995 -0.0263
30834W        W47681  15.027  17.814   3.401  0.1337 -0.0588  0.0023
30835W        W47682  14.313   1.155   2.707 -0.2097  0.1107  0.0033
30836W        W47683   2.327  17.655  13.118  0.0111 -0.0900 -0.0842
30837W        W47684   8.074  11.419  13.850  0.0981 -0.1994  0.0367
30838W        W47685   0.760   0.439   1.151 -0.2334 -0.1898 -0.4251
30839W        W47686  18.360   6.064   3.296  0.1205  0.0018  0.1441
30840W        W47687   6.904   7.895  11.085  0.1340 -0.1627  0.0331
30841W        W47688  17.040  12.079   1.881  0.1671  0.0725  0.1151
30842W        W47689  11.715  15.063  12.239  0.1433  0.0160 -0.1723
30843W        W47690   1.555  12.831  10.218 -0.2780 -0.1731 -0.2736
30844W        W47691  19.527  12.110  11.317 -0.2173  0.0755  0.1961
30845W        W47692   5.419  15.575   2.737 -0.2225 -0.0882 -0.0031
30846W        W47693  13.144  19.302  10.559  0.0157  0.0379  0.0833
30847W        W47694  17.244  11.624  13.012 -0.4158  0.0742 -0.0939
30848W        W47695   4.494   2.302   1.670  0.1629  0.1858 -0.2253
30849W        W47696  12.521   0.021   2.989  0.1640 -0.1334 -0.8738
30850W        W47697  16.099   7.586  10.808  0.1864  0.0674  0.0332
30851W        W47698  13.604  16.115   3.734  0.1791 -0.0452 -0.0518
30852W        W47699   2.569  18.964   1.746  0.1261  0.0425  0.2352
30853W        W47700   8.728  17.407   1.283  0.0488 -0.0680  0.1464
30854W        W47701  11.761   0.692  10.881  0.0510  0.1366 -0.1424
30855W        W47702  11.410  12.138   4.849  0.1521 -0.3108  0.0206
30856W        W47703   4.908   4.199  11.433  0.0845  0.3307 -0.1453
30857W        W47704  12.058  16.703  11.304 -0.1984 -0.0743 -0.2542
30858W        W47705  14.570   8.231   1.478  0.1701  0.2321 -0.0514
30859W        W47706   3.889  17.993   4.381 -0.1246  0.2216  0.1001
30860W        W47707   6.169   4.955   0.598  0.3093 -0.1995  0.0683
30861W        W47708   7.130  15.952   5.074 -0.2529  0.1467 -0.3655
30862W        W47709   3.308  12.855   2.902 -0.2733 -0.0704  0.2773
30863W        W47710   0.322   4.343   9.368 -0.3100  0.3349 -0.1439
30864W        W47711   4.347  19.362   2.672 -0.2976  0.1535  0.0957
30865W        W47712   4.425   5.874  11.529  0.0473 -0.0508 -0.1341
30866W        W47713   4.841  18.874  10.183 -0.3105  0.0137  0.0985
30867W        W47714  17.756   5.562  11.225 -0.3485  0.1544 -0.0713
30868W        W47715   6.546  13.270  11.463 -0.1605 -0.2821  0.0396
30869W        W47716  18.742   9.193   2.258 -0.1424  0.0696  0.0378
30870W        W47717   8.625   6.214   9.046  0.2263  0.1747 -0.1206
30871W        W47718  19.487  13.059   1.690  0.0832  0.1164 -0.0292
30872W        W47719  16.434  16.217   0.683 -0.2116 -0.2403  0.0392
30873W        W47720  12.658  17.985  13.214  0.3328 -0.1221 -0.2263
30874W        W47721  13.101   0.321   3.588 -0.1478  0.2308  0.1717
30875W        W47722  12.473  11.166   3.123 -0.0233 -0.2038 -0.2541
30876W        W47723  13.068   9.110   5.294 -0.2587 -0.1088 -0.1069
30877W        W47724   1.762  17.427   4.113  0.0050 -0.1106 -0.1016
30878W        W47725  13.888  12.770   3.539 -0.1328 -0.0445 -0.1484
30879W        W47726  10.918   9.682  10.929  0.3894  0.3887  0.1367
30880W        W47727  18.535  10.427   3.654  0.2507 -0.2643 -0.0608
30881W        W47728   2.333   0.915  10.043 -0.0766 -0.0448 -0.1366
30882W        W47729   3.123  16.796  12.264 -0.3092  0.1097  0.4630
30883W        W47730  14.602  15.899  11.982 -0.0117 -0.1838 -0.3693
30884W        W47731  11.448   8.330  10.595 -0.0920 -0.0502  0.1412
30885W        W47732   0.617  15.235   3.994  0.1891  0.0393 -0.1354
30886W        W47733   1.797  14.013   2.790 -0.0224  0.0216  0.2017
30887W        W47734   7.425  10.242   0.015  0.1217  0.0326 -0.1790
30888W        W47735   6.257  13.203  10.608  0.0425  0.0892  0.0457
30889W        W47736  11.885  15.439   1.539 -0.0289  0.1970  0.0509
30890W        W47737   5.207  10.106  11.164  0.0270 -0.0548  0.4152
30891W        W47738   7.220  19.350   4.268  0.0444 -0.0367  0.0731
30892W        W47739  14.516   9.106   0.213  0.1849  0.2016  0.0655
30893W        W47740  12.117   8.416   4.060 -0.0760 -0.2480 -0.2255
30894W        W47741  18.826   5.076   4.323  0.0012 -0.0245  0.1266
30895W        W47742  18.157  19.526  13.291  0.1293  0.0681  0.0166
30896W        W47743  18.233  18.791   2.126  0.0977 -0.4618 -0.1824
30897W        W47744   9.664  17.846  11.658 -0.2790 -0.3396 -0.1832
30898W        W47745   4.488  15.072  12.063 -0.1876  0.2570  0.0914
30899W        W47746   9.691  13.745   1.691 -0.1636 -0.4614 -0.1260
30900W        W47747  17.551   0.966   4.660 -0.3091  0.0346 -0.2816
30901W        W47748  17.050  13.260  10.314 -0.0868 -0.1515  0.0013
30902W        W47749  10.299  14.456   4.615 -0.0603  0.0316  0.1207
30903W        W47750   4.539  14.729  11.657  0.2917  0.4341 -0.0423
30904W        W47751   9.882  12.647  13.010 -0.0254 -0.1142 -0.2124
30905W        W47752   6.697  12.035   0.369  0.2389  0.0523  0.2275
30906W        W47753  13.252  15.145   2.108 -0.0916  0.0342  0.1783
30907W        W47754  10.603  18.462   3.136  0.1876 -0.0829  0.1366
30908W        W47755   1.753   4.022  10.357  0.1396 -0.2758  0.1503
30909W        W47756   0.181   6.455  13.166  0.0482  0.1897 -0.1552
30910W        W47757   6.797  14.651  10.443  0.1036  0.1989 -0.0609
30911W        W47758   6.487   4.169  10.793 -0.0515  0.1179  0.1128
30912W        W47759   7.344   1.073   3.175 -0.0212  0.0910  0.1107
30913W        W47760  12.990  14.966  10.460  0.4835  0.1461 -0.0980
30914W        W47761  16.931  18.603   1.656 -0.1879 -0.0934  0.0583
30915W        W47762   6.995   8.682   4.044 -0.1242 -0.0231 -0.1151
30916W        W47763  15.303   4.496  12.359 -0.0311 -0.1326 -0.1567
30917W        W47764  19.443   5.962  11.762  0.1384 -0.1292 -0.1142
30918W        W47765   6.381   3.044   1.696 -0.0372  0.1161  0.2692
30919W        W47766  11.182   2.562   1.170 -0.0192  0.0293 -0.3801
30920W        W47767  15.945   3.510   3.754  0.0349  0.2661 -0.1522
30921W        W47768  18.307  11.659   1.336  0.3096 -0.3061  0.2261
30922W        W47769   2.642   5.101   3.424 -0.1301  0.1357  0.3864
30923W        W47770   8.826   7.538  13.553  0.2276  0.2929  0.0345
30924W        W47771  15.571   2.478  10.767  0.0235  0.2085 -0.3248
30925W        W47772  12.725  18.302  11.963  0.0809 -0.0336 -0.1589
30926W        W47773   3.549  15.333   1.497 -0.1278 -0.0703  0.3272
30927W        W47774   6.627  10.181  14.013 -0.0123  0.0532  0.1871
30928W        W47775   8.221   7.029   1.391 -0.2578 -0.1159 -0.0988
30929W        W47776   5.048   0.955   4.335  0.1040 -0.0054 -0.0231
30930W        W47777   2.906   8.502   5.289 -0.2558 -0.2649 -0.4992
30931W        W47778  12.427   8.996  11.932 -0.2860 -0.1036 -0.2650
30932W        W47779  19.797  17.749  13.363 -0.0314  0.3388  0.1596
30933W        W47780   2.341   9.087   1.389  0.1222  0.0684 -0.1668
30934W        W47781  12.962   5.536  10.269 -0.0661  0.0368  0.2921
30935W        W47782   9.881  17.253  13.397  0.0700 -0.0043 -0.5487
30936W        W47783   0.707  16.993   1.584 -0.1187 -0.1484 -0.0180
30937W        W47784  10.213  12.873  10.896 -0.2584  0.0176  0.0278
30938W        W47785   2.867  14.615   4.389 -0.1021  0.2472  0.3200
30939W        W47786  18.044  18.422   1.863  0.1533 -0.1035  0.0579
30940W        W47787  14.389  15.563   4.425  0.2150 -0.0621  0.4156
30941W        W47788   5.212   5.515   1.941 -0.0165  0.1354 -0.1318
30942W        W47789  18.757   8.076  11.430  0.1543 -0.0010  0.0877
30943W        W47790  16.928  10.967   2.893  0.0596 -0.0553  0.1004
30944W        W47791  18.729  13.393  11.959 -0.1189 -0.0690 -0.1150
30945W        W47792   2.313   9.429  12.056  0.2568 -0.5336  0.1576
30946W        W47793   0.834   0.491  14.203 -0.1367 -0.0100  0.3175
30947W        W47794  12.990   4.337  10.190 -0.0598  0.2219 -0.3141
30948W        W47795   9.704   8.465  13.186  0.2708 -0.1685 -0.0758
30949W        W47796  15.523   0.881  14.204  0.0066  0.1206  0.1663
30950W        W47797  14.447   6.359  11.753  0.0772  0.0572 -0.0332
30951W        W47798   4.058  14.374  13.114 -0.1076  0.2605 -0.1982
30952W        W47799  12.078  17.690  11.672 -0.1025 -0.0160  0.0473
30953W        W47800   2.841   2.191   0.861 -0.2270  0.1980  0.2442
30954W        W47801   8.534  13.388   4.029 -0.2443 -0.0568 -0.0027
30955W        W47802   0.293   6.132  11.264 -0.1065  0.2737  0.1437
30956W        W47803  10.191  19.012   2.663 -0.1911 -0.0538  0.0745
30957W        W47804  18.239  14.671   0.722  0.1876 -0.4617 -0.0042
30958W        W47805  16.117  15.825  12.562 -0.3847  0.0055  0.1041
30959W        W47806  18.370   6.776  13.326  0.1623  0.0758  0.0458
30960W        W47807   0.547   9.807  13.541  0.0910 -0.1648 -0.3895
30961W        W47808  18.363   2.901  13.504  0.0147  0.0138 -0.3260
30962W        W47809  19.279  18.227  14.006  0.1311  0.1456  0.0961
30963W        W47810   8.147   8.145   3.361  0.4107  0.0777  0.1821
30964W        W47811  11.043   0.499  13.398 -0.0752 -0.2944  0.5470
30965W        W47812  10.514   9.128   1.149 -0.1425 -0.0681 -0.0083
30966W        W47813  18.691  10.617   0.871  0.1082 -0.1393  0.2143
30967W        W47814   7.943   9.562  11.794  0.3241 -0.1474 -0.1124
30968W        W47815   8.704   1.579   4.362 -0.2127 -0.0893  0.2407
30969W        W47816   9.794   5.395  14.221  0.1181 -0.0798  0.2770
30970W        W47817   5.417  10.909   4.166  0.0599 -0.0899 -0.2711
30971W        W47818   0.029  18.367  12.242  0.1303  0.0076 -0.2432
30972W        W47819   3.972   0.981   4.072  0.1557  0.1988 -0.2307
30973W        W47820   9.789   8.136   0.803 -0.1166 -0.0523  0.1350
30974W        W47821  14.606  10.432  11.977 -0.1797  0.0119  0.1620
30975W        W47822   2.941  14.347   0.800  0.0056 -0.2499 -0.1599
30976W        W47823  11.702   7.934   2.699  0.3120  0.1564 -0.0458
30977W        W47824  15.928  10.173   3.413  0.1337  0.3735 -0.0256
30978W        W47825  17.568   2.299   4.490 -0.3878 -0.1848  0.1160
30979W        W47826   8.729   3.849   3.409  0.2457 -0.2806 -0.1550
30980W        W47827  14.852  14.141  12.700 -0.0056  0.1911  0.1278
30981W        W47828   8.495   6.693  12.508 -0.1049  0.0116 -0.3362
30982W        W47829  14.569   9.995  13.048 -0.4426  0.3070  0.0709
30983W        W47830  12.646  17.356   2.485  0.1400 -0.0836 -0.0394
30984W        W47831   5.247  19.584  11.254 -0.2189 -0.1547  0.0294
30985W        W47832  19.002  14.235  10.216 -0.0684  0.0117  0.0731
30986W        W47833   7.404   6.645   3.041  0.1446  0.0920  0.4475
30987W        W47834  10.590  13.533  10.571 -0.0891 -0.0313  0.0210
30988W        W47835  16.660  18.559   2.133  0.1190 -0.1406 -0.4540
30989W        W47836  18.351  13.719   2.512 -0.1863 -0.2030 -0.0136
30990W        W47837  17.950   3.960   5.665 -0.2942  0.1296 -0.1607
30991W        W47838  19.819  16.478  12.467  0.1493  0.1100 -0.2153
30992W        W47839  16.499  19.520   2.454 -0.1071 -0.3435  0.2522
30993W        W47840  10.019  18.598   9.975  0.0369  0.1665 -0.0188
30994W        W47841   7.391   5.764   3.173 -0.0735  0.4812  0.0127
30995W        W47842   2.148   2.388  12.186 -0.0815 -0.2528 -0.3710
30996W        W47843   1.400   2.479   1.100  0.3968  0.0264  0.0740
30997W        W47844   2.386  12.823   3.899 -0.1574  0.0428 -0.1514
30998W        W47845   9.328  10.274  13.019 -0.3800  0.0719  0.2580
30999W        W47846   7.761  10.943   4.233  0.0757  0.0646 -0.1732
31000W        W47847  12.914   2.662  11.818 -0.0540  0.0489 -0.0081
31001W        W47848   3.897  19.363   3.552  0.5213 -0.1943  0.0505
31002W        W47849   7.235   4.954  10.035  0.0692  0.1132 -0.2048
31003W        W47850  17.110   0.478  14.211  0.0127 -0.0389 -0.1452
31004W        W47851  10.023  17.443  10.420  0.2105 -0.0760 -0.1706
31005W        W47852  17.012  17.206  12.459  0.1758 -0.2679  0.0593
31006W        W47853   5.268   0.598  11.376  0.1531  0.0861  0.5256
31007W        W47854  19.496  14.097   5.169 -0.2842  0.1161 -0.2860
31008W        W47855   4.646  11.641   3.858  0.0337  0.0189 -0.2127
31009W        W47856   4.016   1.597  11.496  0.1913 -0.0505 -0.2974
31010W        W47857  16.822  13.154   1.580  0.2580  0.1867 -0.2938
31011W        W47858   1.716  10.234  12.878 -0.0428 -0.1468  0.1689
31012W        W47859   0.296   4.527  12.166  0.0192 -0.0132  0.2201
31013W        W47860  15.234   1.601   3.999 -0.1133 -0.1611 -0.0209
31014W        W47861  15.440  15.338   2.326  0.1338  0.0278 -0.1639
31015W        W47862   6.145  18.746   1.563  0.1357 -0.0362 -0.3518
31016W        W47863  14.534   9.300  10.115  0.0506  0.1199 -0.1473
31017W        W47864  12.192  18.736   2.799  0.0522  0.3094  0.3631
31018W        W47865   2.354  14.256   1.935  0.0091 -0.1652  0.0466
31019W        W47866   3.184   1.120   3.658 -0.1868 -0.0112 -0.0644
31020W        W47867   7.328   1.864   2.203  0.2607  0.1318 -0.0416
31021W        W47868   7.538  14.010   2.748  0.1588 -0.0658  0.0889
31022W        W47869  15.582  18.457   3.336  0.0662 -0.2133 -0.0037
31023W        W47870   3.185  18.731   3.399 -0.1956 -0.0345  0.1826
31024W        W47871   5.432  15.235  10.104 -0.3070 -0.1295  0.1376
31025W        W47872   0.622   8.489  14.177 -0.3110  0.2813 -0.0089
31026W        W47873   9.197  14.339   0.206 -0.2168  0.1504  0.0029
31027W        W47874   5.554   8.791   3.413 -0.1848 -0.2258  0.2558
31028W        W47875  11.774   2.016  11.322  0.2265  0.1075 -0.0360
31029W        W47876  17.273   6.916   4.620  0.0456  0.1704 -0.1973
31030W        W47877   1.662   2.498   2.672 -0.1059 -0.1130  0.1365
31031W        W47878  15.609   5.370   3.950  0.0334  0.0608 -0.1807
31032W        W47879   8.749   3.983   1.613 -0.3657 -0.2938  0.0616
31033W        W47880   4.678   5.136   0.407 -0.0189 -0.0796  0.1345
31034W        W47881  14.465  19.712  12.167  0.0565  0.2567  0.2454
31035W        W47882  13.696  10.625   2.319 -0.0976  0.1075 -0.4002
31036W        W47883   3.562   6.953   4.557 -0.1801 -0.3177 -0.2656
31037W        W47884   3.176  13.761  12.331  0.0686 -0.0190 -0.0868
31038W        W47885   4.049  14.204   4.653 -0.3072  0.1130 -0.1359
31039W        W47886   1.424   1.224   1.634  0.0419  0.0073  0.2220
31040W        W47887   6.598  16.663   3.639  0.1049 -0.0066 -0.1267
31041W        W47888  15.765   6.913  10.323 -0.0666 -0.2083 -0.0234
31042W        W47889  11.036   7.748   2.793 -0.0605 -0.1782 -0.1023
31043W        W47890   8.491  15.621   2.491 -0.0377 -0.1823 -0.3903
31044W        W47891  15.301   0.740  11.434  0.0882 -0.0734 -0.2047
31045W        W47892   5.802  19.319   9.613  0.1144 -0.1746  0.3443
31046W        W47893   5.624   3.787  11.630  0.0837 -0.1144 -0.2724
31047W        W47894   0.606   5.928  14.151 -0.1123  0.2429  0.3644
31048W        W47895   0.517  16.633   3.603 -0.1621 -0.2427 -0.0566
31049W        W47896  11.426  19.374   2.608  0.1814 -0.0474 -0.0748
31050W        W47897  17.817  13.479  10.483 -0.1194  0.0642 -0.5953
31051W        W47898   8.435   7.565   1.034 -0.0181  0.3102 -0.1429
31052W        W47899   7.075   8.927   0.051  0.1751 -0.0227  0.3678
31053W        W47900   3.230  16.196   4.039  0.2927 -0.1189 -0.1264
31054W        W47901   7.390   1.216  13.057 -0.0988  0.0012 -0.0557
31055W        W47902   4.413  19.277  12.447 -0.2465 -0.1512 -0.0427
31056W        W47903   7.725   7.507   3.261  0.0729 -0.0267 -0.1491
31057W        W47904   0.900   5.434   2.081  0.2108  0.0360 -0.1079
31058W        W47905   2.050  10.620  11.818  0.0030 -0.4235 -0.0743
31059W        W47906  19.298  13.659   3.733  0.2414 -0.2113  0.0642
31060W        W47907  19.543   0.352  13.485 -0.3056  0.2113 -0.0949
31061W        W47908   0.973   6.001  13.125 -0.1615 -0.0416 -0.0567
31062W        W47909   6.044   7.688   2.657  0.0342  0.1220 -0.1851
31063W        W47910   5.014   5.451  10.824 -0.2700  0.1490  0.3238
31064W        W47911  11.137   6.875   3.738 -0.0262 -0.0682 -0.1713
31065W        W47912   2.818  19.096  14.327 -0.1086 -0.2195 -0.0896
31066W        W47913  16.115   1.022   3.952 -0.1672 -0.1378  0.5304
31067W        W47914  15.918   4.185   3.377  0.4070  0.0537 -0.0050
31068W        W47915   0.178   8.057  12.677 -0.0488  0.0617 -0.2502
31069W        W47916   2.594  13.519   1.530 -0.1667  0.4346  0.0418
31070W        W47917   4.127  16.078   2.261  0.1790  0.2177  0.1544
31071W        W47918   6.670   8.023   4.494 -0.2666 -0.1047 -0.1123
31072W        W47919   6.561  16.151  11.524 -0.2434  0.3175  0.0866
31073W        W47920  16.152   5.100   0.037 -0.0464  0.0268  0.1430
31074W        W47921   8.050   1.781  11.896  0.0854  0.0702  0.2956
31075W        W47922   7.801  10.176   2.829  0.1604  0.3307 -0.3396
31076W        W47923  16.018   4.601  13.541 -0.1628  0.1342  0.2601
31077W        W47924  11.537  11.992   0.335  0.1875 -0.0637  0.2676
31078W        W47925   4.840  13.777  10.075  0.0974  0.3710 -0.3816
31079W        W47926  15.336  12.101   3.694  0.2772  0.0069 -0.5081
31080W        W47927   7.823   2.778  13.781 -0.1062  0.1746  0.1467
31081W        W47928  17.303   4.312   8.877 -0.0822 -0.0070 -0.0368
31082W        W47929   4.900   3.589   3.341  0.2549  0.0261  0.1651
31083W        W47930  13.510  13.731   2.842 -0.0473 -0.1111 -0.0192
31084W        W47931  14.597   2.928   9.879 -0.1552 -0.1826  0.5021
31085W        W47932   4.782   9.396  10.456 -0.0410 -0.0598  0.0603
31086W        W47933  17.490  16.965   1.288 -0.0493 -0.2870 -0.0032
31087W        W47934  13.696   7.553  10.660  0.0150 -0.2048 -0.0231
31088W        W47935   5.646  19.386  12.494 -0.0390 -0.3222  0.4706
31089W        W47936   9.442  10.642   2.861  0.2482 -0.0216  0.0708
31090W        W47937   7.241  19.783  12.411  0.3900 -0.0928 -0.0420
31091W        W47938   6.798  15.836   3.594  0.3661 -0.0612  0.1069
31092W        W47939  18.847   9.637  10.543 -0.0278  0.0627  0.1659
31093W        W47940   0.100  18.910   2.553  0.4935 -0.4427 -0.0701
31094W        W47941  10.535  13.201   2.084  0.0353  0.1795  0.1425
31095W        W47942   2.077  19.071   1.952 -0.0866 -0.2066 -0.1860
31096W        W47943  13.877   2.207  12.971 -0.2215 -0.1147 -0.3306
31097W        W47944  19.115   7.011  14.187 -0.2521 -0.1737  0.0805
31098W        W47945   7.997   1.505  10.198  0.4092 -0.0191  0.2841
31099W        W47946  10.521  12.805   3.863 -0.2411 -0.1189  0.1129
31100W        W47947   5.871  13.753  11.642  0.2585 -0.2325  0.1962
31101W        W47948  11.237   9.891  13.420  0.0360  0.0022  0.0686
31102W        W47949  15.958  15.694  11.220 -0.1370  0.0077  0.0765
31103W        W47950  15.686  17.235   4.804  0.0216  0.0242  0.1268
31104W        W47951  14.975  18.963   2.281 -0.2755  0.1998 -0.1874
31105W        W47952   6.187  16.934  11.939  0.2589  0.2276 -0.2901
31106W        W47953   4.858  15.020   3.761  0.1766  0.2891  0.0256
31107W        W47954   9.491   1.599   1.117  0.1561  0.0105 -0.0532
31108W        W47955  12.092   6.792   3.578 -0.2115 -0.1183 -0.0187
31109W        W47956  10.483  13.138  13.578 -0.0747 -0.0694 -0.1802
31110W        W47957  11.633  11.672  13.111  0.2619  0.3329  0.0843
31111W        W47958  19.747   9.792   4.093  0.1750  0.1433 -0.0138
31112W        W47959  12.691  10.027   2.466 -0.2007  0.2751  0.0991
31113W        W47960   3.006   5.546   3.346 -0.0549  0.1957 -0.1130
31114W        W47961  14.164   7.393   2.373 -0.1263  0.1172 -0.1167
31115W        W47962  14.396   6.523  13.450  0.0671  0.0821 -0.0652
31116W        W47963  15.088  14.926  12.222  0.0559  0.1275 -0.1333
31117W        W47964  15.995   6.355   3.986  0.0704  0.0416  0.1620
31118W        W47965   1.447   3.150  13.919  0.2359 -0.0365 -0.1456
31119W        W47966  17.217   7.666  12.408  0.0283 -0.0137  0.3138
31120W        W47967   9.348  18.497  12.045  0.1659 -0.4331 -0.1350
31121W        W47968   7.965   9.888   3.261  0.4081 -0.2729 -0.0179
31122W        W47969   5.847   9.758   3.290  0.1739  0.2252 -0.0865
31123W        W47970   9.333  11.205   3.626 -0.0360 -0.0080  0.0231
31124W        W47971   7.713  10.933  12.511 -0.0914  0.1129 -0.0844
31125W        W47972   2.482   8.553   4.520  0.2817 -0.1030  0.2109
31126W        W47973   1.497  12.650   3.396  0.1263  0.4930  0.0882
31127W        W47974   1.178  18.663  12.369  0.2103  0.1260  0.0756
31128W        W47975   6.978   9.599   4.260 -0.0301  0.2296  0.2367
31129W        W47976   9.665  15.024  13.980 -0.3835 -0.2221 -0.0233
31130W        W47977   7.493  11.144  10.644  0.1852  0.3733 -0.1483
31131W        W47978   7.186  19.271  12.646  0.0120 -0.2862 -0.2013
31132W        W47979  11.437   9.171   0.725 -0.0806  0.1730  0.0403
31133W        W47980   7.224   0.243   3.915 -0.0347  0.1589 -0.0956
31134W        W47981   9.616   2.834   0.050  0.0610 -0.1843 -0.1273
31135W        W47982  17.379  16.715   0.183  0.0527  0.2531 -0.0695
31136W        W47983  11.329  18.060  13.750 -0.3672  0.1099 -0.2553
31137W        W47984  17.163   2.166  14.340  0.0769 -0.2605 -0.3456
31138W        W47985  15.497  12.485   9.730  0.3626 -0.0050 -0.2463
31139W        W47986   1.032  11.264   3.251  0.1572  0.1856  0.2091
31140W        W47987  14.330  13.315   0.784  0.0036 -0.2152 -0.0206
31141W        W47988   2.196   2.562  14.139 -0.0010 -0.1134  0.2787
31142W        W47989   9.145  15.685  12.635  0.0897  0.3971  0.0563
31143W        W47990   4.301  11.929  11.780 -0.1527 -0.0285  0.2973
31144W        W47991  10.578  15.597  10.927 -0.1809 -0.1043 -0.0101
31145W        W47992   5.753   4.004   3.034  0.0207 -0.1060  0.0050
31146W        W47993   6.636  17.786   0.034  0.1258 -0.0742 -0.1798
31147W        W47994  18.826  14.659   3.299  0.0006 -0.1649 -0.0893
31148W        W47995   3.724  16.136  10.940 -0.3124 -0.0258 -0.5062
31149W        W47996  18.025  18.175  13.576 -0.0810  0.0556 -0.1915
31150W        W47997  10.354  18.121   4.504 -0.0663  0.1451 -0.0066
31151W        W47998  12.745  11.661  14.213  0.0489  0.3724  0.2414
31152W        W47999   4.996  10.456   2.075  0.0179  0.0506  0.0807
31153W        W48000  10.131   5.823  12.521 -0.1161  0.0280  0.1797
31154W        W48001   4.099   9.848  13.544 -0.2060 -0.1472  0.0249
31155W        W48002   2.173   4.751   3.519 -0.1604  0.1442  0.0475
31156W        W48003  17.979   0.664   1.661  0.1882  0.2880  0.2472
31157W        W48004   1.213   8.257   1.159 -0.1019  0.0833 -0.0456
31158W        W48005   6.144  16.410  10.402  0.0431  0.0931  0.1317
31159W        W48006   5.713   4.102   2.515  0.3211  0.0170  0.2096
31160W        W48007  15.155  18.214  10.246  0.1110 -0.0346  0.0143
31161W        W48008   7.830  17.881  12.505 -0.4717  0.0451 -0.2115
31162W        W48009   5.196   7.592   2.703 -0.2106 -0.3655 -0.0514
31163W        W48010   4.722  17.461  13.577  0.1061  0.2333  0.1878
31164W        W48011  11.575  14.691  11.159  0.1292  0.6264  0.0313
31165W        W48012   1.558  16.731   4.051 -0.1027  0.1371  0.2348
31166W        W48013  17.678  18.950  11.464  0.0746  0.1458 -0.0037
31167W        W48014   2.513   2.308  13.607  0.2353 -0.2223 -0.0811
31168W        W48015   2.298  12.857   5.362  0.0935 -0.0374  0.2988
31169W        W48016  15.300  14.894   3.898 -0.2338 -0.0825  0.0654
31170W        W48017   9.950   2.601   9.710  0.2099  0.1524  0.0015
31171W        W48018   6.759   4.869   3.123 -0.0415  0.1976  0.2131
31172W        W48019  16.360  12.545  10.781  0.3051  0.0176  0.1002
31173W        W48020  17.575  13.272   2.978 -0.2242  0.0031 -0.2094
31174W        W48021  13.377   4.138   3.703  0.0042  0.2881 -0.3178
31175W        W48022   8.710   7.720   2.746  0.3483  0.0177  0.2633
31176W        W48023  13.142   0.748  10.390  0.1049  0.2610  0.3825
31177W        W48024  10.373  16.414  13.043  0.2618 -0.1314  0.3463
31178W        W48025  10.340   4.923  12.980  0.1878 -0.0959 -0.0405
31179W        W48026   5.345   3.786   3.163  0.1163  0.1980  0.0761
31180W        W48027  17.372   8.936  10.474  0.0342  0.1930  0.0443
31181W        W48028  12.806  19.403  12.934 -0.3205 -0.2742  0.3634
31182W        W48029   8.424   5.155   1.527  0.1774 -0.1140 -0.1199
31183W        W48030  10.680  14.412   1.316 -0.1502  0.3515 -0.3798
31184W        W48031   2.390  12.668  10.857 -0.1721 -0.0267  0.0215
31185W        W48032   3.459  19.028   3.712  0.1071  0.1298  0.0208
31186W        W48033  13.860   9.602  10.319  0.2410 -0.0083 -0.1461
31187W        W48034  10.091  11.268  13.733 -0.0463  0.0418 -0.1158
31188W        W48035  15.809  15.619   1.143  0.0281 -0.0219 -0.1817
31189W        W48036  11.774  10.839   0.704 -0.0914 -0.0165  0.1389
31190W        W48037   0.976   4.023  10.750 -0.0761 -0.0399  0.1129
31191W        W48038   2.435  13.806   3.659 -0.2255 -0.3409 -0.0201
31192W        W48039   9.706   1.182  11.886 -0.0980  0.1052 -0.0717
31193W        W48040  17.076  14.609  10.945 -0.2525  0.0778  0.1098
31194W        W48041   6.436  17.576  11.642  0.1691  0.1779 -0.2356
31195W        W48042  17.242  14.732   9.151 -0.6024 -0.0919 -0.0428
31196W        W48043  10.222   9.506  12.569  0.1076  0.0934  0.0922
31197W        W48044   0.550   8.373   3.683  0.1083 -0.0840  0.2471
31198W        W48045   5.356   7.586   2.123  0.0031 -0.0341 -0.1399
31199W        W48046   3.779  11.616  13.590 -0.0945 -0.1470  0.0749
31200W        W48047   0.347  18.664   2.977 -0.3276  0.3132  0.1786
31201W        W48048  12.963   9.380   3.897  0.2787 -0.1234 -0.0137
31202W        W48049  17.508  12.468  13.300 -0.1153 -0.2583 -0.2587
31203W        W48050  18.163   8.591   2.669 -0.1628  0.0489  0.0446
31204W        W48051  14.389  14.329   1.785  0.1572 -0.1320  0.0676
31205W        W48052  15.066  13.870   4.640  0.0911 -0.3032  0.1890
31206W        W48053  11.388  19.569   1.517  0.1612  0.2666 -0.0374
31207W        W48054  15.129  18.099  10.733  0.0653 -0.1406  0.2956
31208W        W48055   0.030  10.306  10.622  0.1959 -0.0320  0.3515
31209W        W48056  12.492  13.980   2.888 -0.0713 -0.1299 -0.2196
31210W        W48057   7.142   2.139   9.904  0.2643 -0.0086 -0.0688
31211W        W48058   3.372   0.502  11.958  0.1063 -0.0055 -0.1088
31212W        W48059  17.719  18.668   0.156 -0.1436 -0.3963 -0.1015
31213W        W48060  17.437  17.870  12.628  0.2146  0.3480  0.2112
31214W        W48061  11.455  17.772   4.310 -0.0547  0.0170 -0.0565
31215W        W48062   1.122  11.601  10.726 -0.0740  0.4180  0.1602
31216W        W48063   2.140   6.052  13.954  0.1206 -0.1419  0.2715
31217W        W48064  19.238  15.746  11.534  0.1833 -0.3808 -0.1621
31218W        W48065   8.949   2.636  10.854  0.0066 -0.1434  0.1001
31219W        W48066   0.570   3.454   3.446  0.1193 -0.0426 -0.4437
31220W        W48067  14.443  16.584  11.156  0.3337 -0.0255  0.0946
31221W        W48068  15.615   3.887  11.228  0.4137 -0.4958 -0.0091
31222W        W48069   8.396  12.420   2.480  0.2653 -0.0317  0.1351
31223W        W48070  15.923   9.018   2.116 -0.3112  0.2163  0.0836
31224W        W48071   1.325   5.237   3.570  0.2109 -0.1046 -0.2761
31225W        W48072  17.402   5.240  13.257 -0.0272 -0.0868  0.4388
31226W        W48073  13.255  17.242  13.461  0.0149  0.0529 -0.4240
31227W        W48074  18.768   6.854   4.350  0.2013 -0.0167  0.1872
31228W        W48075   6.093   2.963  10.779 -0.4604 -0.0771 -0.2686
31229W        W48076  10.340   9.504  13.124  0.0658 -0.1977 -0.0118
31230W        W48077  14.700  13.681  11.898  0.1072 -0.3545 -0.1021
31231W        W48078   6.102  19.282   0.883 -0.0279  0.1130 -0.4627
31232W        W48079  19.390  14.153   3.550  0.2912  0.1573 -0.1465
31233W        W48080   3.940  18.321  12.776  0.1116  0.0618  0.1428
31234W        W48081  14.138   2.882  11.397 -0.0531 -0.1115 -0.1420
31235W        W48082   2.820  15.682  10.681 -0.0108  0.3762  0.1297
31236W        W48083   9.840  16.850  12.185  0.1581  0.1631  0.2558
31237W        W48084   8.025  15.619  13.520  0.0719 -0.1574  0.3877
31238W        W48085  11.422  13.673   0.289 -0.1234 -0.2340  0.0421
31239W        W48086  18.421   7.934  11.766 -0.0792 -0.1692  0.0767
31240W        W48087  16.535  12.074  13.350  0.3047 -0.0135  0.0680
31241W        W48088  12.095  10.556   1.901 -0.3441 -0.0898 -0.4242
31242W        W48089  15.887   3.177  10.148 -0.0013 -0.1640 -0.0848
31243W        W48090  16.180   3.984   2.530 -0.2722 -0.0505  0.0816
31244W        W48091   8.154   0.447  13.255  0.0507 -0.0891 -0.1684
31245W        W48092   0.582   9.603  10.242  0.0683  0.1596 -0.1219
31246W        W48093   7.615  13.999   2.259  0.0190 -0.3572  0.1601
31247W        W48094  12.247  15.174   3.157  0.0109 -0.0789 -0.0470
31248W        W48095   4.605   6.824   1.134  0.2113  0.1646 -0.1147
31249W        W48096  18.625   7.222   4.993  0.3119  0.2079  0.0605
31250W        W48097  14.200  19.053   3.109 -0.0146 -0.0695 -0.1874
31251W        W48098   8.779  18.957   1.972  0.0545 -0.0115  0.0154
31252W        W48099   1.699   2.435  11.410  0.5020 -0.4396 -0.3113
31253W        W48100   3.101  17.369   1.904 -0.4462 -0.2272 -0.1486
31254W        W48101  13.365  16.017  13.291 -0.0415 -0.0921  0.1075
31255W        W48102  18.292   5.013   0.986  0.3384 -0.2402  0.0078
31256W        W48103  14.897  14.148  13.764  0.1121 -0.0463 -0.0119
31257W        W48104   6.303   2.381  10.667  0.0082 -0.0666  0.1126
31258W        W48105   9.490   0.804   3.720  0.1962  0.0100  0.4220
31259W        W48106   9.618  18.338   5.237 -0.0166  0.1014 -0.3985
31260W        W48107   7.096   9.396   2.992  0.3760 -0.0807 -0.1143
31261W        W48108   9.629  12.144   3.969  0.1110  0.2865 -0.2748
31262W        W48109   9.923   6.100  12.112 -0.1609  0.0430 -0.2242
31263W        W48110  19.015  13.682   1.224 -0.2516  0.3268  0.2673
31264W        W48111  10.795  19.049   0.536 -0.0183 -0.1185  0.1793
31265W        W48112   7.368  11.461  12.480  0.1848 -0.3023 -0.3087
31266W        W48113   8.265  12.493  12.731  0.0837  0.1838 -0.1833
31267W        W48114   5.343   0.940  11.759  0.0528 -0.0851 -0.1842
31268W        W48115  14.774   0.899   1.401 -0.0543 -0.0489 -0.3109
31269W        W48116   9.073   9.017   4.682 -0.0213  0.2222 -0.1067
31270W        W48117  14.747  11.584   4.569  0.0177 -0.0438  0.2283
31271W        W48118  18.719  16.646   1.466  0.0614 -0.2566 -0.2307
31272W        W48119   3.193   1.216  13.714 -0.1305  0.0587  0.3919
31273W        W48120  18.515   5.436  13.806  0.1043  0.1673  0.0336
31274W        W48121   5.595   0.964  11.315  0.0383  0.0401 -0.4096
31275W        W48122  10.260  14.095   0.893 -0.0766  0.0243 -0.1357
31276W        W48123  17.271   2.127   4.088  0.0077  0.2854  0.1352
31277W        W48124   4.146  15.029   2.764  0.0793  0.0619  0.0533
31278W        W48125  17.574  18.354  12.107  0.1378  0.0200  0.1368
31279W        W48126   4.290   1.682   3.236  0.0405 -0.1028 -0.0133
31280W        W48127   7.198   2.203  12.286  0.0370  0.0853  0.0081
31281W        W48128  11.898   8.820  12.746 -0.3347 -0.0066 -0.3709
31282W        W48129  11.759  16.182  12.749  0.5310  0.3084 -0.0764
31283W        W48130   8.749   7.824   0.762 -0.2268 -0.0843  0.0221
31284W        W48131   0.421  12.568  12.707  0.2159 -0.0791  0.0680
31285W        W48132  14.774   6.455  12.125 -0.4881 -0.1997 -0.1865
31286W        W48133  19.070  15.659   2.909  0.1870 -0.0317 -0.1269
31287W        W48134   9.255  16.033  13.497 -0.0293  0.1415 -0.1778
31288W        W48135  19.840   1.020   4.020 -0.2392 -0.2882  0.2119
31289W        W48136   5.404   5.780   4.203  0.3813 -0.1158 -0.4164
31290W        W48137  11.472  14.321  12.922 -0.2170 -0.0512  0.1497
31291W        W48138   1.652   0.800   9.651  0.2554  0.3426  0.1099
31292W        W48139  18.278  10.829  14.244 -0.0793 -0.2276 -0.3114
31293W        W48140   9.370  17.804   5.027 -0.1573 -0.3681 -0.0822
31294W        W48141   6.206   3.902  11.561 -0.4241 -0.0885 -0.0972
31295W        W48142  18.134  13.262   2.747 -0.1815 -0.0196  0.0493
31296W        W48143   5.432  14.399   1.774  0.0619  0.0058  0.1521
31297W        W48144  16.869   5.499  13.125 -0.1144  0.0352 -0.0133
31298W        W48145   5.326   4.027  12.829  0.1867  0.0237  0.2187
31299W        W48146  11.588  13.728  14.190 -0.0439 -0.0549 -0.1658
31300W        W48147   8.108   7.598  13.015  0.0317  0.0784  0.0084
31301W        W48148   0.649   6.690  12.025 -0.0381  0.0482  0.0356
31302W        W48149   8.518  16.383   5.521 -0.1929 -0.2237 -0.1145
31303W        W48150  10.559   9.360  10.093  0.4193  0.2190 -0.1894
31304W        W48151  16.612   9.806  12.806 -0.1174  0.1711 -0.0899
31305W        W48152  18.320   4.846   4.567 -0.1016 -0.0363 -0.4241
31306W        W48153  19.323  11.212   4.297  0.1944  0.0485 -0.1128
31307W        W48154  18.186   9.533   2.691  0.0189 -0.0591  0.3212
31308W        W48155   6.375  17.959   4.517 -0.1606  0.0570 -0.0136
31309W        W48156  16.130  11.097  10.508  0.0532 -0.0342  0.0420
31310W        W48157   8.922   4.408   0.784  0.0566  0.1537  0.2008
31311W        W48158  16.826   2.388  10.849  0.1833 -0.2747 -0.4253
31312W        W48159   0.101  12.583   1.735  0.0993 -0.2832  0.0718
31313W        W48160  11.938  16.561   0.165  0.0908  0.1836  0.3693
31314W        W48161  13.896  13.125  10.448 -0.1922  0.2203  0.0866
31315W        W48162   5.657  16.731   5.229 -0.3053 -0.2408 -0.0120
31316W        W48163  17.380  18.583  11.409 -0.4305  0.0072  0.0779
31317W        W48164   9.112  15.905   1.346 -0.0782  0.2057 -0.3700
31318W        W48165   1.397   9.402   9.638  0.0490  0.0307 -0.0006
31319W        W48166  17.904   2.504  10.423 -0.0537  0.0873 -0.1045
31320W        W48167   4.012   8.635   2.956 -0.3678  0.4153  0.1825
31321W        W48168  15.458  16.823   4.886 -0.0729  0.0430  0.1923
31322W        W48169   1.780   1.914   1.291 -0.2888 -0.0212  0.2317
31323W        W48170  12.800  19.237  12.365  0.0842  0.0287  0.1075
31324W        W48171   3.396  12.240  12.990  0.0901 -0.2928 -0.0354
31325W        W48172  16.956  10.833  10.302 -0.1559  0.0495 -0.0458
31326W        W48173  16.322   0.196   3.514 -0.0096 -0.0808 -0.2051
31327W        W48174  11.877  12.479   3.487  0.1228 -0.0720  0.0951
31328W        W48175  16.949   8.056   0.842 -0.2246  0.2331  0.1998
31329W        W48176   6.008   9.052   3.134  0.0129  0.1874 -0.3621
31330W        W48177   0.665   3.731   3.921  0.2245  0.0598 -0.0291
31331W        W48178   4.053   5.188  12.085  0.1428  0.2190  0.4172
31332W        W48179  15.293  16.580  11.059 -0.2597 -0.0348  0.0261
31333W        W48180   9.917  16.878  10.563 -0.0474 -0.2544  0.3484
31334W        W48181  10.491  19.379   0.765  0.1541  0.1922  0.2773
31335W        W48182   8.207   4.213   4.273  0.0881 -0.2619  0.1170
31336W        W48183   7.994  18.126  11.068 -0.4037  0.0400 -0.0220
31337W        W48184   7.241   3.630   1.838 -0.0105 -0.3154  0.1024
31338W        W48185  18.003   1.195  12.105  0.1627  0.0519 -0.4125
31339W        W48186  13.297   1.680  11.953 -0.1833 -0.1131  0.1215
31340W        W48187   8.333   9.432  14.189 -0.0325  0.0097  0.0408
31341W        W48188  12.093  13.583  12.054 -0.1127 -0.5328  0.3240
31342W        W48189   9.998   5.224  11.506 -0.3667  0.1940  0.1465
31343W        W48190  12.879   6.106  13.252  0.0927  0.0113 -0.0544
31344W        W48191   8.489  16.135  12.971  0.2294 -0.0613  0.2695
31345W        W48192   9.053   6.845   0.323 -0.1872 -0.0195 -0.1471
31346W        W48193   9.881   2.117  10.330 -0.3014  0.0417  0.1510
31347W        W48194   2.377   0.575  11.958 -0.0001  0.1827 -0.3392
31348W        W48195  13.412  17.502   1.821  0.1902  0.0598  0.0281
31349W        W48196   0.130  18.171   0.343 -0.1743  0.1887 -0.2056
31350W        W48197  12.613  12.615   2.353  0.1404  0.0268  0.0475
31351W        W48198  18.396   5.610  12.986 -0.1111  0.3582  0.1083
31352W        W48199   1.138   0.530   1.610  0.0340 -0.3515 -0.2033
31353W        W48200   4.309   7.131  10.237 -0.1652 -0.1016  0.3260
31354W        W48201   2.052  16.417   0.337 -0.1056  0.1272 -0.0814
31355W        W48202   1.008   4.743   1.598  0.1073  0.2294 -0.0017
31356W        W48203  14.506   4.887   2.991  0.1402  0.2197  0.0529
31357W        W48204  19.871  12.525   3.573  0.1490 -0.2175 -0.2399
31358W        W48205   7.626   1.421  11.373  0.0386 -0.1646  0.2070
31359W        W48206   7.247   1.943   0.246  0.3574  0.0667  0.4250
31360W        W48207  19.243  10.070  14.141 -0.2250 -0.0446  0.1253
31361W        W48208  12.172   0.653  13.546 -0.1009 -0.1848  0.3078
31362W        W48209   3.054  13.850   2.380  0.1638 -0.2223 -0.1538
31363W        W48210  16.351  19.197  10.550 -0.0847  0.2703 -0.2737
31364W        W48211   2.970  10.634   6.109 -0.0319 -0.0428  0.1092
31365W        W48212  12.411  17.360   0.828  0.1258 -0.2489 -0.0312
31366W        W48213   3.652  17.878   3.670 -0.1554  0.2612  0.3000
31367W        W48214   3.118   1.595   3.875 -0.0738  0.2277  0.3791
31368W        W48215   8.138   2.252  11.866 -0.0042  0.1999  0.0515
31369W        W48216  17.595   2.862  10.012 -0.4426  0.0506 -0.2941
31370W        W48217  10.700  16.097   2.552 -0.1235 -0.0275 -0.2480
31371W        W48218   1.024   9.255   1.310 -0.3714  0.2136 -0.0606
31372W        W48219   6.911  12.869   5.054 -0.0444  0.3141 -0.1563
31373W        W48220  14.203  15.290  11.537 -0.0285  0.2762  0.1557
31374W        W48221   3.399  14.965  11.207  0.3923 -0.0785 -0.1850
31375W        W48222   5.196   0.858  13.231  0.0565 -0.0364 -0.2082
31376W        W48223  11.174  14.967   4.365 -0.0907 -0.1887  0.0155
31377W        W48224  11.675  19.435  13.485  0.0429  0.0999  0.1279
31378W        W48225   2.226  14.715   4.639 -0.0010  0.0482  0.0449
31379W        W48226   7.591   3.681   2.245 -0.1073  0.0684 -0.2620
31380W        W48227   9.236   4.085   1.502 -0.3372 -0.2390  0.0458
31381W        W48228  17.708  17.260   3.357  0.1890  0.1897  0.0924
31382W        W48229  12.836   2.377  13.170  0.0384  0.0156  0.0435
31383W        W48230   1.541  18.897   9.478 -0.1116  0.3926  0.1473
31384W        W48231   1.809  16.434  11.847 -0.0044  0.0950 -0.1959
31385W        W48232   6.253  18.455   4.430 -0.1091  0.1144  0.1117
31386W        W48233  13.653   3.310  13.260  0.2776  0.3692  0.0216
31387W        W48234  13.329  10.239   1.121 -0.2493 -0.3610 -0.1657
31388W        W48235  11.864  15.838  12.420  0.1205 -0.2601  0.1665
31389W        W48236   0.140  12.713  11.495  0.0600 -0.1137  0.0721
31390W        W48237   9.261   5.916  13.996  0.0106  0.2340 -0.3827
31391W        W48238  10.986   3.100  10.455  0.0849 -0.2046  0.1730
31392W        W48239  13.163  14.367  13.996  0.0701  0.0866  0.0417
31393W        W48240  13.747  19.198  11.358 -0.0181 -0.1399  0.2470
31394W        W48241   5.387  11.448   2.099 -0.1657 -0.0369  0.5519
31395W        W48242  18.947  16.763   3.349 -0.2084 -0.2661 -0.0547
31396W        W48243   3.572  10.284   2.747 -0.0509  0.0757  0.0528
31397W        W48244   5.117   5.630   0.881  0.0339  0.0408  0.0829
31398W        W48245   5.698   2.648  13.372  0.3631  0.1058  0.2134
31399W        W48246  12.472   1.872   4.150  0.2174  0.2186  0.1890
31400W        W48247   7.370  15.463  12.463  0.3054 -0.2264 -0.0366
31401W        W48248  16.154  12.143   4.638 -0.0191  0.1265  0.2749
31402W        W48249  16.741   1.043   1.952  0.3958  0.2605 -0.1913
31403W        W48250  15.721  10.693   3.187 -0.0233  0.3471  0.1242
31404W        W48251  19.152   2.917   1.663 -0.2388  0.0287 -0.3614
31405W        W48252   0.464   4.811   4.876  0.1723  0.0635 -0.1314
31406W        W48253  12.508  12.561   4.344 -0.0278 -0.0033 -0.6230
31407W        W48254  17.711  10.969   3.645  0.0919 -0.1939 -0.1887
31408W        W48255   4.634   7.962   4.857  0.0745  0.1101  0.0079
31409W        W48256  13.186  16.426   3.893  0.2493 -0.1486  0.0086
31410W        W48257  13.266  18.829   3.236  0.0300  0.1461 -0.0424
31411W        W48258   8.679   4.221  10.697  0.1368 -0.2407 -0.1400
31412W        W48259  18.944  12.455  14.027 -0.2589  0.0708  0.1199
31413W        W48260  11.968   8.928   3.941  0.1144 -0.1908  0.0090
31414W        W48261   5.880  17.484  11.310  0.0040 -0.1567  0.0675
31415W        W48262   9.194  13.331   1.758 -0.1753  0.1575  0.2196
31416W        W48263   1.499  12.977   4.299 -0.1191  0.0771 -0.3152
31417W        W48264   3.848   5.240  14.042  0.0728 -0.1619  0.0281
31418W        W48265   7.730  18.661   5.431  0.1818 -0.2139 -0.2263
31419W        W48266   2.926   8.327  11.299 -0.1358  0.2620 -0.4846
31420W        W48267   6.337  13.661  12.703 -0.1487 -0.3155  0.2975
31421W        W48268   1.335  10.677  10.334 -0.1245 -0.0040  0.1912
31422W        W48269  12.376  15.523  12.765 -0.3440  0.1694 -0.0561
31423W        W48270  11.388  18.738  12.962 -0.1981 -0.2782  0.2807
31424W        W48271   0.226   2.190   4.283 -0.1610  0.2818  0.0321
31425W        W48272  13.847   5.505   3.505 -0.2054  0.2065 -0.2995
31426W        W48273  10.848   0.960  11.232  0.0190 -0.1829 -0.1376
31427W        W48274   7.623  10.507   0.870  0.0788 -0.1073 -0.1647
31428W        W48275  12.389  18.988   0.691 -0.1139 -0.0369 -0.1133
31429W        W48276   7.410   3.559  14.233  0.2266  0.2357 -0.2777
31430W        W48277   8.947  15.455  14.360 -0.1657  0.0105  0.0787
31431W        W48278  13.687  14.936  13.153  0.1027  0.3052  0.0450
31432W        W48279  18.148  19.322  14.265  0.1817 -0.1015 -0.0283
31433W        W48280   1.225   5.601   2.413 -0.4195 -0.1386 -0.1374
31434W        W48281   9.425  11.236   5.413 -0.0139  0.1994  0.0750
31435W        W48282   7.693   9.372   2.154 -0.2054 -0.1262  0.1492
31436W        W48283  14.331  14.510  12.084  0.3568 -0.0419 -0.2312
31437W        W48284   3.504   5.230  11.060  0.1009  0.0041 -0.2166
31438W        W48285  13.578   0.628   0.823 -0.3868 -0.2568 -0.0755
31439W        W48286   9.700   3.598   2.139 -0.2057  0.1640 -0.3683
31440W        W48287  17.200  12.006  13.337 -0.2546  0.0177 -0.2342
31441W        W48288   2.740  12.922   4.973 -0.0435  0.2604  0.0566
31442W        W48289  19.476   3.447  10.471  0.4672 -0.1448 -0.3566
31443W        W48290  10.437  16.533  10.600 -0.1537 -0.1108 -0.1506
31444W        W48291  16.095  14.650   2.774  0.0357  0.4121 -0.1582
31445W        W48292   8.536   6.374  13.791  0.0371  0.2015  0.2100
31446W        W48293   5.138  12.710  13.183  0.0467  0.0012 -0.0769
31447W        W48294  14.898  10.929  13.451  0.1025  0.0257 -0.0458
31448W        W48295  18.065   2.196   0.653 -0.2651 -0.2012  0.0524
31449W        W48296  13.260   3.058   0.749 -0.0307  0.1742 -0.1458
31450W        W48297  15.478  15.445  13.219 -0.1089  0.0468  0.2523
31451W        W48298   4.998  13.382   0.070  0.5083 -0.1929  0.2490
31452W        W48299  13.797   5.763  13.759 -0.2260  0.0167 -0.1071
31453W        W48300   4.681  18.508  14.358 -0.0995 -0.0873  0.0059
31454W        W48301   6.070  13.103   1.376 -0.2348  0.1657  0.0121
31455W        W48302   8.831  11.068  11.430  0.0393  0.1740 -0.0435
31456W        W48303  16.182  15.149  14.311  0.0479  0.0985  0.0431
31457W        W48304   3.070  16.060  13.148  0.0489 -0.0374  0.3395
31458W        W48305  11.954   0.303   9.481 -0.0457  0.0769  0.0629
31459W        W48306   0.913  16.453   4.757  0.1328 -0.2798  0.1319
31460W        W48307  18.858   7.012  10.097  0.0451 -0.1241  0.0737
31461W        W48308   8.028  16.111  13.332  0.2315  0.1496 -0.0031
31462W        W48309   3.863   3.574   4.143 -0.3820 -0.0280 -0.2264
31463W        W48310  14.896  19.733   3.423  0.3116 -0.0877 -0.0246
31464W        W48311   4.237   0.807   0.711  0.2007  0.0882 -0.0882
31465W        W48312  14.185   3.007   3.025  0.2690 -0.1074  0.0456
31466W        W48313  19.783  18.337  10.458  0.0637  0.0576  0.1461
31467W        W48314  17.432  17.252  11.308  0.0009 -0.2230  0.0182
31468W        W48315  16.990   1.406   3.668 -0.1369  0.2461  0.3558
31469W        W48316  19.037   5.105   1.273  0.1890 -0.0414 -0.1970
31470W        W48317   5.911  16.408   0.687  0.0401 -0.1402  0.0400
31471W        W48318  18.853  15.719   4.444  0.0015 -0.2921 -0.2666
31472W        W48319  11.163  19.297  13.237 -0.5697 -0.0603  0.3002
31473W        W48320   6.221  13.519   0.311  0.1200  0.1485  0.1760
31474W        W48321   4.434  10.266  11.684  0.2905  0.0776  0.0124
31475W        W48322   6.145  17.388  10.403  0.2483  0.0397  0.2033
31476W        W48323  17.048   2.823   0.675  0.4111  0.2021 -0.1292
31477W        W48324   9.811   5.156  10.387 -0.0119 -0.0822  0.2875
31478W        W48325   4.756  19.630   3.961 -0.1372  0.2026 -0.2239
31479W        W48326  17.845   9.637   2.242  0.1699  0.0057  0.0117
31480W        W48327  10.751  18.814   1.848  0.0352 -0.2049 -0.1033
31481W        W48328  19.866  10.570   2.554  0.1642  0.0652  0.0099
31482W        W48329  13.627   2.251  14.082 -0.0243 -0.1958 -0.0578
31483W        W48330   1.123   4.313  12.112 -0.1428  0.3155  0.2004
31484W        W48331   2.464  18.885   3.399 -0.1314  0.1494  0.0174
31485W        W48332   1.925   3.173  10.762 -0.0869 -0.1149 -0.3432
31486W        W48333  16.443   7.121   9.037 -0.2527  0.0715  0.1255
31487W        W48334   9.281  15.205  12.433 -0.5164 -0.3181 -0.1078
31488W        W48335  10.589  15.595   0.242  0.2108  0.0181 -0.0117
31489W        W48336  11.059  13.992  12.890  0.3157  0.3876 -0.3598
31490W        W48337   2.058  14.316  10.188 -0.2472 -0.0635 -0.1864
31491W        W48338   6.164  13.400   1.751 -0.1533 -0.0152 -0.2432
31492W        W48339  18.227   2.802   0.861 -0.0635  0.0223  0.0587
31493W        W48340  12.948  15.696   1.223  0.4855 -0.0393 -0.2172
31494W        W48341   1.126  10.052  12.045 -0.1856 -0.1142  0.1642
31495W        W48342  15.689  12.714  10.189 -0.0099  0.0656 -0.1992
31496W        W48343   2.403  12.969   3.299 -0.2438  0.1581  0.2889
31497W        W48344   3.510   2.970  11.786  0.5347 -0.0614 -0.0531
31498W        W48345   9.652  10.065  13.311 -0.2044  0.2740 -0.0538
31499W        W48346   6.858  10.856  14.008 -0.2875 -0.1723  0.2877
31500W        W48347   8.954  17.860  13.767  0.2623 -0.0671 -0.0543
31501W        W48348   9.722  16.201  13.339 -0.1220 -0.2426  0.1094
31502W        W48349   4.075  16.075   1.260  0.2800  0.0965  0.0642
31503W        W48350  18.195   2.167  10.899  0.0285  0.3340 -0.2234
31504W        W48351  14.015  19.607  11.203  0.0881  0.0097  0.0359
31505W        W48352  18.656   3.687   1.574  0.2249  0.1205 -0.0797
31506W        W48353  10.375   7.312  12.552 -0.1785  0.0389  0.2573
31507W        W48354  14.586   6.579   0.127 -0.1736  0.0429 -0.3152
31508W        W48355  13.340   8.470  14.099 -0.2490 -0.1828 -0.0993
31509W        W48356   6.349   3.562  11.964 -0.0761 -0.2211  0.1268
31510W        W48357  14.071  14.509  10.089  0.1557  0.3457  0.1120
31511W        W48358   1.659   6.235  12.226 -0.0723 -0.2481 -0.2286
31512W        W48359  18.316   7.375  10.655  0.5191 -0.0116 -0.2408
31513W        W48360  14.169  12.520   0.570  0.0638  0.4138 -0.3057
31514W        W48361  18.299   1.907  12.732 -0.2163  0.1048 -0.1302
31515W        W48362   5.412   1.420   3.296 -0.2965 -0.2249 -0.0672
31516W        W48363  12.108   9.186  10.450  0.1690 -0.0610 -0.1652
31517W        W48364   7.996   8.604   9.568  0.1951  0.0831 -0.0058
31518W        W48365  17.251  11.648  13.687 -0.1035 -0.3034 -0.2100
31519W        W48366  14.606  12.513   1.395  0.0855  0.0707  0.0181
31520W        W48367   6.106   6.641   3.737  0.1020 -0.2303  0.1239
31521W        W48368  10.311  12.490  10.568  0.4592  0.0717 -0.1373
31522W        W48369  19.786   0.379  12.130  0.1029  0.1411 -0.0018
31523W        W48370  14.264  13.029  13.330  0.1191  0.0333 -0.0467
31524W        W48371  10.247   3.361  11.108  0.1067 -0.0792 -0.0854
31525W        W48372   4.654   2.775  13.674  0.0609  0.0854  0.0478
31526W        W48373  13.779  12.700   3.070  0.0608 -0.4417  0.1109
31527W        W48374   4.208   1.952   1.895 -0.4198  0.3046  0.0008
31528W        W48375   8.881  19.725  11.742 -0.2691 -0.0678 -0.2127
31529W        W48376  16.026   9.458   2.494 -0.0205 -0.0232 -0.1565
31530W        W48377   3.641   5.480  10.203  0.3861 -0.0066  0.0677
31531W        W48378   4.844  19.759   1.079  0.3124 -0.0468  0.1206
31532W        W48379   6.091   1.810  11.504  0.0265 -0.0722  0.0050
31533W        W48380  13.835   9.685   4.017 -0.0137 -0.0413  0.3565
31534W        W48381  10.500  18.460   2.131 -0.0218 -0.0174  0.4022
31535W        W48382  16.067   6.732  13.214 -0.1631 -0.0071 -0.2873
31536W        W48383  15.133  12.674  13.675 -0.3160 -0.1530  0.0431
31537W        W48384  17.931   6.199  10.633  0.0355  0.1017 -0.3127
31538W        W48385  13.051   4.645   3.095  0.0157  0.0617 -0.2911
31539W        W48386  15.407  11.422   1.325  0.0643 -0.0213 -0.1092
31540W        W48387   9.043   6.295  13.126 -0.1681 -0.1083 -0.1999
31541W        W48388   3.469   0.303  10.687  0.0860  0.1602  0.2634
31542W        W48389  10.094  12.532  11.267 -0.0673 -0.0119 -0.1415
31543W        W48390  14.038   8.861   3.199 -0.0242 -0.2238 -0.0880
31544W        W48391   4.648   7.555  12.358  0.1771  0.2777  0.0566
31545W        W48392  17.330  11.563   1.233  0.1180 -0.3368 -0.1005
31546W        W48393   2.393   2.644  12.945  0.3842  0.2855  0.2152
31547W        W48394  18.645  11.784   4.376 -0.1479 -0.1433  0.0194
31548W        W48395   7.310   3.950   4.318 -0.1905 -0.1629 -0.0614
31549W        W48396   3.169  12.460   0.185  0.0551 -0.0466 -0.0320
31550W        W48397   5.012  17.825   2.312  0.3688 -0.0464 -0.1323
31551W        W48398  12.407  16.700   5.653  0.0739 -0.1175 -0.5350
31552W        W48399  12.261  18.702  11.896  0.2372  0.0780  0.0161
31553W        W48400  17.649   7.857   1.907  0.0195 -0.3105  0.1557
31554W        W48401  14.484  19.796  11.441  0.2112 -0.0196  0.1699
31555W        W48402  10.014   4.339   5.023  0.0555  0.0114 -0.0966
31556W        W48403  13.817  14.533  10.988  0.3843 -0.0614  0.1100
31557W        W48404   2.730   2.842  10.249 -0.1297 -0.0807  0.1199
31558W        W48405  19.286   4.110  10.323 -0.1046  0.0066  0.3689
31559W        W48406   9.519  15.836   1.645 -0.3025 -0.3291  0.3817
31560W        W48407  19.714  17.774  11.464 -0.4853  0.0441  0.0665
31561W        W48408   9.522  16.106   1.078 -0.1042  0.2192 -0.1155
31562W        W48409   7.600  16.725  14.140  0.2067  0.3329 -0.3043
31563W        W48410  12.857   6.297  11.853  0.0842  0.2177  0.1537
31564W        W48411  10.784   1.462   2.959 -0.0133 -0.1781 -0.0687
31565W        W48412  10.649   0.780   3.184  0.2284  0.1152  0.2565
31566W        W48413   4.522  19.647   0.044 -0.0468 -0.0196 -0.3736
31567W        W48414  16.866  13.271   0.796  0.1401  0.0436 -0.0510
31568W        W48415   2.643  13.541   4.219  0.1175 -0.4114  0.0008
31569W        W48416  10.365  16.294   1.197  0.1148 -0.1685 -0.0803
31570W        W48417  15.082  12.658  11.931 -0.0493 -0.1510 -0.0877
31571W        W48418  11.227   3.722   4.703  0.1654 -0.1665 -0.3549
31572W        W48419   6.762   9.210   1.695 -0.1769  0.0098 -0.0842
31573W        W48420   6.300   8.682  13.774 -0.0165 -0.2226  0.0627
31574W        W48421  13.778  17.626   0.427 -0.2210 -0.0230 -0.0559
31575W        W48422  17.016  13.057   9.857  0.0300  0.4339  0.0925
31576W        W48423  11.829   3.996   1.246 -0.1366  0.2461 -0.1289
31577W        W48424   9.584   6.233   3.699  0.0250  0.0156 -0.3057
31578W        W48425  14.212   7.802   2.933 -0.2930  0.1844 -0.0868
31579W        W48426  13.311   5.986  10.188  0.3532 -0.3751  0.1860
31580W        W48427   8.569   8.274   0.495  0.0365 -0.2322  0.0240
31581W        W48428   5.252  13.847   2.587 -0.0666 -0.0974 -0.0857
31582W        W48429  16.216   8.074   3.800 -0.0827 -0.0516  0.3375
31583W        W48430   2.990   7.198   3.183  0.0598 -0.0771 -0.2710
31584W        W48431   7.472  14.058  12.596  0.2176  0.1571 -0.0430
31585W        W48432  11.979  17.322  12.028 -0.0694  0.0476  0.3294
31586W        W48433  19.601   6.523  12.924 -0.2860  0.2956 -0.1670
31587W        W48434   3.754  16.171   5.325  0.0391  0.0357 -0.1210
31588W        W48435  10.366   1.952  12.479  0.1046 -0.1264  0.0559
31589W        W48436  13.382   4.148  12.903  0.0727  0.2764  0.0140
31590W        W48437   2.622   6.610  12.240  0.1654 -0.0540 -0.2472
31591W        W48438   4.552  11.306   0.908 -0.1126  0.1324 -0.1199
31592W        W48439   1.965  17.015   0.842 -0.0509 -0.0113  0.1082
31593W        W48440   4.407  11.714   9.642  0.0452  0.0383  0.1869
31594W        W48441   7.502  19.335  10.283  0.1380  0.2415  0.1213
31595W        W48442   1.666   0.108   1.178  0.2588 -0.0306  0.2055
31596W        W48443   0.469  11.893  11.879  0.3366 -0.0608  0.0126
31597W        W48444  12.307  11.223   3.983 -0.1602 -0.2797  0.0436
31598W        W48445   2.929   1.248   2.257  0.1753  0.0658  0.0534
31599W        W48446   9.308  19.265  11.670  0.0588 -0.1990 -0.1232
31600W        W48447   5.220   9.134   0.945  0.1737  0.5148  0.2973
31601W        W48448   9.498   2.643   0.643  0.0816  0.2510 -0.0390
31602W        W48449  17.678  13.129   0.809  0.4070 -0.2220  0.2284
31603W        W48450   3.856   9.033   0.412 -0.2705  0.0486 -0.0181
31604W        W48451  17.966  11.561  12.996 -0.1267 -0.0692 -0.4004
31605W        W48452   3.626   2.448   1.924 -0.1187 -0.0026  0.1568
31606W        W48453   8.327  16.487   2.848 -0.1018 -0.1829 -0.1565
31607W        W48454  17.250  17.518   1.295  0.1639 -0.0383  0.3811
31608W        W48455  13.407   2.739  14.177 -0.1482 -0.2512 -0.0585
31609W        W48456  11.310   9.312  14.089  0.2997  0.3034  0.1803
31610W        W48457  16.571  10.253  12.624 -0.1738 -0.1494  0.3489
31611W        W48458  10.471   5.557  12.076  0.1284 -0.0563  0.1692
31612W        W48459   5.965  10.739  14.016  0.0327  0.0866 -0.1381
31613W        W48460   8.845   0.883   0.014  0.1327 -0.3226  0.2164
31614W        W48461   2.043   4.783   4.844  0.4937  0.2289 -0.3710
31615W        W48462   9.335   1.163  13.521  0.0480  0.3389 -0.1581
31616W        W48463  17.249  10.035  13.357  0.1223 -0.2748  0.3733
31617W        W48464  16.141   8.566   1.095  0.0055  0.0207 -0.4065
31618W        W48465  12.363  17.861   1.093  0.0740 -0.1523  0.0572
31619W        W48466   7.099  18.412   3.808  0.2418  0.1243  0.2791
31620W        W48467   8.378  16.981   0.031  0.0959  0.2766 -0.1358
31621W        W48468  15.758  14.055  12.181  0.0139  0.0820 -0.0562
31622W        W48469  18.830  10.665   2.070 -0.0193  0.2091  0.0144
31623W        W48470   8.719   2.696   1.695 -0.1035 -0.1908  0.0053
31624W        W48471   8.938   3.130   4.083 -0.1756 -0.2584 -0.0876
31625W        W48472  17.760   4.396  10.786  0.2687 -0.2710  0.3025
31626W        W48473   8.653   6.551  13.337 -0.1594  0.1962 -0.3432
31627W        W48474   3.728  16.082   1.977  0.1554  0.4517 -0.1831
31628W        W48475   1.808   5.945   0.014  0.0961  0.2010  0.0512
31629W        W48476  16.071   8.337  12.901  0.0905  0.2075 -0.0410
31630W        W48477  14.407   9.439   1.321 -0.2516 -0.3590  0.0393
31631W        W48478  18.338   8.898  11.676 -0.1068  0.1353 -0.1742
31632W        W48479   2.984   9.056   5.232  0.2471 -0.0548  0.2952
31633W        W48480   5.007  14.363  13.888 -0.1040 -0.2048  0.3715
31634W        W48481   1.378  19.436  14.304 -0.1557  0.2143  0.1575
31635W        W48482   8.982   5.951   0.608  0.1326 -0.1674  0.1501
31636W        W48483   5.630   2.675  10.063  0.0869 -0.2020 -0.0477
31637W        W48484  13.648   6.318  12.856  0.1819  0.1362 -0.2948
31638W        W48485  16.492  18.097  11.538  0.0161 -0.0214  0.0009
31639W        W48486   0.725   1.987  10.858 -0.0546 -0.0663  0.1699
31640W        W48487   9.893   7.875  10.211 -0.0670  0.1829  0.3438
31641W        W48488  16.681  12.787   2.176  0.0005 -0.0310  0.2521
31642W        W48489   6.166  17.785   0.873 -0.1215 -0.0564  0.0415
31643W        W48490  10.370   5.248   5.352  0.0251  0.0300 -0.1048
31644W        W48491   2.873  18.492   9.927  0.1697  0.1622 -0.1285
31645W        W48492   5.187   4.374  10.939 -0.1040  0.0914  0.1512
31646W        W48493  18.904   5.221  12.456  0.2170  0.0745 -0.1747
31647W        W48494   6.460   5.043  11.607  0.3404 -0.2098  0.0249
31648W        W48495  16.553   0.917   4.308  0.3353 -0.0868 -0.0816
31649W        W48496  15.269  12.464  10.500 -0.1172 -0.0730  0.2290
31650W        W48497  10.900  16.348  13.035  0.1405  0.0107  0.1799
31651W        W48498  13.437   5.622   2.548  0.2788  0.2065 -0.0454
31652W        W48499   5.259   7.354   0.161 -0.0383 -0.2545  0.0371
31653W        W48500  16.974   1.620   2.678  0.1137 -0.0304  0.0996
31654W        W48501   7.116   3.777  11.399 -0.0160  0.2004 -0.0258
31655W        W48502   0.503  14.598   3.235  0.0471 -0.3003 -0.0056
31656W        W48503  16.555   7.956   0.412 -0.1084  0.2165 -0.1992
31657W        W48504   8.827   0.629  11.442  0.0120 -0.1263 -0.1941
31658W        W48505  15.200   3.594  13.829 -0.1721 -0.2506  0.0802
31659W        W48506  14.035   6.852  13.428  0.0543 -0.5122  0.0954
31660W        W48507   4.177   7.575   4.752 -0.0054 -0.3006 -0.1690
31661W        W48508   6.807   4.361  10.440 -0.1086 -0.1837  0.0664
31662W        W48509  16.974  16.366  14.295  0.0465 -0.0863 -0.4436
31663W        W48510  15.078   4.016   0.147  0.1288  0.1267 -0.0912
31664W        W48511   7.632   5.696   3.651 -0.1812 -0.0364  0.1389
31665W        W48512   7.294   9.595   4.683  0.2323  0.0544  0.2218
31666W        W48513   7.884   9.522   1.712 -0.1365 -0.1649  0.0029
31667W        W48514   1.085   5.122  12.770 -0.2069  0.0039  0.2119
31668W        W48515   1.114  14.376  11.822  0.2565  0.1255  0.0525
31669W        W48516   9.683  13.689  11.516 -0.3442  0.2738  0.0891
31670W        W48517   0.037  17.742   3.708 -0.2800  0.1336 -0.1984
31671W        W48518  11.116   7.656   4.656  0.0184  0.3332  0.1070
31672W        W48519  13.599  11.674  11.206 -0.2165  0.2920  0.5973
31673W        W48520  16.185  17.262  14.310  0.2221  0.0722 -0.0121
31674W        W48521  19.786   3.315   3.656  0.3682  0.1880  0.1043
31675W        W48522   4.601  10.986   3.099 -0.4518  0.1232 -0.0551
31676W        W48523  18.642   2.917   3.213  0.0293 -0.0792  0.2302
31677W        W48524  13.610  19.278  11.850  0.4004  0.1853 -0.2343
31678W        W48525   2.930   7.861   0.254 -0.1699 -0.4074  0.1457
31679W        W48526   3.222  17.445   3.927  0.1508  0.0533  0.0872
31680W        W48527   5.809  16.297  12.928  0.0628 -0.0663  0.0473
31681W        W48528  13.357   1.960   3.381 -0.1009  0.1528 -0.0249
31682W        W48529  17.981   7.622   5.501 -0.3823 -0.0862 -0.0810
31683W        W48530  15.743  10.401   2.175 -0.0731 -0.3995  0.1458
31684W        W48531  10.188  10.690  10.388  0.0878  0.1465  0.4593
31685W        W48532   9.958  10.288  12.912 -0.0486  0.2075  0.1295
31686W        W48533  13.609  18.435  11.526  0.0510  0.1759 -0.1065
31687W        W48534  10.824  15.627  11.373  0.1238 -0.1118  0.1154
31688W        W48535  12.908   4.165   0.122  0.0662 -0.1143 -0.2178
31689W        W48536   3.648  15.018   2.823  0.2802  0.3305 -0.1369
31690W        W48537  14.702  12.158  13.347  0.0226 -0.1788 -0.1355
31691W        W48538   7.726  12.190   0.952 -0.1512  0.2284 -0.0511
31692W        W48539  17.315  14.069  10.071 -0.0881  0.0091  0.1825
31693W        W48540   9.536  10.054  10.776  0.0772  0.1701 -0.2656
31694W        W48541   8.440  17.207  12.679  0.3747 -0.0912 -0.3285
31695W        W48542  18.827  15.709  12.985  0.0827 -0.2761 -0.0471
31696W        W48543   1.201  19.786   1.733 -0.0640 -0.1892  0.0384
31697W        W48544  11.014  13.563   4.284 -0.1591 -0.1247  0.3779
31698W        W48545  10.986  19.101   4.166  0.1190  0.1412 -0.0726
31699W        W48546  19.671  18.935  13.987  0.2872  0.0705 -0.0139
31700W        W48547  13.365  16.465  11.162  0.0474 -0.2359  0.0188
31701W        W48548   5.696   3.968   3.598  0.0376  0.2126 -0.1209
31702W        W48549  10.277   7.918   2.350 -0.3749 -0.1867  0.3222
31703W        W48550  11.058   7.426   3.182 -0.2317  0.1051 -0.4518
31704W        W48551  14.608   2.431   1.084 -0.1517 -0.3161 -0.0950
31705W        W48552  12.173   3.889  11.779 -0.0534  0.1883 -0.0496
31706W        W48553  14.696  12.128   4.615 -0.1015  0.1491 -0.0041
31707W        W48554   9.190   0.287   3.983 -0.0883  0.2162 -0.2345
31708W        W48555   0.103   4.367  10.380 -0.0813  0.2011  0.3750
31709W        W48556   6.863  11.372   2.679 -0.0004  0.0759 -0.4004
31710W        W48557  17.203   0.605   9.278 -0.2879  0.3293  0.2540
31711W        W48558  11.225   0.650  11.301  0.2690 -0.3960 -0.2135
31712W        W48559   2.714   3.290   0.527  0.1800 -0.2028 -0.1860
31713W        W48560   1.891  17.481   2.978  0.0526  0.0052 -0.2284
31714W        W48561   6.140  11.013   3.239 -0.0054  0.0376 -0.2004
31715W        W48562   1.006   3.515  10.546  0.1222  0.0893 -0.3561
31716W        W48563   2.219  14.106  13.603  0.5005 -0.0336 -0.2336
31717W        W48564  19.019  16.774   9.839  0.0837 -0.0035 -0.0681
31718W        W48565   4.240  12.901   1.910 -0.0536  0.2217  0.2519
31719W        W48566   3.440   8.077  13.730 -0.1517 -0.2218 -0.1626
31720W        W48567   0.462   2.079   1.304  0.4441 -0.0330 -0.1558
31721W        W48568  10.906  13.097  11.385 -0.0289 -0.1932 -0.0206
31722W        W48569   4.694   5.581   3.400 -0.1759  0.3308 -0.2546
31723W        W48570   2.292  12.806  11.440 -0.5293 -0.0182 -0.0387
31724W        W48571  16.041  16.082   0.365 -0.2246 -0.1932 -0.1118
31725W        W48572   8.292  17.626  11.684  0.0040  0.1967 -0.1200
31726W        W48573  12.378  16.568   4.325  0.5660 -0.2020 -0.0596
31727W        W48574   2.373  13.399  11.326 -0.1620  0.0064 -0.0737
31728W        W48575   9.282   2.701  12.096 -0.0188  0.0470 -0.1535
31729W        W48576   3.547  16.828  11.516 -0.2974 -0.2701  0.0237
31730W        W48577   6.241   7.858   3.052  0.1434 -0.0436  0.1912
31731W        W48578   0.321   8.948  14.085 -0.0818 -0.0056 -0.0943
31732W        W48579  19.735   2.117  13.236 -0.1593  0.3717  0.1097
31733W        W48580  13.948  14.239  10.518  0.1701  0.1498 -0.0273
31734W        W48581   7.934   4.624   1.964  0.1873 -0.1605  0.0202
31735W        W48582   0.341   7.438   3.269  0.6178  0.1827  0.2179
31736W        W48583  12.916   9.854   2.902  0.3722  0.2152 -0.2396
31737W        W48584   0.625   4.836  12.751 -0.1488 -0.0987  0.0484
31738W        W48585  10.850  12.065   4.950  0.1172  0.0607 -0.0637
31739W        W48586  15.108  17.932   1.418 -0.2533  0.2275  0.0023
31740W        W48587  19.597  17.128   4.497  0.2327 -0.0553 -0.0356
31741W        W48588  18.156   2.589  12.761 -0.0763  0.0309 -0.0558
31742W        W48589   1.598  16.082   0.181 -0.0428  0.0230 -0.3120
31743W        W48590  14.604  17.486  11.308 -0.0216  0.0183 -0.0713
31744W        W48591  19.217  11.002   0.203 -0.1114  0.5349 -0.0216
31745W        W48592   6.824  14.559  14.187  0.0375 -0.0756  0.4315
31746W        W48593   4.877   8.969   0.620 -0.0291 -0.1067  0.0263
31747W        W48594   8.433   1.694   3.648  0.0033  0.2922  0.0564
31748W        W48595   7.057   5.901   5.211 -0.1550 -0.1405 -0.1311
31749W        W48596   0.289   2.796   3.477 -0.1399 -0.3470 -0.1946
31750W        W48597  18.124  14.134  12.118 -0.2597 -0.1650  0.3127
31751W        W48598   0.025  11.587  13.333  0.1363  0.0842  0.4169
31752W        W48599   9.557   9.158   4.554  0.3258 -0.2010  0.0862
31753W        W48600   8.895  18.349   4.076  0.0092 -0.2770 -0.0156
31754W        W48601   3.820   9.296   1.224  0.1720 -0.2443  0.1276
31755W        W48602  10.494  17.789  12.428  0.0306  0.1390  0.1087
31756W        W48603   0.112  15.001  13.704  0.0171 -0.0512 -0.1429
31757W        W48604   6.334   4.382  11.633  0.0629  0.2981 -0.0362
31758W        W48605  14.327  19.167   9.826 -0.0320 -0.0403 -0.1550
31759W        W48606  15.392  15.500   1.835 -0.0259 -0.1189  0.2574
31760W        W48607   3.730  19.470  10.833  0.2069 -0.1520  0.1300
31761W        W48608  18.160  14.433   1.230 -0.0108  0.0141 -0.0143
31762W        W48609   7.770   0.935  12.723 -0.3580 -0.1563 -0.2073
31763W        W48610  12.777   1.165   2.565 -0.2213  0.2944 -0.0303
31764W        W48611  14.740  10.468   0.658 -0.1379 -0.0213 -0.0158
31765W        W48612  13.803  15.609  13.624  0.1284  0.0443 -0.0042
31766W        W48613   8.534   8.370  13.454 -0.1035  0.0965  0.2149
31767W        W48614   8.244  19.659  13.497 -0.0236  0.2437  0.1228
31768W        W48615   1.066  19.813  13.581 -0.0532 -0.0408  0.0753
31769W        W48616   0.523  11.706  10.654  0.0280  0.0287  0.0224
31770W        W48617   7.969   5.411  13.978  0.4231  0.0841  0.2287
31771W        W48618   8.232  19.652   1.697  0.0691  0.0201 -0.0691
31772W        W48619   9.923   5.000   0.705  0.0942  0.3099  0.0213
31773W        W48620   9.271  15.827  10.275  0.0319  0.1095  0.0333
31774W        W48621   0.020   6.007   0.622 -0.0636 -0.0611 -0.1379
31775W        W48622  11.503  17.506   4.731  0.1503  0.1420 -0.3198
31776W        W48623  17.558   7.472  12.038 -0.1083 -0.3574  0.1498
31777W        W48624  16.911   1.882  10.580  0.0351  0.1820  0.3935
31778W        W48625   2.723  10.366  11.980 -0.2155  0.4138  0.0528
31779W        W48626   4.684  16.369  13.090 -0.1316  0.0346  0.1626
31780W        W48627   8.985   8.112   0.127  0.2292 -0.0969  0.1358
31781W        W48628   6.968  15.386   3.361 -0.2121  0.1259  0.0356
31782W        W48629   1.727   9.718   2.960  0.1599  0.3329  0.0874
31783W        W48630   2.765  12.529  10.179 -0.0606 -0.0622 -0.1270
31784W        W48631  17.267   0.117   3.416  0.5117  0.0119 -0.3020
31785W        W48632   4.985  11.168   3.346 -0.1997 -0.3831 -0.2130
31786W        W48633  11.803  17.071  12.944  0.0351 -0.0537  0.0942
31787W        W48634   9.758   6.964   4.650 -0.0744  0.0248  0.3988
31788W        W48635   0.433   4.849  13.369  0.1338  0.2336  0.3259
31789W        W48636  10.356   7.795   3.252 -0.0374  0.4018  0.1562
31790W        W48637  12.637   0.491  12.273  0.1078 -0.0151 -0.3741
31791W        W48638  10.741  16.740  14.009 -0.5007  0.0730  0.0258
31792W        W48639  13.013  11.989   0.819  0.1886 -0.0895 -0.3466
31793W        W48640   2.790  12.441  12.784  0.0783 -0.1065 -0.1235
31794W        W48641   2.036  13.661   0.879  0.6350  0.0293 -0.2484
31795W        W48642  13.623  12.057   8.933 -0.1255 -0.2963 -0.1048
31796W        W48643   7.067  18.803  14.292 -0.2228 -0.0835  0.1334
31797W        W48644  11.257   7.953  10.200  0.1665  0.2043  0.3822
31798W        W48645   3.130  17.129   0.414  0.2474 -0.4524 -0.2502
31799W        W48646  13.101   4.567   2.096  0.0194  0.1411 -0.0774
31800W        W48647   8.047   6.033   0.164  0.2345 -0.1329  0.3251
31801W        W48648  14.010   9.134   0.523  0.2846  0.7624  0.3856
31802W        W48649  12.950   5.788   0.634 -0.1647 -0.2564  0.0453
31803W        W48650  15.235  10.644   2.080 -0.1199  0.0231 -0.3328
31804W        W48651   5.871   6.345  12.419  0.0069 -0.0186  0.1625
31805W        W48652   4.156  16.293  12.124 -0.1587 -0.0790  0.2361
31806W        W48653  19.102   3.450  12.885  0.2259 -0.0746  0.1250
31807W        W48654  17.236   1.058  10.574  0.0848  0.0322 -0.0541
31808W        W48655  16.797  13.553   4.786 -0.0923 -0.2497 -0.3119
31809W        W48656   7.362   9.250  13.369  0.0259 -0.2793  0.2683
31810W        W48657   9.992   2.768   1.782 -0.3311  0.0237  0.0358
31811W        W48658  14.233  16.301   1.374 -0.2233 -0.0750  0.1753
31812W        W48659   7.452   6.401   9.856  0.2937 -0.2262  0.0656
31813W        W48660  19.684  10.350   9.898  0.0902 -0.1009 -0.2351
31814W        W48661   7.944   0.264   9.963  0.0138 -0.2139  0.0900
31815W        W48662  17.986   8.359  10.092  0.0028  0.4104 -0.1039
31816W        W48663  14.761  15.965  14.049  0.5495 -0.0309  0.0256
31817W        W48664   9.229  17.665  10.881 -0.2013 -0.0929  0.1311
31818W        W48665  14.081  17.989   0.510 -0.3203 -0.0912  0.4233
31819W        W48666  13.022   5.842  12.898 -0.4917 -0.0073 -0.1067
31820W        W48667   1.507  13.906  11.307  0.0071  0.2578  0.2621
31821W        W48668   1.214  16.863   4.379 -0.1004  0.1351  0.0313
31822W        W48669  16.612   3.906   5.117  0.0789  0.2067 -0.2179
31823W        W48670   9.705   0.811   2.770 -0.0818 -0.0513  0.0378
31824W        W48671   2.701   4.253   4.719 -0.0507 -0.1225 -0.3225
31825W        W48672   0.299   3.649   9.920 -0.2034 -0.2597 -0.1079
31826W        W48673   0.688  10.077  10.939 -0.1216  0.3733  0.0835
31827W        W48674   3.260  12.080   0.519  0.1526  0.2357 -0.1503
31828W        W48675   3.116  12.604   5.051 -0.1724 -0.1936  0.0977
31829W        W48676   4.044   7.918   5.142  0.0845 -0.0850 -0.2705
31830W        W48677   6.596  14.384   0.297  0.3701  0.0767  0.0651
31831W        W48678  13.482   2.959  12.421  0.3485 -0.0984 -0.2610
31832W        W48679  14.584   2.378   4.180  0.4110  0.2280  0.0293
31833W        W48680  19.046  18.748  12.282 -0.0439  0.2622 -0.1596
31834W        W48681   8.237   6.367   3.407  0.1300 -0.1211  0.1301
31835W        W48682   4.726  12.214   0.448  0.0725  0.0112  0.0684
31836W        W48683   5.024   9.658  10.910  0.1255 -0.1568 -0.0909
31837W        W48684   4.491  10.600  11.043  0.0449  0.2558 -0.1181
31838W        W48685  13.387  19.270  14.090 -0.0306  0.0109  0.0127
31839W        W48686   6.567  10.707   3.618 -0.4826 -0.1222 -0.1908
31840W        W48687   7.685  13.151   3.028 -0.2379  0.2921  0.2412
31841W        W48688  16.024   2.453   2.146 -0.0056 -0.0344 -0.0472
31842W        W48689   1.974   8.089   2.478  0.1647 -0.3644  0.0333
31843W        W48690  10.261   2.737  10.859 -0.2313  0.0777  0.3731
31844W        W48691   9.603  13.633   3.462  0.1656 -0.2953 -0.1979
31845W        W48692  15.758  15.917  10.817  0.0977 -0.0053 -0.1985
31846W        W48693  15.851  13.354  12.742 -0.1329 -0.3503  0.0301
31847W        W48694  13.866  19.192  13.783  0.3659 -0.0479  0.2148
31848W        W48695  17.027  14.771  10.416  0.1736 -0.1703  0.1093
31849W        W48696  15.610   1.241  11.349 -0.1120 -0.1159  0.0154
31850W        W48697  11.955  10.894   1.542  0.1930  0.3929 -0.0428
31851W        W48698   2.676   8.872   2.537 -0.0531 -0.1512  0.0395
31852W        W48699  14.786  12.769  12.304 -0.2254 -0.0971 -0.1905
31853W        W48700   4.646  14.105   5.553 -0.1280 -0.0406 -0.2919
31854W        W48701  17.626   8.224  11.362  0.0131  0.2476  0.1971
31855W        W48702   9.576  11.858   3.542 -0.2088 -0.2482 -0.3272
31856W        W48703   7.535  14.265   9.251  0.1025 -0.1037 -0.1484
31857W        W48704   7.539  19.327  12.274 -0.0779 -0.4990  0.0285
31858W        W48705  16.575  16.115  12.825 -0.0307  0.0519 -0.0171
31859W        W48706   2.794   3.619   2.324 -0.5107  0.0648 -0.0892
31860W        W48707   3.497  19.123  14.189  0.2062  0.1168  0.0335
31861W        W48708  17.482   4.635   2.783 -0.0490  0.0612 -0.3518
31862W        W48709   2.513   4.493  12.382  0.0844 -0.0821  0.1898
31863W        W48710  11.645  15.671   2.750  0.0991 -0.2561  0.0418
31864W        W48711   8.880  14.572  10.812 -0.0472 -0.3660 -0.0541
31865W        W48712  13.294   9.946  13.647 -0.0753 -0.2733 -0.3261
31866W        W48713  17.538   1.393  12.862 -0.1019 -0.0896 -0.1049
31867W        W48714   2.394  14.922  12.697  0.1057 -0.0219 -0.3274
31868W        W48715   4.225   5.449   4.388  0.0210 -0.0850  0.1872
31869W        W48716   6.228   6.934   9.792  0.1134 -0.1575 -0.1184
31870W        W48717  11.700   5.180  12.401 -0.0357 -0.0620 -0.3386
31871W        W48718   1.517   2.054   2.522 -0.1713  0.4496 -0.0340
31872W        W48719  15.248   2.187  14.168  0.2563 -0.1431 -0.2510
31873W        W48720   3.011  11.801   0.947 -0.0605 -0.2486 -0.0825
31874W        W48721  10.931  18.092   0.763 -0.2292 -0.1794 -0.0833
31875W        W48722  17.405   9.199  13.247 -0.1514  0.1454  0.1507
31876W        W48723  16.329   7.925  11.653  0.0636  0.3717  0.2649
31877W        W48724  13.906  11.575  12.285  0.0069  0.2350  0.2324
31878W        W48725   9.795   2.724  10.797  0.0522 -0.1394  0.0975
31879W        W48726  10.800  10.078  13.930  0.0952 -0.0775  0.1559
31880W        W48727   3.097  17.073   1.509  0.0742 -0.3946 -0.1618
31881W        W48728   5.587  14.827   0.094 -0.0001  0.1734  0.1907
31882W        W48729  16.987  18.576  10.111  0.3739  0.0453 -0.0330
31883W        W48730   0.236  16.096  11.058 -0.0514 -0.2773 -0.0449
31884W        W48731  13.223   1.743   3.809  0.1874 -0.0841  0.3798
31885W        W48732  15.632  17.419  12.211  0.1666 -0.4775 -0.0737
31886W        W48733   8.328   4.887  13.183 -0.3892 -0.1896 -0.0612
31887W        W48734  15.935   2.897   2.917  0.4004  0.1824 -0.1651
31888W        W48735  16.306   5.562   2.658  0.1111 -0.1567  0.0792
31889W        W48736  13.328  14.475   3.534 -0.0079 -0.0555  0.0652
31890W        W48737  13.080  14.175   9.857  0.0232  0.0469  0.1121
31891W        W48738   0.568  13.373   2.730 -0.2044 -0.2124  0.1180
31892W        W48739  17.596  10.168   2.140  0.1057 -0.2836  0.5257
31893W        W48740   2.364   7.933   0.423  0.1299 -0.0822  0.0545
31894W        W48741   8.983  15.675   3.317  0.0338 -0.2852  0.1426
31895W        W48742   3.992  12.147   2.040  0.0832 -0.0003 -0.1000
31896W        W48743   5.761  10.890   2.025  0.1590 -0.3225  0.0688
31897W        W48744  10.867  11.860   2.622  0.0745 -0.2783 -0.0993
31898W        W48745   7.579   1.613  12.086 -0.0278  0.1519  0.1119
31899W        W48746   6.722  13.389   3.672 -0.0589  0.0363  0.2729
31900W        W48747   7.457  17.037   3.595 -0.0198  0.0471 -0.2572
31901W        W48748  13.895  19.089  10.815  0.3519  0.1159  0.0631
31902W        W48749   2.443   3.802  13.925  0.1493  0.0882  0.1763
31903W        W48750   5.615   3.733   1.498 -0.0232  0.0088  0.0544
31904W        W48751   8.921  16.316   1.138 -0.0033 -0.1763 -0.4507
31905W        W48752   9.970   8.690   3.464 -0.4461  0.1290  0.4350
31906W        W48753   7.626  15.498  10.224 -0.0989 -0.0631 -0.0213
31907W        W48754  13.924   0.150   3.704 -0.0653  0.0136  0.1176
31908W        W48755   1.545   9.375   3.897  0.1839  0.1012  0.0263
31909W        W48756  19.680   4.645   3.209  0.0151  0.0408 -0.0539
31910W        W48757   3.553  17.705   1.925 -0.1693 -0.3672  0.1603
31911W        W48758   8.686  16.833   9.733 -0.1358  0.1747 -0.0654
31912W        W48759   9.523   6.003  11.095 -0.0241  0.0821  0.2281
31913W        W48760  13.325  16.780   2.753 -0.0519  0.1234  0.1820
31914W        W48761   0.831   7.657  11.949 -0.2320  0.1873  0.0430
31915W        W48762  11.270  15.499  11.691 -0.2618  0.2903  0.4268
31916W        W48763   6.533  10.580   0.852 -0.2090 -0.2634  0.0818
31917W        W48764  14.664   7.995   0.235  0.2606 -0.1760 -0.0830
31918W        W48765  17.925  19.855  13.713  0.1821  0.0068 -0.0101
31919W        W48766   8.571   0.181  13.467  0.1200  0.1488  0.3433
31920W        W48767  11.072   8.336  11.855  0.2400  0.0386  0.1604
31921W        W48768   6.322  14.609  13.851 -0.1465 -0.3385 -0.1064
31922W        W48769   7.240  13.900   0.868 -0.1383 -0.0406 -0.0419
31923W        W48770   2.555  16.411  11.144 -0.1869 -0.0013  0.2592
31924W        W48771  16.442   6.707   1.971  0.1316 -0.4244  0.0299
31925W        W48772   4.306   6.405  11.570  0.0326 -0.4373  0.0893
31926W        W48773   4.784   6.419   1.577  0.1489 -0.0697  0.1395
31927W        W48774   6.738   1.078   2.182 -0.1281 -0.3201 -0.0579
31928W        W48775   4.186  10.312  12.188  0.2242 -0.1868  0.0810
31929W        W48776  16.448   2.791  11.319  0.0520  0.1723 -0.4263
31930W        W48777   0.214   6.922  12.762  0.0214  0.3221 -0.2764
31931W        W48778   2.033  18.905  11.328 -0.5172  0.3249 -0.1368
31932W        W48779   0.062  16.422   2.606  0.1119  0.2512  0.1214
31933W        W48780   9.455   5.234   1.471  0.1106 -0.2245 -0.1722
31934W        W48781   9.306   5.088   4.256 -0.0621 -0.1882 -0.3762
31935W        W48782   7.442   4.877   4.199 -0.2071  0.0817 -0.1379
31936W        W48783  12.914   1.386  11.665  0.0972  0.2554 -0.0310
31937W        W48784   7.705  18.405  12.917  0.0677 -0.1163 -0.1622
31938W        W48785  19.634   5.455   2.633 -0.2156 -0.1783  0.0587
31939W        W48786  19.571   4.798  14.330  0.3055 -0.3073 -0.0916
31940W        W48787  14.581  14.551   0.080  0.0919  0.1979  0.1706
31941W        W48788   8.101   4.095  14.346 -0.0336  0.0974 -0.0745
31942W        W48789   3.990  10.528   0.574  0.1562  0.0971 -0.0310
31943W        W48790  11.284  11.336   1.249  0.1171  0.0093  0.0863
31944W        W48791  17.209  15.366  13.101 -0.0277  0.0736 -0.0867
31945W        W48792  15.972  16.748   0.825  0.4824 -0.0823 -0.4365
31946W        W48793  19.003  17.813  13.290 -0.1428  0.1097 -0.3420
31947W        W48794   4.592  13.130  13.071 -0.3641  0.3350  0.2281
31948W        W48795   0.072   0.551   0.407  0.0111  0.0121 -0.0730
31949W        W48796   3.108   6.677  10.953  0.0451 -0.0703 -0.2746
31950W        W48797  14.314  11.984  13.021 -0.1153 -0.1778  0.2221
31951W        W48798   1.945  11.741   3.098  0.0129  0.2310 -0.2529
31952W        W48799   6.865   2.323   2.781  0.0078  0.0291 -0.0860
31953W        W48800  15.421   5.175   3.481  0.0911  0.1884  0.0992
31954W        W48801   4.138  12.584  13.359 -0.1345  0.0951 -0.0150
31955W        W48802   1.056  18.870  11.422 -0.1412  0.0728 -0.1875
31956W        W48803  13.436  18.375   4.109 -0.1304 -0.1620  0.0586
31957W        W48804   1.768  15.417  11.127 -0.2449  0.1737 -0.1292
31958W        W48805  17.813   3.411   3.279  0.0808  0.0381 -0.1216
31959W        W48806  13.896   4.800   9.874  0.1374  0.1640 -0.1715
31960W        W48807  14.203  17.856   3.941 -0.0409  0.1988 -0.1711
31961W        W48808   8.814   8.684  13.182 -0.3326  0.0029 -0.2281
31962W        W48809   3.044  11.375   0.800 -0.0354  0.1361 -0.0689
31963W        W48810  13.537  15.569   3.854 -0.0567  0.1309 -0.1388
31964W        W48811   1.080   7.349  11.591  0.1872 -0.0348  0.0541
31965W        W48812   0.665   2.533  10.211 -0.1792 -0.1097 -0.1084
31966W        W48813   1.165   5.485  10.721 -0.2137  0.1893  0.0007
31967W        W48814   2.606   5.272   1.693  0.1058  0.0670  0.0407
31968W        W48815   3.783  17.125  10.836 -0.0638  0.2401 -0.1132
31969W        W48816   3.038  15.320  10.958  0.1588 -0.0037  0.5550
31970W        W48817  18.098   4.239   2.585 -0.2295  0.0691 -0.0400
31971W        W48818   1.406   3.142   9.874  0.2463 -0.2391  0.2515
31972W        W48819  17.559  19.589   2.393 -0.2187 -0.1879 -0.2407
31973W        W48820  12.039   6.285   3.336  0.0392 -0.0869 -0.3337
31974W        W48821   2.853  12.914  12.472  0.1865  0.0774 -0.0905
31975W        W48822   8.868  19.138  13.881 -0.1071 -0.1289  0.0223
31976W        W48823  12.377   9.232   9.897 -0.0563 -0.0241  0.1572
31977W        W48824   5.831   7.079  11.577 -0.0328 -0.1495 -0.0407
31978W        W48825   2.408   9.225   4.825 -0.1948  0.2167  0.2278
31979W        W48826   2.426  16.452  12.111 -0.0679  0.0992 -0.0206
31980W        W48827  15.053  11.690   3.830  0.1077 -0.0108  0.0872
31981W        W48828   7.522  18.598   4.044 -0.1036 -0.2638  0.2818
31982W        W48829   7.161   7.128   0.970 -0.3053  0.1556 -0.0296
31983W        W48830  10.489   7.079  12.108  0.1961 -0.3761  0.2997
31984W        W48831  17.859  17.307   9.388  0.3330  0.2459 -0.0501
31985W        W48832   0.828   2.184   2.861  0.1146  0.0420  0.3086
31986W        W48833   6.720   2.497   1.820  0.2682 -0.1752 -0.1239
31987W        W48834  16.153  13.495   9.007  0.0543 -0.3718  0.2503
31988W        W48835   5.099  17.123  13.459  0.2402 -0.0972  0.3288
31989W        W48836   6.507  19.524   1.208  0.2024 -0.1099 -0.0404
31990W        W48837   4.867  13.110   2.426  0.2395 -0.2374  0.1701
31991W        W48838   8.863  13.877  12.017  0.0222 -0.0205  0.1335
31992W        W48839  10.100   7.523   2.667 -0.0922  0.4031 -0.1391
31993W        W48840  16.468   2.628   3.674 -0.2190  0.1003  0.0473
31994W        W48841  18.643   4.123  12.247  0.2146 -0.0481 -0.1835
31995W        W48842  17.960  11.201  13.989  0.1857  0.0978  0.0074
31996W        W48843  17.972   4.514   3.018 -0.2153  0.3166  0.0201
31997W        W48844   3.024  11.516  11.883 -0.0598 -0.1107 -0.0643
31998W        W48845   6.124   6.794  12.342  0.0510 -0.0374  0.0036
31999W        W48846  16.375  18.657   3.817  0.1427  0.2070  0.0406
32000W        W48847  10.580  13.186  11.775  0.3118 -0.1231 -0.4179
32001W        W48848  19.202  13.633   0.069  0.0428  0.0145 -0.2635
32002W        W48849   3.792   8.552   1.283 -0.0215 -0.0233 -0.0163
32003W        W48850  14.309  11.051   3.070 -0.2026 -0.2926 -0.2050
32004W        W48851   6.636  10.210   3.997  0.4745  0.1381 -0.0647
32005W        W48852   5.176   9.272  11.242 -0.2688 -0.0760  0.3778
32006W        W48853   5.760   0.724   1.765 -0.0579 -0.1806  0.1376
32007W        W48854   1.601  19.150   2.765 -0.2486 -0.2035 -0.1207
32008W        W48855   7.347  13.171   2.691  0.0734  0.1556  0.0337
32009W        W48856   8.822   2.776   2.225  0.2220  0.1300 -0.0262
32010W        W48857   2.587   6.011   2.126  0.3589  0.2489  0.1328
32011W        W48858   9.088   1.673  11.527  0.3316 -0.2060  0.0377
32012W        W48859   5.513  19.818  14.144  0.1230 -0.0464 -0.5885
32013W        W48860  12.830   1.928   0.092  0.2405 -0.0369 -0.1767
32014W        W48861   6.430  11.570   0.875  0.0760 -0.1957  0.4257
32015W        W48862  11.210   1.888  14.303  0.1708  0.0703 -0.0324
32016W        W48863  10.492  15.955  12.611  0.1050  0.1748  0.0540
32017W        W48864  10.138   9.261  11.878  0.0534 -0.2878  0.0670
32018W        W48865   6.280   2.093   2.020  0.0212 -0.1207  0.1154
32019W        W48866   7.752  11.049   0.314  0.1531 -0.2537  0.1804
32020W        W48867  10.968  14.758   8.848 -0.2993 -0.1689  0.0207
32021W        W48868   2.030  14.225   5.001  0.1436 -0.2100  0.1943
32022W        W48869  13.616   7.904   1.267 -0.2606 -0.1232  0.1347
32023W        W48870   2.674   9.742   3.128  0.0523  0.1384 -0.2130
32024W        W48871   3.445  10.767  12.092 -0.0609  0.1116 -0.0046
32025W        W48872   7.733   4.999  12.123  0.3172 -0.1087  0.0052
32026W        W48873   8.470   7.918  11.587 -0.0185  0.1109 -0.1216
32027W        W48874  13.811  13.420  10.806 -0.0909  0.0667 -0.0782
32028W        W48875   5.627   4.827   9.113 -0.1473 -0.1924 -0.0343
32029W        W48876   9.823   1.786   3.354  0.1780  0.1356  0.2043
32030W        W48877  10.747  18.342  12.302 -0.0477 -0.4414  0.2761
32031W        W48878   1.279  10.772   4.746 -0.1341 -0.0041 -0.1891
32032W        W48879   3.070   3.422   4.274 -0.2813 -0.0979 -0.1673
32033W        W48880   5.132  16.761  10.300  0.0262 -0.1874 -0.0529
32034W        W48881  18.019   1.732  13.488  0.5170  0.3680  0.2444
32035W        W48882   6.255   1.934   1.043  0.2181 -0.1563  0.0895
32036W        W48883   5.301   5.138  12.187 -0.0835 -0.2212 -0.0261
32037W        W48884  13.364  14.976   3.543 -0.0990  0.1334 -0.0901
32038W        W48885  19.543  12.272  10.842  0.2611 -0.0740  0.0444
32039W        W48886  18.267  19.790   4.625  0.0352 -0.0623 -0.0696
32040W        W48887   9.591  12.837  12.589  0.5329 -0.0029  0.2247
32041W        W48888  15.559   1.968   1.683  0.0515 -0.1372  0.2301
32042W        W48889   4.426   4.058  13.672 -0.1768  0.2288 -0.3123
32043W        W48890  19.806  19.222  11.000  0.0538  0.1365 -0.0467
32044W        W48891  10.607   9.862  10.263 -0.1392  0.3360 -0.2632
32045W        W48892  18.238   6.759  11.977 -0.0018 -0.1039 -0.2073
32046W        W48893   6.959   9.874  12.553  0.3071  0.1184  0.0564
32047W        W48894   3.927   4.702  11.191 -0.1080  0.1186 -0.1346
32048W        W48895   5.350  16.813   2.986 -0.1753 -0.0502 -0.1773
32049W        W48896   5.610   7.062  13.431  0.0994  0.0721  0.1395
32050W        W48897   8.973   7.570   1.136 -0.1998  0.0706  0.1252
32051W        W48898  14.382   3.645   0.384 -0.2359  0.0588  0.2276
32052W        W48899  12.702   1.861  13.501 -0.0947  0.0852 -0.1730
32053W        W48900  12.563  15.685   2.411 -0.0788 -0.0967  0.3024
32054W        W48901   1.044  12.840  13.367  0.3822  0.0258 -0.1819
32055W        W48902  11.761   6.340  10.565 -0.1259 -0.0320 -0.0239
32056W        W48903   3.188  12.962   1.208  0.4150  0.1492  0.0299
32057W        W48904   5.240  17.620   1.908 -0.2275  0.0549 -0.2838
32058W        W48905   1.762  18.036   4.470  0.0960 -0.0161 -0.3898
32059W        W48906  17.844   3.080  14.212 -0.0615 -0.1588  0.1168
32060W        W48907   7.919  10.062   1.520  0.2509  0.0134 -0.1648
32061W        W48908   8.428  18.325   4.406  0.0404  0.5670  0.1560
32062W        W48909  18.810  17.137  12.878  0.1019  0.1331 -0.1423
32063W        W48910  19.823  15.501  10.465  0.0219 -0.0124  0.2780
32064W        W48911   1.460   2.635  13.807  0.0432  0.1458 -0.0873
32065W        W48912   8.752  14.353  14.215  0.0948 -0.1344 -0.1623
32066W        W48913   3.111  16.647   3.552  0.1634  0.0580 -0.0060
32067W        W48914   7.774   0.520   0.128 -0.0779  0.1337  0.1046
32068W        W48915   9.408   5.030   9.704 -0.0534  0.0514 -0.0511
32069W        W48916  14.410  10.424  12.928  0.0579 -0.0659  0.1153
32070W        W48917   4.283  14.771  13.552 -0.0888 -0.1015  0.3151
32071W        W48918  15.231   7.557   5.116  0.4234  0.1300 -0.4628
32072W        W48919  13.752   1.374   4.369  0.1464 -0.2737 -0.1074
32073W        W48920   3.075  15.455   2.241  0.1650  0.2067 -0.2008
32074W        W48921  13.420   5.682  13.505  0.2866 -0.4269 -0.1078
32075W        W48922  19.033  15.240  12.730 -0.0132 -0.0896  0.2110
32076W        W48923  15.772  10.336   4.870  0.2424  0.0813 -0.0910
32077W        W48924   2.341   7.679   2.638  0.0703 -0.1792  0.4685
32078W        W48925   3.272  16.769  13.584  0.0671 -0.0468 -0.0819
32079W        W48926  16.834   7.062   1.776 -0.6341 -0.0167  0.2784
32080W        W48927  14.438   3.307  10.749 -0.0745 -0.2985  0.1626
32081W        W48928   1.872  13.080   0.040 -0.0429  0.0297 -0.0509
32082W        W48929  12.367  16.887   3.899 -0.2815  0.1729  0.4243
32083W        W48930  12.967   3.584   9.505  0.1912 -0.0360  0.2312
32084W        W48931  12.558  16.577   2.962 -0.0168  0.0931 -0.0110
32085W        W48932  12.885   9.962   1.527 -0.2168  0.2265  0.0518
32086W        W48933   3.046  19.045   4.614  0.1449 -0.0115 -0.2414
32087W        W48934  18.257   5.250   2.546  0.1415 -0.1254 -0.1157
32088W        W48935   8.700   4.005   5.270  0.2118 -0.0916 -0.1961
32089W        W48936   9.501   9.836   2.058 -0.1653 -0.0912  0.1282
32090W        W48937   1.202   4.844   4.419  0.1406 -0.1719 -0.2409
32091W        W48938  10.881   8.396   8.991 -0.1130  0.0978 -0.0237
32092W        W48939   9.878   8.543  12.730 -0.3006  0.0113 -0.0507
32093W        W48940  16.748   3.873   3.649  0.2642 -0.4352  0.0774
32094W        W48941   0.852  13.098   1.071 -0.4791  0.1858  0.3440
32095W        W48942  18.395  11.394  10.347  0.2326  0.0350 -0.0986
32096W        W48943  16.407   1.312   0.112 -0.1462 -0.0261  0.0041
32097W        W48944   7.175  14.582   3.601  0.0006 -0.0722 -0.0088
32098W        W48945  13.873   3.521   0.280  0.3070 -0.0191  0.1244
32099W        W48946   9.203   0.159   4.878  0.1476  0.0228 -0.2033
32100W        W48947  13.292   0.921  12.898  0.1654 -0.1102  0.0533
32101W        W48948   1.037  19.123   5.408 -0.1883  0.3291 -0.0874
32102W        W48949  15.942   7.761  12.575  0.3680  0.0788 -0.2265
32103W        W48950   8.186  14.248   0.155 -0.1490  0.1736  0.0171
32104W        W48951  10.608  15.508  12.822  0.0579  0.1392 -0.0456
32105W        W48952  13.260   8.389   1.276 -0.3355 -0.0517  0.2124
32106W        W48953   7.025  15.767   2.149  0.0438 -0.5132  0.0128
32107W        W48954  19.724   8.255  12.962 -0.1693  0.0308  0.1966
32108W        W48955  13.491   7.855  10.242 -0.0165 -0.0216  0.1936
32109W        W48956   8.340  11.370   1.642 -0.0283 -0.1401  0.0476
32110W        W48957  14.666   1.110  10.493 -0.1137 -0.1496  0.0725
32111W        W48958  17.435   7.633  10.805  0.4075 -0.2304 -0.1472
32112W        W48959  17.935   5.289   2.014  0.2273 -0.0695 -0.1119
32113W        W48960  14.994  15.964  11.498 -0.0965  0.1680 -0.0330
32114W        W48961  18.274  18.953   4.082 -0.2342  0.0062  0.0244
32115W        W48962   6.707  11.632   0.162 -0.1579  0.0258 -0.2418
32116W        W48963  17.070  19.506   2.646  0.0840  0.0627 -0.4105
32117W        W48964   2.670   5.504  12.600 -0.1355 -0.1320  0.1326
32118W        W48965  19.283   4.394  11.261 -0.0800 -0.0709 -0.0078
32119W        W48966   1.256  15.349  13.823  0.0189 -0.0825  0.0246
32120W        W48967   1.902  15.960  11.739  0.0977  0.0309  0.0142
32121W        W48968   4.514   9.165   0.021  0.0057  0.2900 -0.0089
32122W        W48969   2.387  13.372  10.123  0.3329  0.2446 -0.2016
32123W        W48970   1.242  16.068   4.792  0.1625  0.2735 -0.2247
32124W        W48971  12.521   7.945  14.244 -0.0485 -0.1478  0.2701
32125W        W48972  11.661  10.519  13.752 -0.2045  0.3868  0.2596
32126W        W48973   3.020  12.750  11.593  0.0995 -0.0966 -0.1150
32127W        W48974  19.036  12.430   0.526 -0.0700 -0.2139 -0.1955
32128W        W48975  13.257  19.684  13.018  0.1663  0.1503  0.0336
32129W        W48976   2.347  10.162   0.021  0.1657  0.0205  0.2868
32130W        W48977  18.867   9.536  13.786  0.1122  0.2869 -0.0398
32131W        W48978   7.318  14.910   0.994 -0.1054 -0.1805 -0.1587
32132W        W48979   1.398   8.327   0.444  0.1954  0.0141 -0.1785
32133W        W48980  15.919  13.285  11.401  0.3463 -0.3391 -0.0342
32134W        W48981  18.941  11.616   1.801 -0.3188  0.0504 -0.3187
32135W        W48982   8.573   5.474   1.975  0.0675 -0.2581 -0.1885
32136W        W48983   2.886  16.282  10.765  0.4344 -0.0213  0.0891
32137W        W48984  12.117   5.634  13.797 -0.0672 -0.0958  0.1180
32138W        W48985  16.741   3.097   2.388  0.0688 -0.0338  0.0237
32139W        W48986  16.830   9.098  13.600  0.0518  0.2934  0.1373
32140W        W48987   9.968   3.675   0.260  0.0695  0.3160  0.0206
32141W        W48988   7.364   1.446  13.760  0.0495 -0.0612  0.2080
32142W        W48989  11.020   7.728   0.656 -0.2579  0.2075  0.2892
32143W        W48990   1.291  17.509   3.615 -0.1063  0.0483 -0.0187
32144W        W48991  19.877  13.311  10.520 -0.2528  0.0165  0.1267
32145W        W48992  16.846  12.110  10.409 -0.3418 -0.0523  0.0719
32146W        W48993  14.180   6.610  13.009  0.1635 -0.1412 -0.0238
32147W        W48994  10.967  14.992   1.479 -0.0234  0.0857  0.5167
32148W        W48995  13.227  12.802  10.878 -0.0554  0.2082  0.1925
32149W        W48996  18.637  12.096  12.634  0.0637 -0.0609 -0.0210
32150W        W48997   5.401   3.063  12.073  0.0608  0.1454 -0.2788
32151W        W48998  16.123   1.707   2.599  0.4485  0.2103  0.3220
32152W        W48999   4.893  17.948   3.080 -0.2192 -0.2470  0.0483
32153W        W49000   3.514   2.071  11.140 -0.0067 -0.3074 -0.0360
32154W        W49001  12.762  11.686   2.946  0.0957  0.0048  0.0541
32155W        W49002  10.001  16.567   1.544 -0.0050  0.0720 -0.0315
32156W        W49003   0.565   0.928  10.612  0.0604 -0.0367  0.1303
32157W        W49004  17.848   5.187   1.144  0.1781  0.2845 -0.1482
32158W        W49005  16.314   8.586  13.357  0.1093  0.0817  0.2066
32159W        W49006  13.229   0.777   3.117  0.0363 -0.2523  0.0920
32160W        W49007   8.929   0.738   3.897 -0.3351  0.0621 -0.3241
32161W        W49008  14.103   7.560  11.563  0.1162  0.2821  0.3046
32162W        W49009   8.002  18.382  12.098  0.1463 -0.1603 -0.0793
32163W        W49010   2.896   1.991  14.354 -0.1111  0.0696  0.3607
32164W        W49011  11.698  11.485   1.718  0.0378  0.0200  0.1054
32165W        W49012  16.971   4.936   4.749  0.0156  0.0621  0.1779
32166W        W49013  19.620   8.764   2.478 -0.0104 -0.1743 -0.1541
32167W        W49014   2.588   0.786   0.227  0.0234  0.2557 -0.0958
32168W        W49015  13.316   1.278   4.021  0.3203 -0.3643  0.1526
32169W        W49016   1.285   6.065   0.269  0.2934  0.1758 -0.1439
32170W        W49017  13.802  14.099   2.650 -0.0628  0.0981  0.1323
32171W        W49018  18.558  12.680  10.300 -0.0993  0.1406 -0.2224
32172W        W49019   6.427   4.861  12.096  0.0946 -0.0123 -0.3471
32173W        W49020  11.902   2.996   0.512 -0.4286 -0.2175 -0.1180
32174W        W49021  10.064  19.751   5.462 -0.3521  0.1313 -0.1152
32175W        W49022   6.167  18.206  14.257 -0.0537 -0.0712  0.2454
32176W        W49023  11.543  14.793   2.983  0.0983 -0.2791  0.1628
32177W        W49024   0.003   6.598   9.072 -0.0743  0.2167  0.1284
32178W        W49025   8.795  12.219   3.218  0.0578  0.1113 -0.2354
32179W        W49026  13.602   1.506   5.313 -0.2071 -0.0170  0.0584
32180W        W49027   0.471   5.754   2.167  0.3398 -0.0169 -0.2015
32181W        W49028  15.509  16.427   3.514 -0.1328  0.0235  0.2623
32182W        W49029   5.822   9.396   2.787  0.1882 -0.0290 -0.3514
32183W        W49030  16.222  12.778   3.906  0.2013 -0.1296 -0.2004
32184W        W49031  15.476   7.619   3.172  0.0869 -0.1903  0.0806
32185W        W49032   9.126  15.507   1.011  0.0847 -0.3326 -0.2781
32186W        W49033  13.933   5.451   2.684  0.0547 -0.1438 -0.0486
32187W        W49034   9.685   1.315   2.964  0.0509 -0.1544 -0.0309
32188ION     NA49035   7.574  14.214   1.080  0.3848 -0.2520 -0.1169
32189ION     NA49036   9.891  18.867   9.409  0.3488 -0.0575 -0.3226
32190ION     NA49037   4.705   8.603   9.816 -0.0867  0.0539 -0.0781
32191ION     NA49038   2.620  19.067   9.249 -0.1010 -0.0922  0.0728
32192ION     NA49039  14.910   9.827  12.708 -0.1802 -0.0897  0.1490
32193ION     NA49040   5.444   0.300   1.432  0.2477 -0.0317  0.5007
32194ION     NA49041  16.629  15.729   9.243 -0.2290  0.3776  0.0636
32195ION     NA49042  11.456   2.778   0.201 -0.1760  0.0230  0.0035
32196ION     NA49043   1.586   1.211   9.379  0.3684 -0.3297  0.0141
32197ION     NA49044  15.489   4.261   9.337  0.3426 -0.0264  0.0521
32198ION     NA49045  16.830   3.853   2.221  0.0702  0.0171 -0.0944
32199ION     NA49046   1.080  19.389   9.445 -0.0003 -0.2208 -0.3066
32200ION     NA49047   3.028   6.337   5.164  0.0439  0.0895 -0.3250
32201ION     NA49048  14.234   8.366  13.723 -0.1556 -0.0967 -0.2048
32202ION     NA49049   2.278  12.792   4.769 -0.1814  0.2384  0.0360
32203ION     NA49050  12.781  14.570   0.550 -0.1730  0.0280  0.3387
32204ION     NA49051   7.928  19.234   1.729  0.0976 -0.1927 -0.1942
32205ION     NA49052  15.846  17.479   9.639 -0.2244  0.0377  0.0194
32206ION     NA49053   2.970   4.424   5.144 -0.0233 -0.0517  0.2459
32207ION     NA49054   6.574   0.061   2.741  0.1815  0.0233 -0.1062
32208ION     NA49055   9.345  14.107  14.145 -0.2079  0.2023  0.2471
32209ION     NA49056   7.719   5.221   0.118  0.2506  0.2380 -0.1198
32210ION     NA49057   8.526   7.408  13.130  0.4197  0.0331 -0.0603
32211ION     NA49058  11.526  10.676   4.007 -0.1391  0.0969 -0.0022
32212ION     NA49059  15.384   2.718  10.297  0.3387 -0.0819 -0.1844
32213ION     NA49060  16.833  10.025   9.273  0.2614  0.0161  0.4714
32214ION     NA49061   1.513   5.212  11.576  0.0679 -0.1968  0.0121
32215ION     NA49062   8.377   5.524   9.191 -0.2843  0.0567 -0.2504
32216ION     NA49063  17.257  11.230   9.121  0.1362 -0.1484 -0.0477
32217ION     NA49064  10.555   1.747   9.155 -0.1775  0.0807 -0.0269
32218ION     NA49065   7.284  18.516   1.803 -0.0320 -0.1163 -0.2446
32219ION     NA49066   9.067  10.438   9.305  0.1279 -0.0103  0.1312
32220ION     NA49067  17.717   4.250   9.160  0.0530  0.0580 -0.2625
32221ION     NA49068  18.640   1.478   4.915  0.0443 -0.0898  0.0643
32222ION     NA49069  11.586  16.930   9.344  0.1543  0.1422  0.0876
32223ION     NA49070  10.220  15.943   5.198  0.0376  0.1418  0.1075
32224ION     NA49071  10.296   5.226  13.975 -0.2369 -0.0697  0.0123
32225ION     NA49072  12.330   1.697   0.160 -0.0472  0.3705  0.0296
32226ION     NA49073   0.281   3.320   9.275 -0.0044  0.2283 -0.2360
32227ION     NA49074  14.074  10.481   1.440  0.0008 -0.3828 -0.1973
32228ION     NA49075   6.591   6.666   2.699  0.3014  0.1211  0.2063
32229ION     NA49076  14.297  12.567  13.133 -0.0044  0.1317 -0.0982
32230ION     NA49077  10.262   9.090   3.375 -0.2721 -0.0004 -0.2543
32231ION     NA49078  19.417  14.981  14.325  0.0941 -0.2595  0.0306
32232ION     NA49079  12.944  19.450   0.287  0.1558 -0.1457 -0.3918
32233ION     NA49080   9.943   4.854   9.938 -0.2346  0.0537  0.2131
32234ION     NA49081  11.225   8.774   0.441 -0.1546  0.4027  0.5144
32235ION     NA49082   9.897   7.660  13.943 -0.0180 -0.0581  0.0047
32236ION     NA49083   5.624   8.411   9.599  0.3010 -0.2187  0.0309
32237ION     NA49084   8.899   9.553   3.152  0.0745 -0.1972  0.1160
32238ION     NA49085   1.794   1.095   4.579 -0.0780  0.1792  0.0036
32239ION     NA49086  16.979  14.564   2.142 -0.0027 -0.3277 -0.1411
32240ION     NA49087   6.143  12.193   5.088 -0.3343 -0.1356 -0.0457
32241ION     NA49088  19.135  13.608   9.870 -0.1479 -0.0185  0.1514
32242ION     NA49089  15.178   6.582   9.369  0.3666  0.0303  0.0609
32243ION     NA49090   4.572  19.063   0.078 -0.1266 -0.0792 -0.0370
32244ION     NA49091   4.857  13.915   9.530 -0.1856  0.0088 -0.2493
32245ION     NA49092   0.569  18.724   9.373 -0.2794 -0.0138  0.1490
32246ION     NA49093  14.806   4.775   9.107 -0.0330 -0.1946  0.1124
32247ION     NA49094   6.320  19.720   1.796 -0.2377  0.3248  0.3310
32248ION     NA49095   5.043   8.197   1.340 -0.1451  0.3140  0.2125
32249ION     NA49096  18.603  18.596   9.727 -0.0261  0.0490  0.1481
32250ION     NA49097   0.137   7.968   2.927  0.0857 -0.0115 -0.1140
32251ION     NA49098   6.595  18.770   9.645  0.0044 -0.1543 -0.0074
32252ION     NA49099   3.479   5.644   5.330  0.1334  0.1206 -0.0500
32253ION     NA49100   8.236  13.451  10.337  0.2339  0.4083 -0.0801
32254ION     NA49101   8.219   0.915   9.300  0.0582 -0.0831 -0.2138
32255ION     NA49102  14.939   4.359   9.658 -0.3596  0.0688  0.2579
32256ION     NA49103  16.029  13.960   9.275  0.1795  0.0810  0.1171
32257ION     NA49104  17.323  12.206   9.145  0.1372 -0.2091  0.1547
32258ION     NA49105  17.736  14.452   0.442  0.1233 -0.0947  0.1308
32259ION     NA49106  16.514  17.986  13.050  0.1168 -0.2090  0.0236
32260ION     NA49107  12.532  18.556   9.505  0.5433 -0.2337 -0.0200
32261ION     NA49108  18.509  19.135   0.790  0.1757 -0.5991 -0.1073
32262ION     NA49109   3.042  12.265  11.483 -0.1989 -0.0736  0.3732
32263ION     NA49110  10.389   3.460   9.234  0.0119  0.0963  0.0463
32264ION     NA49111  10.219  10.097   2.944  0.1870  0.4587 -0.2708
32265ION     NA49112   9.355   0.181   1.677 -0.0727  0.0122 -0.0402
32266ION     NA49113   1.298   0.931   0.470 -0.0299  0.1674 -0.2365
32267ION     NA49114   7.413   9.828   2.134  0.3249  0.2164 -0.2787
32268ION     NA49115  16.321   4.905   0.614 -0.1465  0.1515  0.0211
32269ION     NA49116  15.287   0.725   1.501 -0.0497  0.4405  0.0993
32270ION     NA49117  10.557  19.320   1.851  0.1763 -0.3586  0.1970
32271ION     NA49118   7.976   9.047  11.502  0.4471  0.2049  0.2966
32272ION     NA49119   7.393  15.128   9.376  0.0064 -0.1073  0.2304
32273ION     NA49120   5.859  12.054   9.805  0.0037  0.1101  0.0096
32274ION     NA49121   7.460  12.395   9.608 -0.0828  0.0166 -0.0076
32275ION     NA49122   1.974   8.753   1.087  0.1990 -0.0246 -0.0310
32276ION     NA49123  19.871  14.314   9.431  0.0571 -0.1402 -0.1751
32277ION     NA49124   9.308  17.391   9.240 -0.0944 -0.1137  0.1465
32278ION     NA49125  16.964   8.407   9.004  0.1764  0.0127 -0.1117
32279ION     NA49126   6.473  13.902   9.820 -0.2849 -0.1251 -0.2012
32280ION     NA49127   5.163   1.343   0.286  0.1905 -0.1161  0.0380
32281ION     NA49128  12.878  10.598   9.540  0.3927 -0.0680  0.0862
32282ION     NA49129   9.384   9.190   9.178  0.2190  0.0740 -0.0202
32283ION     NA49130  18.232  14.232   3.651  0.0991 -0.0380 -0.0558
32284ION     NA49131  14.994  16.145   5.228  0.1164  0.1489  0.2379
32285ION     NA49132  14.934  19.751  12.768  0.1322  0.0268  0.3258
32286ION     NA49133   2.045  14.836  14.302 -0.0795  0.1351 -0.2376
32287ION     NA49134   1.458   5.588   0.099 -0.1999 -0.0690  0.3737
32288ION     NA49135  12.203   7.835  13.436 -0.2893  0.0547  0.1319
32289ION     NA49136   3.027   5.777   4.960  0.2117  0.0864  0.0376
32290ION     NA49137  11.281  16.219  11.210  0.1407 -0.0685  0.2106
32291ION     NA49138  12.295  13.284   0.937  0.1206  0.1000 -0.2007
32292ION     NA49139   6.721   6.389   1.528  0.3056  0.0191 -0.3337
32293ION     NA49140   4.979  17.127   3.232 -0.0641  0.2390 -0.0390
32294ION     NA49141  15.524  10.863   9.002  0.2316  0.1517 -0.1786
32295ION     NA49142   5.059   7.067   5.122  0.3380  0.0494  0.0695
32296ION     NA49143  15.188   9.222   9.107  0.2470  0.1965  0.0106
32297ION     NA49144  19.316  19.421  14.026 -0.0348  0.3007  0.0383
32298ION     NA49145   1.213  12.202   3.359  0.2989  0.2356 -0.2230
32299ION     NA49146   3.265   1.584   0.209 -0.1530 -0.0859  0.1963
32300ION     NA49147   0.199  18.682   5.144 -0.1358  0.0420  0.2326
32301ION     NA49148   2.073  12.649   9.484  0.1702  0.1340  0.1497
32302ION     NA49149  11.041   9.474   4.971 -0.0340  0.0253 -0.1339
32303ION     NA49150   6.561  16.724   5.043  0.1491  0.0768 -0.0138
32304ION     NA49151  17.834  17.213  10.511  0.0377  0.1029 -0.2510
32305ION     NA49152   7.480  12.908  14.351 -0.2157 -0.1147  0.0555
32306ION     NA49153   4.323   5.406   1.946  0.3278 -0.0303 -0.0870
32307ION     NA49154   4.740   0.630  13.322  0.0855 -0.3841  0.0016
32308ION     NA49155  10.488  19.834   5.130  0.1377 -0.1602  0.4649
32309ION     NA49156  17.360   2.950   2.480 -0.0043  0.0502 -0.0617
32310ION     NA49157  11.814   8.413   9.105  0.0817  0.2019 -0.3081
32311ION     NA49158   7.718   2.207   9.168 -0.1849  0.2137 -0.2706
32312ION     NA49159  11.093  16.111   9.257  0.0965  0.1085 -0.1133
32313ION     NA49160   0.572  11.124   9.818  0.3219 -0.2323 -0.1987
32314ION     NA49161  19.569   2.048  11.730 -0.4538 -0.0590  0.0423
32315ION     NA49162   5.880   2.735   9.234 -0.0241 -0.3765 -0.0568
32316ION     NA49163   0.646   0.377   9.622  0.3551  0.2047 -0.3083
32317ION     NA49164  16.084   2.227   9.110  0.1578 -0.1031  0.0446
32318ION     NA49165   7.332  16.878   9.477  0.1185 -0.0266  0.0871
32319ION     NA49166   1.610   9.921   1.377 -0.2898 -0.2013  0.2196
32320ION     NA49167  15.321  14.111   1.529 -0.1993  0.0597 -0.0518
32321ION     NA49168  14.298  18.397   4.478 -0.1214  0.1292  0.2504
32322ION     NA49169   3.755   8.878   9.726 -0.0065 -0.3765 -0.3798
32323ION     NA49170   8.454  19.855   9.395  0.0306 -0.2898  0.0569
32324ION     NA49171  11.534  14.794   4.779  0.1140 -0.0790 -0.3222
32325ION     NA49172  10.283  14.913   4.860  0.2835 -0.0550 -0.0501
32326ION     NA49173  19.362  13.619   9.394  0.4150  0.1415  0.0789
32327ION     NA49174   0.981   6.383   9.283  0.0527  0.2763 -0.1197
32328ION     NA49175  11.635   1.863  12.877 -0.1421  0.1185  0.0631
32329ION     NA49176  14.058   8.167   3.673  0.2369  0.0376 -0.0096
32330ION     NA49177  14.044   1.756   1.094 -0.0121  0.0843  0.5392
32331ION     NA49178  14.380  15.716   9.403 -0.1596  0.0340  0.0661
32332ION     NA49179   6.730   6.343  13.992  0.1272 -0.3506 -0.0119
32333ION     NA49180   4.912  19.551   4.928 -0.1937 -0.1316  0.1226
32334ION     NA49181  16.470  11.538   8.890 -0.1793 -0.1374 -0.2302
32335ION     NA49182  17.576  15.151   3.306  0.1785  0.2664 -0.0729
32336ION     NA49183  14.500   5.380   4.583  0.0288  0.1426  0.0760
32337ION     NA49184   4.807   8.187  10.059 -0.0003 -0.0473  0.1139
32338ION     NA49185  18.424  19.292   2.240  0.0567  0.0413  0.1981
32339ION     NA49186   2.005  17.216  13.483  0.0221  0.0217  0.5465
32340ION     NA49187   9.639  11.398  12.052 -0.0329 -0.0309  0.0482
32341ION     NA49188   2.212   3.023   4.662 -0.0195 -0.0334  0.0156
32342ION     NA49189  13.697   6.756   9.177  0.0232 -0.1309  0.0722
32343ION     NA49190   8.305   8.837   3.346  0.1265  0.3788 -0.3499
32344ION     NA49191  12.451   5.430   9.517 -0.2385  0.1808 -0.0298
32345ION     NA49192  19.258  12.230   9.631 -0.1940  0.1445  0.2155
32346ION     NA49193  15.339  15.334   9.457  0.2073 -0.1891 -0.3129
32347ION     NA49194   8.995   1.572   9.146 -0.0128 -0.1222  0.0257
32348ION     NA49195  14.575   0.358   9.316  0.0395  0.0689  0.1582
32349ION     NA49196  10.197   8.922   9.958 -0.0432 -0.0951  0.0493
32350ION     NA49197  11.775   6.779   3.088  0.0681 -0.1963 -0.1166
32351ION     NA49198  15.313  19.393  11.125 -0.0497 -0.0515 -0.0977
32352ION     NA49199  19.183   3.303   4.597 -0.1427  0.1314  0.0593
32353ION     NA49200  12.494  15.684   0.974  0.0615  0.0005  0.1520
32354ION     NA49201   6.630   4.746   8.863  0.1570 -0.0375 -0.1645
32355ION     NA49202  12.745   7.892   8.957  0.3358  0.2692 -0.0640
32356ION     NA49203  19.642   9.485  13.459 -0.1390  0.0755  0.0982
32357ION     NA49204  14.026   3.546   2.211  0.0448  0.1638 -0.0021
32358ION     NA49205   0.640   9.773   9.744  0.1267 -0.2500  0.1931
32359ION     NA49206   2.733  18.922   5.050 -0.1005 -0.0363 -0.2659
32360ION     NA49207  15.766   1.315  13.979  0.3767 -0.0531  0.3544
32361ION     NA49208  18.016   0.510   9.420  0.1342  0.0333  0.1614
32362ION     NA49209   1.747  14.049   9.800 -0.2449 -0.1582  0.1398
32363ION     NA49210  13.806  15.755   4.964  0.0092  0.0154 -0.0862
32364ION     NA49211   5.651   5.248   5.286  0.1799 -0.3264  0.0608
32365ION     NA49212  13.434   1.959   9.095  0.0463  0.0491  0.0662
32366ION     NA49213  10.949   3.860   1.644 -0.3258 -0.0893 -0.1025
32367ION     NA49214   0.296   2.513  12.366 -0.2863 -0.1908 -0.0721
32368ION     NA49215   6.065   1.808   9.168 -0.2439  0.1848 -0.0498
32369ION     NA49216  18.391  17.243   2.559 -0.2320  0.2839 -0.0828
32370ION     NA49217   2.034  10.129   9.533  0.0242  0.1111  0.0483
32371ION     NA49218   7.245  13.451  11.896 -0.5406  0.1146 -0.3406
32372ION     NA49219  10.885  13.050  12.800  0.0202  0.1224 -0.2043
32373ION     NA49220   8.766   8.230  12.840  0.0184  0.0711 -0.0678
32374ION     NA49221   0.176  13.605   2.359  0.0910  0.3634 -0.1965
32375ION     NA49222   7.805   9.383  13.163 -0.0845 -0.1004 -0.0625
32376ION     NA49223   9.689  13.143   1.509 -0.0750 -0.1451 -0.0234
32377ION     NA49224  10.063  10.976   9.498 -0.1180  0.0458  0.1895
32378ION     NA49225   7.029   4.843   4.470  0.2194 -0.0616  0.1949
32379ION     NA49226   9.566  14.166   4.227  0.0107 -0.2212  0.0601
32380ION     NA49227   9.921  15.144  13.001 -0.1487 -0.0488  0.1756
32381ION     NA49228  12.780   2.513  13.628 -0.0123  0.0719  0.0803
32382ION     NA49229   0.618   3.127   5.225  0.0811  0.0113  0.0552
32383ION     NA49230   6.218   6.079   5.240 -0.1770  0.2204  0.2929
32384ION     NA49231  13.731  18.280   5.537 -0.2259  0.1968 -0.2387
32385ION     NA49232  11.356   3.248   9.182  0.0391 -0.1815  0.3749
32386ION     NA49233   9.060   5.412   9.526 -0.0686 -0.2639  0.0298
32387ION     NA49234  16.619  12.366   4.927  0.0981 -0.1149 -0.0414
32388ION     NA49235  10.955  10.848   9.376 -0.1172  0.2789  0.1362
32389ION     NA49236   8.059  11.604   9.563 -0.0266 -0.1401  0.3552
32390ION     NA49237  15.381   8.965   0.527 -0.3094  0.1018  0.1623
32391ION     NA49238   3.901  14.902  12.196 -0.0018  0.1161  0.2782
32392ION     NA49239   6.368   7.754   0.853  0.1022  0.3134  0.0902
32393ION     NA49240   3.467   8.581   0.892  0.1395 -0.3304 -0.0663
32394ION     NA49241   2.655  16.788   9.551 -0.0110 -0.0317 -0.0502
32395ION     NA49242   8.715  16.257  10.770  0.0305  0.2435 -0.1193
32396ION     NA49243  10.473  10.142   9.125  0.2550 -0.2918 -0.2898
32397ION     NA49244   7.215  10.522   4.752 -0.0402 -0.1317 -0.0006
32398ION     NA49245   6.966  19.207   5.166  0.1193 -0.0765 -0.0477
32399ION     NA49246   4.962   5.766  14.054  0.3095  0.0283  0.2851
32400ION     NA49247   4.812  14.885   9.519 -0.2782 -0.3289 -0.2288
32401ION     NA49248  15.621  10.246  13.906  0.3565 -0.0029 -0.2249
32402ION     NA49249   0.588   6.117   3.649 -0.0084 -0.1440 -0.1662
32403ION     NA49250  10.167   2.729  11.895 -0.1760 -0.1437  0.0574
32404ION     NA49251   6.934   9.442   5.148 -0.2617  0.2053  0.1211
32405ION     NA49252  13.997   0.544   4.010  0.2170  0.0250  0.2498
32406ION     NA49253   2.232   9.297  12.968 -0.1134  0.2098 -0.0150
32407ION     NA49254  16.239  17.273   5.137  0.2185  0.0504 -0.2696
32408ION     NA49255   5.786   6.196  11.609 -0.2373  0.0352  0.0468
32409ION     NA49256  17.465   4.816   2.283 -0.0781 -0.0825 -0.0374
32410ION     NA49257  15.169  16.254   9.689 -0.1984  0.0863  0.2466
32411ION     NA49258   7.068   4.344  11.945 -0.1090 -0.1097  0.2118
32412ION     NA49259  12.695   8.027   3.930  0.2032  0.0504 -0.2032
32413ION     NA49260  13.509  15.437   9.453 -0.2504 -0.4978 -0.0163
32414ION     NA49261   7.324  17.344   5.203 -0.0660 -0.1009 -0.1672
32415ION     NA49262   0.567  17.936   9.337  0.2275  0.1354  0.1544
32416ION     NA49263  18.455   6.318  13.421 -0.0891 -0.1539  0.1982
32417ION     NA49264   2.661  17.305   5.365 -0.0891 -0.0661  0.1519
32418ION     NA49265   6.767   7.272  11.107  0.2291  0.0278 -0.0531
32419ION     NA49266  10.897  19.181   9.524  0.1029 -0.1014 -0.0378
32420ION     NA49267  19.376  12.200  14.005  0.0890 -0.1557  0.3316
32421ION     NA49268   2.983   4.997   9.445 -0.1001  0.1964  0.0375
32422ION     NA49269  18.780   4.959   9.508 -0.4061 -0.0672 -0.2242
32423ION     NA49270   9.139  15.071   2.618  0.0881  0.1626  0.2484
32424ION     NA49271  13.246  11.630  14.323 -0.0666  0.1927 -0.3536
32425ION     NA49272  18.979  14.600   9.592  0.2912  0.4544 -0.0325
32426ION     NA49273  17.969  15.812   4.936  0.2903  0.0378 -0.1003
32427ION     NA49274   1.081   3.060   9.094  0.2488  0.1629  0.1316
32428ION     NA49275   1.979  14.731  12.891 -0.2037 -0.4280 -0.2228
32429ION     NA49276   2.270   6.925   5.111  0.1809  0.0320 -0.1408
32430ION     NA49277   8.162   6.387   9.297  0.2112  0.1223  0.2159
32431ION     NA49278  18.516  12.078   2.450 -0.4841  0.1375  0.2245
32432ION     NA49279  17.581  15.991  10.773  0.2299 -0.1942 -0.2048
32433ION     NA49280   6.848  10.724   9.627 -0.1395  0.4697 -0.1952
32434ION     NA49281  10.187  11.479   2.082  0.0317  0.3280  0.1723
32435ION     NA49282   5.720  12.805   0.578  0.2113 -0.1461  0.3533
32436ION     NA49283   9.579  12.339   9.481  0.0413  0.2650 -0.1113
32437ION     NA49284   3.565   8.731  12.312 -0.0312 -0.0322 -0.0276
32438ION     NA49285  15.148  13.231   9.265 -0.0999 -0.1163 -0.3914
32439ION     NA49286  16.391  12.515   8.745  0.1112 -0.4415  0.1716
32440ION     NA49287  10.738  13.258   9.555  0.2370 -0.2308 -0.3481
32441ION     NA49288   2.107  18.246   5.099 -0.0614 -0.1438  0.0257
32442ION     NA49289   8.580  14.576   5.415  0.0317  0.0330 -0.0844
32443ION     NA49290  13.730  14.286   5.391  0.0261 -0.3419  0.0877
32444ION     NA49291   4.287  12.189   0.812  0.1431  0.1359  0.1199
32445ION     NA49292   0.235  12.562  13.184  0.1610  0.0875  0.1353
32446ION     NA49293  18.926   9.213   5.080 -0.2168 -0.1575 -0.0282
32447ION     NA49294  12.226  14.609  13.972 -0.0090 -0.1189  0.0699
32448ION     NA49295  19.158  17.827  11.691 -0.1686 -0.3492  0.3052
32449ION     NA49296   2.347   0.034   9.251 -0.1035  0.0598 -0.0615
32450ION     NA49297  14.319   1.996   3.988  0.1752  0.0957  0.6107
32451ION     NA49298  18.216  15.724  12.570  0.3665  0.0691 -0.0104
32452ION     NA49299   9.109   6.148   8.968 -0.1896  0.0983 -0.0938
32453ION     NA49300  11.310  13.509  11.304 -0.5084  0.1614 -0.0739
32454ION     NA49301  14.689   3.462   4.946  0.0045 -0.0179 -0.0189
32455ION     NA49302  17.168   7.386  14.273 -0.0161 -0.0316  0.0272
32456ION     NA49303   9.470  14.286  12.826 -0.0509 -0.0782 -0.0540
32457ION     NA49304   3.529   6.569  12.555 -0.2024  0.1029  0.0803
32458ION     NA49305  13.602  10.956   9.123  0.2689 -0.1299 -0.3008
32459ION     NA49306   3.138   8.429   9.488 -0.0334  0.1400  0.0475
32460ION     NA49307  18.005   7.348   9.321 -0.1242 -0.1205  0.0770
32461ION     NA49308  12.050  10.823  13.801 -0.1188  0.2745  0.0356
32462ION     NA49309   1.861  17.578   9.392  0.1591  0.4214  0.3601
32463ION     NA49310  17.094  14.448  14.106  0.1571 -0.0836  0.3311
32464ION     NA49311   9.780   2.647   9.232  0.0443  0.1117  0.1695
32465ION     NA49312   2.337  14.115   0.957 -0.1390 -0.0713  0.2012
32466ION     NA49313  15.831   1.333  10.922  0.2351 -0.1930  0.0915
32467ION     NA49314   3.837  17.377   3.160  0.0306  0.2095  0.0794
32468ION     NA49315  15.155   7.809   0.232 -0.2198  0.2229 -0.1098
32469ION     NA49316  14.533  18.052   2.425 -0.0764  0.2224  0.3285
32470ION     NA49317   6.263   4.403   4.113 -0.3431  0.0864  0.0069
32471ION     NA49318  11.680  14.251   9.328  0.3057 -0.0217  0.0112
32472ION     NA49319  10.955  13.381   5.345  0.0067 -0.3399 -0.0620
32473ION     NA49320   0.597   9.946   4.919 -0.0253 -0.1208 -0.0186
32474ION     NA49321  18.798   3.930   5.168 -0.0646 -0.0200 -0.0405
32475ION     NA49322   8.211  17.742   5.142  0.0099 -0.0838  0.2033
32476ION     NA49323   0.556  11.818   0.522  0.0556 -0.0721 -0.1966
32477ION     NA49324  13.739  14.658   3.287 -0.2961  0.0507 -0.0290
32478ION     NA49325  18.069  12.601   9.452  0.0752 -0.1922 -0.1997
32479ION     NA49326   5.611   8.847  14.329  0.0590 -0.1608  0.2321
32480ION     NA49327   5.675   1.879  13.009 -0.1986  0.1377 -0.0542
32481ION     NA49328   4.150   7.223   9.734 -0.2140  0.0477 -0.0037
32482ION     NA49329  12.583  10.045   4.538 -0.1802 -0.0273 -0.0355
32483ION     NA49330  16.439  17.683   8.975 -0.1749 -0.3865 -0.3606
32484ION     NA49331   9.542   7.081   1.965  0.4129  0.2948  0.0074
32485ION     NA49332  16.748   1.711  14.354  0.2288  0.0970  0.2421
32486ION     NA49333  18.885  13.859   4.104  0.0371 -0.3271 -0.0645
32487ION     NA49334  16.818   6.593  12.779  0.0777  0.0738 -0.1268
32488ION     NA49335  12.250   3.969  13.742 -0.1497 -0.0267  0.0486
32489ION     NA49336  15.642   2.356  13.904  0.1483 -0.1326 -0.2627
32490ION     NA49337  13.535  16.771   9.264 -0.2724 -0.3086 -0.0169
32491ION     NA49338   9.461   0.174   9.124  0.3035  0.1157 -0.2422
32492ION     NA49339  16.159   0.253   4.825  0.0418 -0.1243 -0.0471
32493ION     NA49340   4.149   5.600  12.493  0.0277 -0.0806 -0.1356
32494ION     NA49341   8.835  18.538   2.700  0.0043  0.0529 -0.2246
32495ION     NA49342   3.338   7.278   5.241  0.2500 -0.0426 -0.0107
32496ION     NA49343  10.577  10.185   1.516 -0.0053 -0.1544  0.0660
32497ION     NA49344  10.969  10.310   2.402 -0.0354  0.0172 -0.1694
32498ION     NA49345   4.652  16.596   9.113 -0.0196  0.1337  0.0812
32499ION     NA49346   9.758   5.277   9.023  0.0533  0.0611 -0.1414
32500ION     NA49347   6.503   1.337   1.690 -0.0613  0.0076  0.0757
32501ION     NA49348  14.552  16.937   9.654 -0.0373  0.0704  0.1368
32502ION     NA49349   5.879   1.114  10.950  0.1560  0.3702  0.0283
32503ION     NA49350  17.046   3.334   5.045 -0.2203 -0.2219  0.1540
32504ION     NA49351   8.914  15.995   4.734  0.1388 -0.1300 -0.1831
32505ION     NA49352  15.270   9.037   4.172  0.1097 -0.1933 -0.2804
32506ION     NA49353   3.861   9.797   3.201 -0.2766 -0.1459  0.0541
32507ION     NA49354  14.529  19.241   4.836  0.3053  0.0352 -0.1240
32508ION     NA49355   2.226   4.736   2.602 -0.0269 -0.2572 -0.3919
32509ION     NA49356   8.256   3.376   1.096 -0.1413  0.0380 -0.0146
32510ION     NA49357  14.952  16.970   2.369 -0.0533  0.0400  0.1178
32511ION     NA49358   4.206  18.034   9.512  0.0991  0.1676 -0.2274
32512ION     NA49359  18.537   8.810  13.785  0.2905 -0.0026 -0.3253
32513ION     NA49360   1.328   3.378   5.090 -0.2422 -0.1304  0.0995
32514ION     NA49361  14.279  14.692   0.980  0.0924  0.2801  0.1102
32515ION     NA49362   7.636   0.337   3.601 -0.2639  0.0339 -0.2257
32516ION     NA49363   8.653  10.706   9.469 -0.2666 -0.0828  0.1060
32517ION     NA49364   5.414   6.999  11.057  0.1850 -0.1258 -0.0379
32518ION     NA49365   6.175  11.192   9.761 -0.1278 -0.1165  0.0419
32519ION     NA49366   7.701   4.942   9.237  0.0433  0.3883 -0.1492
32520ION     NA49367   7.462  17.425   4.723  0.1363  0.1100 -0.0534
32521ION     NA49368  19.746   0.399   1.547 -0.2427  0.2247 -0.1612
32522ION     NA49369  17.257  17.532  10.044  0.3332 -0.4551 -0.2642
32523ION     NA49370   1.207  12.963   9.942 -0.0550 -0.2988  0.0666
32524ION     NA49371  14.152  19.189   1.278  0.1152 -0.0079  0.0915
32525ION     NA49372   8.292  13.599   5.279 -0.1566  0.0657  0.1069
32526ION     NA49373   5.181  13.607   3.265  0.0738  0.0786 -0.3622
32527ION     NA49374  16.684   0.915   3.820 -0.0551  0.0668 -0.1044
32528ION     NA49375   2.293   8.691   9.788 -0.4409 -0.4588 -0.2602
32529ION     NA49376  19.663   4.938   0.480 -0.1844 -0.0144  0.0119
32530ION     NA49377  14.504  15.762  12.599  0.2042 -0.0151  0.1545
32531ION     NA49378  14.903   1.200   9.578 -0.3658  0.0039 -0.0948
32532ION     NA49379  10.887   5.955   4.925 -0.1684 -0.4156 -0.3654
32533ION     NA49380   3.412   7.432   9.581  0.5185  0.2031 -0.0497
32534ION     NA49381   9.782   9.479   9.367 -0.1423  0.2741  0.2601
32535ION     NA49382   4.009  11.360   9.782  0.0314  0.1436 -0.5256
32536ION     NA49383   0.413  15.886   2.232  0.2182  0.2437  0.1507
32537ION     NA49384   2.782   2.214   4.599 -0.0250 -0.0697 -0.3567
32538ION     NA49385   4.009   1.769   0.981 -0.2309  0.0270 -0.0567
32539ION     NA49386  19.377   5.694   9.255 -0.1169 -0.0876 -0.2312
32540ION     NA49387   2.153   6.830   9.310 -0.0439 -0.0077 -0.2239
32541ION     NA49388   1.009   7.862   9.279  0.0473  0.2737  0.3572
32542ION     NA49389   0.762   1.470   9.530 -0.0627 -0.1595  0.0310
32543ION     NA49390   2.024  18.053   2.999 -0.1084  0.1034  0.0764
32544ION     NA49391  11.249  18.642  14.253  0.0040 -0.1955 -0.2310
32545ION     NA49392   8.045  18.828   3.678  0.3422 -0.1687  0.4499
32546ION     NA49393   1.382   1.804  10.277  0.2203 -0.0091 -0.1248
32547ION     NA49394   8.728  13.021   2.014  0.2867 -0.0265 -0.1840
32548ION     NA49395  17.673   9.086   9.183  0.2648  0.2771 -0.2836
32549ION     NA49396   8.468  18.965   9.526  0.0258 -0.0370 -0.1934
32550ION     NA49397   2.192  16.363   1.626 -0.0019 -0.1933 -0.1221
32551ION     NA49398   1.246   7.249  10.231  0.1333  0.1294  0.1902
32552ION     NA49399  18.350   6.456   9.350  0.1883  0.1350  0.1274
32553ION     NA49400  11.407   4.073   4.395  0.5009 -0.0390  0.1111
32554ION     NA49401  11.854  15.837   1.943  0.1605  0.2998  0.0326
32555ION     NA49402  17.485  17.884   9.363  0.0008  0.2590 -0.2097
32556ION     NA49403  10.219  19.477  13.044  0.0084  0.1108  0.2541
32557ION     NA49404   4.110   7.373   5.231  0.2720  0.1432  0.2835
32558ION     NA49405  10.563  15.084   0.274  0.1224  0.2090 -0.1120
32559ION     NA49406   4.588   6.042   5.183  0.0211  0.0440  0.2450
32560ION     NA49407   6.534  11.316   1.292 -0.3012  0.1854  0.3749
32561ION     NA49408   5.535  16.926   9.410  0.0015 -0.2634 -0.1952
32562ION     NA49409   4.872   7.068   4.378  0.1999 -0.1367 -0.0110
32563ION     NA49410   3.600  18.124   9.532 -0.0596 -0.0312  0.0475
32564ION     NA49411   6.978  13.286  12.928  0.0292 -0.1323  0.1327
32565ION     NA49412   1.994  14.740   5.142 -0.0959 -0.3490 -0.5555
32566ION     NA49413  11.883  18.715   5.303  0.0193 -0.1326  0.1826
32567ION     NA49414   6.560   8.508  13.260  0.0517 -0.2282  0.1900
32568ION     NA49415   4.992  18.712   9.719 -0.0985 -0.0882  0.1521
32569ION     NA49416   1.187   7.359   9.413 -0.1743 -0.0632  0.0719
32570ION     NA49417   1.343   0.777   9.290  0.2873  0.3263 -0.0174
32571ION     NA49418   7.262   3.340  13.849 -0.2032  0.1632  0.1042
32572ION     NA49419  13.873  12.517   8.991 -0.0458 -0.0680  0.0205
32573ION     NA49420   3.963   9.918  12.481  0.1357 -0.1337  0.1789
32574ION     NA49421   6.732   4.014   0.795  0.1179 -0.2317  0.4096
32575ION     NA49422  10.480   6.926   9.026  0.1403 -0.2210  0.0961
32576ION     NA49423   2.560  10.746   9.681 -0.1097  0.0173 -0.0785
32577ION     NA49424  11.913   5.828   5.407 -0.2057 -0.3218  0.1703
32578ION     NA49425  17.201  18.717   9.241 -0.4628  0.1867  0.0693
32579ION     NA49426  17.950   5.973   5.171 -0.1538 -0.0259  0.0149
32580ION     NA49427  13.631   7.762   9.039  0.0385 -0.0565 -0.1619
32581ION     NA49428   9.686   1.734   9.152  0.0822 -0.1923 -0.1355
32582ION     NA49429   1.524  19.702   4.172  0.0131  0.3192 -0.0406
32583ION     NA49430  10.642   2.413   5.163  0.0056 -0.0755  0.3566
32584ION     NA49431  12.561   1.821   9.331 -0.0868  0.0277  0.0003
32585ION     NA49432   5.091   2.866   3.413 -0.0782  0.0849  0.0328
32586ION     NA49433  12.028  16.620   5.244 -0.3932 -0.0278 -0.0761
32587ION     NA49434  12.310   2.879   9.181 -0.1150 -0.0033  0.0683
32588ION     NA49435  10.447   8.896   4.692 -0.1328 -0.0548 -0.0993
32589ION     NA49436  16.321   7.748  13.575  0.0415  0.3615  0.3261
32590ION     NA49437   4.660   7.387  10.926 -0.1101  0.5109  0.1029
32591ION     NA49438   8.993   9.912   4.858  0.1132  0.2838 -0.3490
32592ION     NA49439   6.722  12.030  10.062  0.1515  0.0617  0.2942
32593ION     NA49440   7.183  16.360   9.387  0.2460  0.3180 -0.1078
32594ION     NA49441   3.145  14.262   5.158 -0.1044 -0.1100 -0.2653
32595ION     NA49442   5.586  15.341  12.814  0.0101  0.2597 -0.3083
32596ION     NA49443   3.450  18.400   2.582 -0.1021  0.2621 -0.2307
32597ION     NA49444   0.155   6.396   5.364  0.1472 -0.0795  0.0353
32598ION     NA49445   3.628   4.360   9.256  0.2083 -0.1710 -0.1195
32599ION     NA49446  19.537   2.679   9.168  0.2051  0.0056  0.2195
32600ION     NA49447  13.617   2.185  13.426  0.1969 -0.0628 -0.2178
32601ION     NA49448   4.083  11.919   5.490 -0.0452  0.1658  0.1055
32602ION     NA49449   6.501  18.781   3.168 -0.1171 -0.2538 -0.2512
32603ION     NA49450  12.622   0.350  11.110 -0.1513  0.1612  0.3981
32604ION     NA49451   1.138  17.825   9.436 -0.0275 -0.1039 -0.0822
32605ION     NA49452   3.985   1.837   9.445 -0.0590 -0.3912 -0.1832
32606ION     NA49453  15.334   3.388  12.453 -0.3472  0.0724  0.0984
32607ION     NA49454  12.884   7.333   2.641  0.0964 -0.0210  0.0631
32608ION     NA49455  15.061  14.271   9.308 -0.3821  0.4820 -0.0551
32609ION     NA49456  10.609   8.155   0.057  0.0786  0.1873 -0.1881
32610ION     NA49457   9.583  14.586  10.564 -0.2123 -0.1082  0.0758
32611ION     NA49458   1.586  18.260   5.247 -0.2278 -0.4286  0.0460
32612ION     NA49459  19.552   7.055   5.120 -0.0156 -0.3696 -0.2293
32613ION     NA49460  11.511  12.154   3.386  0.1883 -0.4956  0.1207
32614ION     NA49461  19.756   5.326   5.165 -0.0240 -0.0984 -0.2646
32615ION     NA49462   7.077  11.249   9.418  0.0932  0.2374 -0.0531
32616ION     NA49463   5.690  14.848   2.472 -0.1284  0.3196 -0.2117
32617ION     NA49464   6.123   4.743   3.109  0.3723  0.1685  0.1639
32618ION     NA49465   6.718   6.716   9.548  0.0298 -0.1473 -0.0579
32619ION     NA49466   6.618  15.744   9.589 -0.1665  0.2508 -0.4400
32620ION     NA49467   0.810  13.373   5.330  0.0380 -0.0576  0.1011
32621ION     NA49468  15.697   2.325   3.929  0.1450 -0.1187  0.3637
32622ION     NA49469  18.585   3.478   5.203  0.2664  0.1905  0.0772
32623ION     NA49470   8.307  12.853   9.637 -0.3409 -0.1256  0.2473
32624ION     NA49471   9.101   6.707   9.010  0.0045 -0.3225  0.1183
32625ION     NA49472  19.716  13.584   5.190 -0.0670 -0.2040  0.0588
32626ION     NA49473   2.282  15.138   2.250 -0.0398  0.0101 -0.3450
32627ION     NA49474  16.957  12.177   3.929 -0.1447  0.2717 -0.0700
32628ION     NA49475  14.375   4.780  13.825 -0.1958  0.1354 -0.1843
32629ION     NA49476  12.964  10.563   1.379 -0.0355 -0.2729 -0.0805
32630ION     NA49477  13.178   0.202   1.762  0.3369 -0.2479 -0.0415
32631ION     NA49478  11.347  16.017  12.533  0.0077  0.0852  0.4241
32632ION     NA49479  18.711   8.909   9.338 -0.0702 -0.1439 -0.3161
32633ION     NA49480  11.523   6.569  13.894 -0.2789 -0.2116  0.0626
32634ION     NA49481   4.725   2.476   9.815 -0.1545 -0.1090 -0.3256
32635ION     NA49482  12.168   9.618   8.996  0.0902  0.3060  0.4108
32636ION     NA49483   3.308   0.357   9.282 -0.0934 -0.0668  0.1366
32637ION     NA49484   5.312   7.498   9.602 -0.0764 -0.0236 -0.3008
32638ION     NA49485  15.538   5.064   1.044  0.1617 -0.0301 -0.2894
32639ION     NA49486   7.763  17.564   3.640 -0.3207  0.0759 -0.0523
32640ION     NA49487   2.523   7.677  14.348 -0.0458  0.2394  0.0985
32641ION     NA49488   0.402   7.477  10.970 -0.1108 -0.1395  0.0028
32642ION     NA49489  19.810  16.436   9.503  0.2022 -0.0065  0.2216
32643ION     NA49490  19.287  19.484   9.255 -0.1542 -0.0656  0.3696
32644ION     NA49491  13.889   8.595   9.288  0.0398  0.3982 -0.2770
32645ION     NA49492   3.452  14.264   9.488  0.3832 -0.0995  0.1317
32646ION     NA49493  13.301  17.027   1.907 -0.0240 -0.0397 -0.1727
32647ION     NA49494   1.339  13.577   2.753 -0.0899  0.0455  0.1218
32648ION     NA49495   7.391  15.549  11.329  0.0385  0.0195  0.2336
32649ION     NA49496   3.111  13.101   5.302  0.1660  0.1016  0.3071
32650ION     NA49497  19.649   5.613   0.987  0.3349  0.2401 -0.0490
32651ION     NA49498  13.617  17.353   5.052 -0.0684  0.0119  0.0319
32652ION     NA49499  14.788  10.158   1.066 -0.1661  0.0942 -0.0936
32653ION     NA49500   1.316  15.026   4.960 -0.0642  0.2277  0.0953
32654ION     NA49501   5.317   4.968  11.608  0.1963  0.3787 -0.0537
32655ION     NA49502   8.583  14.234   4.150  0.0452 -0.1525 -0.1485
32656ION     NA49503  12.616  15.238   9.472 -0.0743 -0.0244 -0.0115
32657ION     NA49504   1.180  10.471   9.841 -0.2221 -0.1995 -0.2082
32658ION     NA49505   4.550   2.275   2.803  0.0910 -0.2052 -0.0617
32659ION     NA49506  17.780  16.518   9.171  0.1404 -0.1165  0.1169
32660ION     NA49507   3.797  10.189   5.252 -0.0587 -0.2973 -0.2648
32661ION     NA49508   4.487  14.424   0.039  0.0034  0.0241 -0.0344
32662ION     NA49509   1.375   9.240   0.338  0.1268  0.0740 -0.0003
32663ION     NA49510   3.398  16.657  13.067 -0.1261  0.3317  0.4344
32664ION     NA49511   8.656  17.541   1.792  0.1463 -0.0973 -0.0878
32665ION     NA49512   7.655   0.116   4.926 -0.5401  0.4821  0.1782
32666ION     NA49513  12.068   5.094  11.557  0.1702 -0.3268 -0.1112
32667ION     NA49514   9.401  18.813   9.216  0.3448  0.0616 -0.1995
32668ION     NA49515  18.472   7.479   1.650  0.0329 -0.0730  0.0988
32669ION     NA49516   5.089  15.610   0.520  0.0058 -0.2800  0.3286
32670ION     NA49517  17.338  16.989   4.826 -0.2845  0.1128 -0.0264
32671ION     NA49518   1.770   5.220  13.685 -0.1324 -0.3230  0.1048
32672ION     NA49519   3.088  12.154   4.376  0.2443  0.0552  0.3238
32673ION     NA49520   4.747   4.569   8.935  0.2167  0.0938 -0.3453
32674ION     NA49521  14.961  17.925  14.172  0.1832  0.1171 -0.0973
32675ION     NA49522  18.686  18.265  12.958  0.0310 -0.0974 -0.5421
32676ION     NA49523   5.755  11.571   5.456  0.0387  0.0009  0.2899
32677ION     NA49524   3.221  15.830   3.094 -0.1196  0.0902  0.0148
32678ION     NA49525   3.913   9.223   4.126 -0.0283  0.2004 -0.2149
32679ION     NA49526  13.739   3.091   0.972 -0.1605 -0.4721 -0.3724
32680ION     NA49527  17.286   8.163   0.419  0.4212  0.2621 -0.0452
32681ION     NA49528   2.420   7.642   9.566 -0.0641 -0.1444  0.2342
32682ION     NA49529  18.190   4.617   5.043  0.1989 -0.1581 -0.1067
32683ION     NA49530  10.061  19.315   4.515  0.1959 -0.0712  0.1134
32684ION     NA49531   9.273  13.729   1.422 -0.6371  0.0427 -0.0068
32685ION     NA49532  18.161   5.524   9.408 -0.3633 -0.0470 -0.0473
32686ION     NA49533   7.168   6.053   9.100 -0.1898 -0.1226  0.0845
32687ION     NA49534   9.818   1.890   5.077 -0.0166  0.2136  0.0046
32688ION     NA49535  18.114   1.909   9.523 -0.0939 -0.1716  0.3035
32689ION     NA49536   1.944   4.060   9.392 -0.1282 -0.1570  0.0776
32690ION     NA49537  12.064  11.319   3.469 -0.3696 -0.3896  0.1692
32691ION     NA49538  19.728  16.445  11.028  0.1229 -0.1221  0.1944
32692ION     NA49539  13.197  11.859   9.868 -0.0039 -0.0104 -0.1938
32693ION     NA49540  12.723   2.310   1.469  0.0759  0.2385 -0.1913
32694ION     NA49541  13.272   7.429  14.006 -0.3059 -0.2579  0.0154
32695ION     NA49542  14.680   9.542   8.999  0.3587  0.1740  0.0822
32696ION     NA49543  10.675   5.460   8.873  0.5158  0.0202  0.1119
32697ION     NA49544  13.258  12.727   3.191  0.0647  0.2626  0.1574
32698ION     NA49545   8.945  12.544   5.202 -0.2071  0.1866  0.1352
32699ION     NA49546   8.614   8.542   0.055  0.2457 -0.1283 -0.1902
32700ION     NA49547   0.358   1.499   2.111 -0.0891 -0.3070 -0.4604
32701ION     NA49548  12.800   6.087   5.084  0.0931  0.0464 -0.6107
32702ION     NA49549  13.719   4.290  12.071 -0.0178  0.2352 -0.4345
32703ION     NA49550  10.020  16.206   1.957 -0.6494 -0.0211  0.3889
32704ION     NA49551   8.241   2.515  14.007 -0.1708  0.1631  0.0423
32705ION     NA49552   3.061  16.649   0.425 -0.0371  0.0946  0.1993
32706ION     NA49553   9.507  14.839   9.459 -0.0555 -0.1353 -0.1224
32707ION     NA49554   6.828   2.330  13.392  0.2301  0.0047  0.1923
32708ION     NA49555  13.684   2.927   9.091 -0.1260 -0.0183 -0.2028
32709ION     NA49556  16.335  19.037   9.225 -0.1351 -0.1668  0.2193
32710ION     NA49557  18.701   9.372   1.460 -0.0596  0.1175  0.0037
32711ION     NA49558   7.412   1.481   9.442  0.1492 -0.2099 -0.1762
32712ION     NA49559   5.898   6.127   0.659 -0.2036 -0.0402 -0.0867
32713ION     NA49560   5.712  16.295   5.076  0.0602 -0.1824  0.1219
32714ION     NA49561   5.790  18.745   9.802 -0.0129  0.2209 -0.2368
32715ION     NA49562   4.329  11.331   2.674  0.0932 -0.1222  0.3182
32716ION     NA49563   1.126   4.892   9.458 -0.1872  0.5064  0.2282
32717ION     NA49564  10.944   6.214   8.770  0.0128 -0.0261 -0.1924
32718ION     NA49565   3.600  10.468  10.119  0.2274 -0.0599  0.0374
32719ION     NA49566   4.119  16.016   2.785  0.0984  0.1406 -0.0507
32720ION     NA49567  16.176   0.061   9.346  0.1015 -0.3143 -0.0717
32721ION     NA49568  14.971   2.793   1.290 -0.1294 -0.0925  0.3540
32722ION     NA49569  18.659   4.877   3.827 -0.1270  0.1677  0.0873
32723ION     NA49570  16.158  15.557   4.241 -0.0884 -0.1491 -0.0831
32724ION     NA49571  13.688   1.741  11.053 -0.0915  0.0787 -0.3268
32725ION     NA49572  18.261   3.094   3.556  0.2033  0.2934  0.1955
32726ION     NA49573   2.400  12.096   9.478 -0.2709  0.1381 -0.0834
32727ION     NA49574  18.826  16.400   9.219  0.1515  0.2889  0.2537
32728ION     NA49575  11.586  10.265   9.292 -0.2290 -0.0617 -0.0796
32729ION     NA49576   8.279   6.811  14.019 -0.1558  0.3786  0.2819
32730ION     NA49577   4.851   3.346   9.160 -0.0552  0.0858 -0.1941
32731ION     NA49578   3.179  11.738   5.149  0.0698 -0.4184  0.1325
32732ION     NA49579   2.318  14.568   9.482 -0.2665 -0.0941 -0.4707
32733ION     NA49580  17.876   3.087   4.846 -0.0869  0.2296  0.1153
32734ION     NA49581  16.167   1.407   9.621  0.0289  0.0910  0.0450
32735ION     NA49582  19.176  17.544   3.504 -0.2903  0.0780 -0.0715
32736ION     NA49583  11.397   4.958   9.406 -0.1686  0.0735  0.2526
32737ION     NA49584  14.430  11.526   4.929 -0.0066  0.0835  0.2910
32738ION     NA49585  11.309   9.114   9.356  0.2819 -0.1033 -0.2452
32739ION     NA49586   3.100  10.267  10.733 -0.1414 -0.2396 -0.4938
32740ION     NA49587  17.432  19.287  12.442 -0.0299  0.0124  0.1641
32741ION     NA49588   4.117  16.130   9.319 -0.0481  0.1659  0.1624
32742ION     NA49589  19.122   4.628   2.589  0.1529  0.1965  0.1365
32743ION     NA49590   0.697  13.544   2.245  0.0762  0.2411  0.0360
32744ION     NA49591  10.942  14.968  13.592 -0.0554 -0.1744  0.1598
32745ION     NA49592  16.979   6.109   9.858 -0.1805  0.4031  0.4317
32746ION     NA49593   7.657   7.666   2.360 -0.2205  0.3353 -0.0175
32747ION     NA49594   2.920  10.101  13.265  0.1064 -0.0006  0.1253
32748ION     NA49595  17.639  13.152   9.130 -0.2047 -0.1714  0.0018
32749ION     NA49596   2.905  19.869   0.771 -0.0300  0.0823  0.3959
32750ION     NA49597   8.771   2.294   9.269 -0.0801 -0.0095 -0.5002
32751ION     NA49598  14.652   0.500   5.194 -0.0293  0.4441 -0.1749
32752ION     NA49599  10.225  17.041   5.279  0.1651 -0.3860  0.2332
32753ION     NA49600  19.748   6.784   4.346 -0.1859  0.1530  0.2582
32754ION     NA49601  19.587   0.423   9.410 -0.1085 -0.4496  0.0852
32755ION     NA49602   7.682  11.357   5.077  0.2495  0.1117  0.0336
32756ION     NA49603  16.602  14.811   9.034 -0.0299  0.1814 -0.1953
32757ION     NA49604   2.505   9.487   2.348 -0.0551  0.1420 -0.2803
32758ION     NA49605  13.553  14.586  13.599 -0.2099 -0.0264  0.1039
32759ION     NA49606  11.441  11.847   9.603  0.2607 -0.1067 -0.1894
32760ION     NA49607   7.036   9.157  10.702  0.0388  0.2653  0.1565
32761ION     NA49608   4.260  13.622   4.864  0.0814 -0.0379  0.0787
32762ION     NA49609   0.501  17.120   9.508  0.2410 -0.2348 -0.1704
32763ION     NA49610  14.520   7.845   9.356 -0.1831 -0.2004 -0.0856
32764ION     NA49611  17.439   1.475   2.579 -0.3546  0.0985  0.0706
32765ION     NA49612  17.908  19.518   5.110 -0.1375 -0.1043 -0.3545
32766ION     NA49613   1.086  17.361   4.583 -0.2093  0.3338 -0.0780
32767ION     NA49614   9.503   3.163   0.463  0.0680 -0.2753 -0.0037
32768ION     NA49615   6.546   3.216   9.145 -0.1105 -0.2733  0.1540
32769ION     NA49616  12.729  11.746   9.159  0.3757  0.2365  0.4608
32770ION     NA49617  11.651  13.835   0.858 -0.1913 -0.2072 -0.2821
32771ION     NA49618  15.244   8.465   4.299 -0.1438  0.0407 -0.1052
32772ION     NA49619   7.690   5.526   4.769 -0.0120 -0.1525  0.1978
32773ION     NA49620  17.424  12.811   3.162 -0.0509  0.0888  0.0386
32774ION     NA49621   0.864  15.985   9.481  0.1037  0.2711  0.0261
32775ION     NA49622   4.767   6.250  11.764 -0.0213 -0.2893 -0.0936
32776ION     NA49623  10.400   9.069   9.387 -0.0692 -0.0144  0.0040
32777ION     NA49624   5.294   5.880   0.503 -0.0399 -0.0047  0.1204
32778ION     NA49625   2.149  18.241  10.240 -0.0355 -0.2682 -0.1523
32779ION     NA49626  10.386  11.160   5.168 -0.2289 -0.0112 -0.0675
32780ION     NA49627  15.233  15.810  14.091  0.0948  0.2298  0.3259
32781ION     NA49628   6.756  13.748   5.370  0.0472 -0.1851 -0.0072
32782ION     NA49629   8.896   8.543   9.375 -0.1336  0.0785 -0.0384
32783ION     NA49630  15.145   2.053   9.002  0.1008 -0.0331  0.0764
32784ION     NA49631   6.322  12.353  11.870  0.0641  0.2274  0.0600
32785ION     NA49632  16.937   4.537   9.164  0.0447 -0.3317 -0.3378
32786ION     NA49633   3.897  17.031   0.830  0.4264  0.1218 -0.4494
32787ION     NA49634  19.768   6.265   3.042  0.0003  0.1561 -0.1012
32788ION     NA49635  12.751   3.768   9.051  0.3649 -0.1770 -0.1442
32789ION     NA49636  18.393   2.180   4.559  0.0828  0.0561 -0.0366
32790ION     NA49637   9.457   3.395   1.350 -0.1171  0.0106 -0.0902
32791ION     NA49638  11.168  16.977   4.960 -0.0396  0.0785  0.4192
32792ION     NA49639  12.771   9.752  11.704  0.1836 -0.1113 -0.3018
32793ION     NA49640   6.288   5.539   9.161  0.0562  0.1622  0.3863
32794ION     NA49641   4.423  14.692  11.160  0.3538  0.2885 -0.0258
32795ION     NA49642   4.438  14.483   4.772  0.1641  0.2001 -0.0697
32796ION     NA49643   7.502  19.230   9.568 -0.3193  0.0857 -0.1769
32797ION     NA49644   5.327   4.072  14.284 -0.1082  0.0247  0.4944
32798ION     NA49645  18.377  10.080   5.044 -0.0014 -0.1487 -0.0942
32799ION     NA49646  18.148  14.600   9.398  0.2602  0.1011 -0.3575
32800ION     NA49647   3.313  16.857   1.977  0.2682 -0.0923  0.1744
32801ION     NA49648  19.653  16.583   2.253  0.1104 -0.3106  0.0411
32802ION     NA49649  16.065   6.955   9.833  0.2022 -0.2472 -0.1912
32803ION     NA49650  16.372   2.788   1.992  0.1146 -0.0317  0.0954
32804ION     NA49651   1.013  14.198   5.202 -0.2397  0.1178 -0.0097
32805ION     NA49652  10.118   4.614   3.169  0.2074 -0.0777 -0.0582
32806ION     NA49653   1.725   2.420   9.151 -0.2758 -0.3692  0.0226
32807ION     NA49654   1.451   5.942   2.755  0.1417 -0.1025  0.1304
32808ION     NA49655   7.231  18.174   3.336 -0.0293 -0.0035  0.0592
32809ION     NA49656   5.720   3.514   4.615 -0.1005  0.3224  0.1282
32810ION     NA49657  15.396   6.473   2.308 -0.1169  0.5417  0.0532
32811ION     NA49658  18.291  13.617   4.769  0.3914  0.0744 -0.3801
32812ION     NA49659   1.401   7.240   4.921  0.2119  0.2856 -0.1195
32813ION     NA49660   3.135  15.141   9.775  0.2173  0.0860  0.0705
32814ION     NA49661  16.405  18.894   2.506  0.3039  0.1353  0.0093
32815ION     NA49662   9.324   9.268   0.547  0.4123 -0.1703 -0.0704
32816ION     NA49663  17.514  17.959   2.465 -0.1030 -0.0074  0.0417
32817ION     NA49664   4.213  14.913   5.147 -0.3094 -0.4491  0.1835
32818ION     NA49665   8.748   7.525   9.142 -0.0018 -0.2363  0.0131
32819ION     NA49666  17.298   2.608   9.602  0.0316  0.0165 -0.0975
32820ION     NA49667   9.437  15.636  12.202 -0.1170  0.1641  0.1241
32821ION     NA49668  15.353  10.055   9.137  0.0825  0.0736 -0.2856
32822ION     NA49669   7.757   0.194  11.303  0.2595 -0.1857  0.1080
32823ION     NA49670   3.490  14.342   4.480  0.1528 -0.2337 -0.0664
32824ION     NA49671  16.048   7.943   9.226  0.1566 -0.0264 -0.2856
32825ION     NA49672   1.568  12.351  11.402  0.1227  0.1977  0.1746
32826ION     NA49673   4.958   3.268  10.991  0.0322  0.0455  0.1602
32827ION     NA49674   3.968   3.633   9.306 -0.4696 -0.3017  0.0774
32828ION     NA49675   6.278  18.992   5.585 -0.0062 -0.3889 -0.0622
32829ION     NA49676  16.757  12.281  12.340 -0.2476 -0.0213  0.1429
32830ION     NA49677  10.143  17.193   9.220  0.0790  0.0195  0.0030
32831ION     NA49678   7.070   1.647  12.277 -0.0467 -0.2473 -0.3400
32832ION     NA49679  14.169   2.072   8.929 -0.0622  0.4795  0.1287
32833ION     NA49680   8.834  16.526   5.085  0.0846 -0.1007  0.2054
32834ION     NA49681   9.913   4.295   9.173  0.1443 -0.1254  0.1198
32835ION     NA49682  13.810  17.756  11.605 -0.0847  0.1499  0.4275
32836ION     NA49683   0.213  13.078   9.799  0.0938 -0.0776 -0.1050
32837ION     NA49684   7.285   2.795  12.648  0.3424  0.0854 -0.1457
32838ION     NA49685  18.024  19.365   3.810 -0.0527 -0.1293 -0.1247
32839ION     NA49686  17.223  11.067   4.924  0.1276 -0.1325  0.3168
32840ION     NA49687  13.531   9.404   9.025 -0.2849 -0.1232  0.1574
32841ION     NA49688  19.204   4.571   5.252  0.2948 -0.0491 -0.1592
32842ION     NA49689   2.293   4.001  10.403 -0.0978  0.2555 -0.2096
32843ION     NA49690   0.934  12.578  10.914 -0.2347  0.3136 -0.1465
32844ION     NA49691  15.167  12.128   4.777 -0.0633  0.1099 -0.0439
32845ION     NA49692  16.255   5.792   9.261  0.1017 -0.0208  0.5444
32846ION     NA49693  19.668   2.762   3.357 -0.0468  0.2378 -0.1255
32847ION     NA49694   5.969  14.180   3.624 -0.2941 -0.2615 -0.1265
32848ION     NA49695   4.389  16.566   4.847  0.0140  0.0529 -0.0230
32849ION     NA49696  17.109  12.904   4.280  0.2243 -0.3649 -0.0801
32850ION     NA49697  10.663  17.420  12.189  0.0677 -0.0598  0.3514
32851ION     NA49698   5.036  17.532  11.283 -0.0385  0.4800  0.1436
32852ION     NA49699   5.995  14.313   5.523  0.0865  0.0701  0.0071
32853ION     NA49700  11.735   0.311   2.585 -0.0164 -0.2859  0.0371
32854ION     NA49701   7.603   7.017   9.208 -0.0740  0.2090 -0.2684
32855ION     NA49702  13.114   4.618   8.983  0.0464 -0.1761  0.0041
32856ION     NA49703   8.645   0.005   4.898 -0.1991  0.0600  0.2178
32857ION     NA49704  10.069   5.429   1.275  0.0330 -0.1044 -0.0107
32858ION     NA49705  13.337   0.150  12.365  0.3930  0.0402  0.0889
32859ION     NA49706   5.371  16.623   0.802 -0.0119  0.0993 -0.0209
32860ION     NA49707   5.343  15.545   5.149 -0.1386  0.2666  0.0326
32861ION     NA49708   6.607  12.486   5.320  0.0473 -0.0044  0.3444
32862ION     NA49709  10.603  10.545   4.896 -0.0730  0.1471 -0.2605
32863ION     NA49710   7.078  12.711   9.658  0.0441 -0.3087 -0.0336
32864ION     NA49711  13.145  11.412   4.131 -0.1237  0.2463  0.1273
32865ION     NA49712  19.592  18.860  12.319  0.0801 -0.2567  0.0517
32866ION     NA49713   6.433   7.577   9.520  0.2924 -0.2683  0.1036
32867ION     NA49714   2.162  15.565   3.271 -0.1543 -0.0050  0.0354
32868ION     NA49715  14.338  14.994   4.212 -0.0355 -0.1406 -0.0930
32869ION     NA49716  12.496   8.842  10.228 -0.2106  0.1223 -0.3196
32870ION     NA49717   5.651  11.649  14.154  0.2917  0.0766  0.2476
32871ION     NA49718   5.157  11.491  10.261  0.3222  0.2359 -0.1620
32872ION     NA49719   0.862  13.689   9.756  0.2385  0.3297  0.0780
32873ION     NA49720   8.055   4.436   3.167  0.2884  0.0166  0.0282
32874ION     NA49721   9.584  15.432   9.518 -0.0417  0.0317  0.0544
32875ION     NA49722   4.713   6.614   9.463 -0.1187  0.0224  0.1993
32876ION     NA49723  17.984   8.501   4.693 -0.2772 -0.0854  0.2733
32877ION     NA49724   8.934   6.075  12.649 -0.1517  0.0451 -0.1980
32878ION     NA49725   1.898  16.222   9.719 -0.0502  0.0011  0.4045
32879ION     NA49726   7.601  11.280  14.270 -0.0486  0.3049 -0.1027
32880ION     NA49727  19.075  11.880   0.484  0.1541  0.1086  0.0962
32881ION     NA49728  11.729  10.072   4.570  0.0893 -0.1370 -0.2104
32882ION     NA49729  18.886  12.037   4.830 -0.0581  0.4632 -0.0185
32883ION     NA49730   9.163  14.007   5.055 -0.0952  0.2058 -0.2644
32884ION     NA49731   7.446   1.622   5.047  0.3913  0.1048 -0.1385
32885ION     NA49732   7.287   3.969   8.973 -0.1059 -0.2401  0.1283
32886ION     NA49733   3.237  11.275   9.972 -0.0265  0.0393  0.3247
32887ION     NA49734  16.694   1.463   9.548 -0.1201 -0.0088 -0.0878
32888ION     NA49735   3.969  12.338   1.150 -0.1971 -0.1164 -0.1115
32889ION     NA49736  10.396   2.353   3.815 -0.3056  0.0125  0.1145
32890ION     NA49737   1.781   5.993   9.167 -0.2199 -0.1006 -0.0669
32891ION     NA49738  14.932  15.621   1.646 -0.1065  0.3667  0.1612
32892ION     NA49739  15.027  12.145  10.856  0.0002 -0.3227  0.0982
32893ION     NA49740  11.981  12.680   9.247 -0.2235  0.0561 -0.1770
32894ION     NA49741  18.671   6.252   4.863 -0.2190  0.1755  0.0574
32895ION     NA49742  10.844   9.049   3.430  0.0250  0.0465 -0.0890
32896ION     NA49743  12.336   9.259   4.869 -0.0202  0.3259  0.3340
32897ION     NA49744  14.446  18.511   9.431 -0.1291  0.0437  0.3674
32898ION     NA49745  12.663   2.718   2.936 -0.1336  0.1380 -0.2437
32899ION     NA49746  12.259   6.542   9.153 -0.0322  0.2494 -0.1091
32900ION     NA49747   5.688   3.586   9.198 -0.1049  0.1167 -0.0471
32901ION     NA49748   6.861   7.691   5.025 -0.2457 -0.0051 -0.1193
32902ION     NA49749   1.753   8.986   4.894  0.1265 -0.2362 -0.1343
32903ION     NA49750  12.464  17.271   9.077  0.0163  0.2361 -0.0138
32904ION     NA49751  15.900  10.619  12.930 -0.2753 -0.2924 -0.2820
32905ION     NA49752  17.595  14.357  11.594 -0.3185 -0.1316 -0.0647
32906ION     NA49753  10.155   2.947   4.591 -0.0103  0.2264 -0.0409
32907ION     NA49754  13.039  17.821   9.451  0.0907  0.1560  0.0884
32908ION     NA49755  10.631   1.669   4.740  0.0025  0.2398  0.1346
32909ION     NA49756  10.769  11.569   9.584  0.0575 -0.0176  0.1290
32910ION     NA49757  15.432   4.549  13.319  0.1337  0.2633  0.1762
32911ION     NA49758  12.386   3.961   5.049 -0.5061 -0.0225  0.0102
32912ION     NA49759   3.404  15.771  12.169 -0.1456 -0.3110  0.1640
32913ION     NA49760   1.440   8.491   9.562  0.1426 -0.1232 -0.1764
32914ION     NA49761   6.901   2.243   9.423  0.2215 -0.1835  0.1134
32915ION     NA49762  15.763   1.430   9.304  0.4763 -0.0364 -0.3044
32916ION     NA49763   8.012  18.675  12.550 -0.2208  0.2167  0.3561
32917ION     NA49764  14.363  11.666   8.823  0.2010 -0.0328 -0.2200
32918ION     NA49765  10.629   6.095   0.194  0.1876  0.3276 -0.2010
32919ION     NA49766  15.266   1.996   4.877 -0.0978  0.0676 -0.0624
32920ION     NA49767  11.705  19.644   4.752 -0.1859  0.2336 -0.1413
32921ION     NA49768   9.181  11.224   2.619 -0.0711  0.4257  0.1994
32922ION     NA49769   3.254  17.060  11.885 -0.1436 -0.1743 -0.0866
32923ION     NA49770   9.240   6.381   0.359 -0.3959  0.1904  0.3706
32924ION     NA49771  12.268  17.377   2.137 -0.0793  0.1420 -0.2550
32925ION     NA49772  12.713  18.195   2.161  0.1585  0.2283  0.0635
32926ION     NA49773  10.613   5.618  12.552 -0.0717  0.3143 -0.4700
32927ION     NA49774  14.130  16.775   0.272  0.3062  0.0348  0.0282
32928ION     NA49775   7.316  13.737   9.501  0.1668  0.0038 -0.3774
32929ION     NA49776  14.324   4.250  12.184  0.0867  0.3197  0.0869
32930ION     NA49777  15.718  19.740   9.564  0.0729  0.1777 -0.0863
32931ION     NA49778   7.518   1.376   3.614 -0.0860  0.0148  0.2370
32932ION     NA49779   4.780  17.400   9.355  0.0009 -0.0882  0.1442
32933ION     NA49780  19.695  12.341   4.755 -0.2066  0.0090 -0.1285
32934ION     NA49781   3.905   4.955   8.992 -0.0839  0.1496 -0.1728
32935ION     NA49782  19.053   2.317   3.758 -0.3541  0.2782  0.2041
32936ION     NA49783   2.841   6.001   9.474 -0.1574  0.1570 -0.0340
32937ION     NA49784  18.036  11.728   9.314  0.1308 -0.0425  0.1908
32938ION     NA49785   2.090   4.922   9.313 -0.1839 -0.1099 -0.1329
32939ION     NA49786   9.669   4.169   4.580 -0.1003  0.1468  0.1481
32940ION     NA49787  13.232   8.636   2.568  0.3435  0.0363  0.1605
32941ION     NA49788  14.228   5.300   9.111  0.0511 -0.3231  0.1024
32942ION     NA49789   0.248   4.891   5.332  0.3653  0.4150  0.1848
32943ION     NA49790   1.609  19.551   1.450  0.1249  0.2238  0.0834
32944ION     NA49791   0.883  14.619   9.546 -0.2848 -0.0596 -0.1883
32945ION     NA49792   8.511  12.060   4.849  0.1404 -0.1040  0.4126
32946ION     NA49793  11.505   1.974   4.684  0.2158  0.0223 -0.0127
32947ION     NA49794   5.898   2.524   5.064 -0.3507 -0.2202  0.1362
32948ION     NA49795   2.861   2.424   9.394  0.1791  0.0658  0.0915
32949ION     NA49796  19.204   9.059   3.770  0.0299  0.5279 -0.2117
32950ION     NA49797   8.202   9.569   0.609  0.0150 -0.4368  0.2700
32951ION     NA49798  12.427   5.219  12.721  0.1999 -0.0627 -0.0703
32952ION     NA49799   3.760   1.562   1.948 -0.2561  0.1174 -0.1048
32953ION     NA49800  18.785  11.223   9.473  0.0733 -0.3162  0.1889
32954ION     NA49801  15.413   0.686   9.661 -0.3364 -0.2935 -0.2315
32955ION     NA49802   5.128  14.027  12.867 -0.0940  0.2497 -0.0981
32956ION     NA49803  19.087  18.593   9.283 -0.3042 -0.2343  0.0801
32957ION     NA49804  17.303  14.172   9.167 -0.3221 -0.2978 -0.3503
32958ION     NA49805   4.897  18.189   5.288  0.0155  0.2142  0.0102
32959ION     NA49806   8.846  12.124   9.890  0.0623  0.3255 -0.0453
32960ION     NA49807   4.768  10.877   9.767 -0.2993  0.2414  0.2332
32961ION     NA49808  11.489  19.018  12.524  0.0888  0.1442  0.1561
32962ION     NA49809  19.235  16.131   4.457  0.0801 -0.0581 -0.3899
32963ION     NA49810  16.309  10.153  13.062 -0.1490  0.4723  0.0944
32964ION     NA49811  16.729   5.565   3.324 -0.2696  0.0778 -0.2506
32965ION     NA49812   8.266   9.963   9.721  0.2782 -0.0278 -0.1371
32966ION     NA49813  14.055  11.342  13.617 -0.0862  0.1779  0.1394
32967ION     NA49814   0.030   2.092   5.129  0.1443 -0.1911 -0.1079
32968ION     NA49815   5.451  17.871   9.520 -0.2584  0.0358 -0.0546
32969ION     NA49816   9.934  13.966   9.503 -0.1416  0.1925  0.0430
32970ION     NA49817  17.465   2.787  13.420 -0.1414 -0.1535  0.0142
32971ION     NA49818  11.593  18.397   2.210 -0.2375  0.0532 -0.0129
32972ION     NA49819  11.208   2.897   4.766 -0.1006  0.0645 -0.1438
32973ION     NA49820   2.853   7.179   0.738  0.3297 -0.1885 -0.1907
32974ION     NA49821  19.847  11.391   9.558  0.1789 -0.1377 -0.2123
32975ION     NA49822  10.088   6.155   8.812 -0.1280 -0.2960 -0.0475
32976ION     NA49823   8.028  11.881  12.132  0.0200  0.0148 -0.0142
32977ION     NA49824  11.841   8.546   3.651 -0.1593  0.0538  0.2532
32978ION     NA49825   4.771   5.822   3.872  0.0888  0.0226  0.1789
32979ION     NA49826   7.425  12.117   5.236 -0.3134 -0.3651 -0.1543
32980ION     NA49827  12.867   6.476   2.432 -0.0614  0.0979  0.2960
32981ION     NA49828  11.686  15.251   9.290 -0.0122  0.1979  0.2977
32982ION     NA49829   6.488   9.049   9.634 -0.0507  0.1656  0.0186
32983ION     NA49830   3.431   3.401   4.779  0.4348  0.0997 -0.1805
32984ION     NA49831   7.809  10.966   9.501 -0.1222  0.0143 -0.1496
32985ION     NA49832  13.948  17.539   9.506 -0.0446 -0.2194 -0.3848
32986ION     NA49833  11.525  17.944   3.773  0.0511 -0.3596 -0.2083
32987ION     NA49834   0.554   0.903   4.681  0.0607  0.0511 -0.0272
32988ION     NA49835   2.557  10.025  11.399  0.0701  0.0624  0.1192
32989ION     NA49836   3.613  13.396   9.499  0.4014 -0.1727 -0.1532
32990ION     NA49837   5.760   6.378   9.272 -0.0375  0.0300  0.1360
32991ION     NA49838  18.369   3.605   9.497  0.0180  0.0763 -0.0903
32992ION     NA49839   6.309  12.816   9.774  0.1143  0.1545  0.0514
32993ION     NA49840   9.543  16.364   9.366 -0.0883  0.1129 -0.0641
32994ION     NA49841   7.110   8.378   9.575  0.0218 -0.0718  0.3558
32995ION     NA49842   5.506   8.964  10.309  0.1427 -0.0996  0.0907
32996ION     NA49843   1.173   8.421  12.437 -0.0638  0.2296  0.0763
32997ION     NA49844   3.110  19.738  11.933  0.0554  0.0964  0.0908
32998ION     NA49845   6.461   0.231   9.443  0.1022  0.2381 -0.1382
32999ION     NA49846  12.855   8.409   9.048  0.0460 -0.0137  0.0211
33000ION     NA49847  12.572   8.094   4.751  0.3271 -0.0948 -0.2374
33001ION     NA49848  18.387  15.660  10.906  0.1829 -0.0013  0.0781
33002ION     NA49849  15.576  12.410   1.404 -0.0193  0.2205 -0.0316
33003ION     NA49850   2.132  11.938   5.115 -0.1709  0.2983 -0.3010
33004ION     NA49851  17.741   0.385   3.053  0.2152  0.2276 -0.0701
33005ION     NA49852   8.133   7.619   0.148  0.0205  0.1769 -0.0399
33006ION     NA49853   0.125  15.724   0.076 -0.1159  0.1767 -0.0821
33007ION     NA49854  19.368   6.757   9.332  0.0699  0.0023  0.2440
33008ION     NA49855  14.295   1.296   9.431 -0.0471 -0.2625  0.0412
33009ION     NA49856  17.574   3.527   9.262 -0.1067  0.0278 -0.0199
33010ION     NA49857   9.657   6.333   5.136  0.3806 -0.0178  0.0885
33011ION     NA49858   2.613   7.006  13.629 -0.1784 -0.0074  0.0268
33012ION     NA49859  19.853   8.011   9.588  0.0970  0.1057  0.2098
33013ION     NA49860   2.724  16.169   4.329  0.2084 -0.2014 -0.0854
33014ION     NA49861  16.808   9.919  12.343 -0.1489  0.1130 -0.0288
33015ION     NA49862   0.855  18.558  11.924 -0.2143  0.0367 -0.1522
33016ION     NA49863   8.202   8.059   5.048  0.1196 -0.2061  0.0593
33017ION     NA49864  12.566   9.395  13.284  0.3868 -0.3079 -0.4282
33018ION     NA49865  18.430   1.354   1.194 -0.3343 -0.4356 -0.0302
33019ION     NA49866   5.865  13.845  13.267 -0.0609 -0.0625 -0.4466
33020ION     NA49867  16.223   0.580   9.494 -0.0106 -0.1654 -0.1430
33021ION     NA49868   6.697  18.403  11.911  0.0485  0.0110  0.0424
33022ION     NA49869  12.921  13.118   5.381  0.1622  0.2120  0.2304
33023ION     NA49870  13.829   4.835   9.049  0.4076 -0.1541 -0.2079
33024ION     NA49871  18.560   7.846   4.137 -0.0520  0.0059  0.3834
33025ION     NA49872   4.748   5.333   9.086  0.0357 -0.1324  0.1855
33026ION     NA49873   6.654   0.821   4.224  0.0111 -0.1241  0.0573
33027ION     NA49874  18.719   0.268  13.211  0.0802  0.0281 -0.0039
33028ION     NA49875  14.170  14.458   9.204 -0.1699 -0.0171 -0.1216
33029ION     NA49876   7.431   6.281  12.353  0.3142 -0.0819 -0.2800
33030ION     NA49877   7.221   0.275  12.049 -0.1437  0.0157  0.4489
  19.88793  19.88793  14.36285
