INSANE! Membrane UpperLeaflet>loPI=1.0 LowerLeaflet>PSPI:POPI:POPS:YOPS:POPE:YOPE:POPC:YOPC:ERGO=6.0:14.0:21.0:9.0:9.0:21.0:12.0:48.0:60.0
49877
    1loPI    C1    1   0.922  15.386   9.701 -0.0217  0.0724 -0.0371
    1loPI    C2    2   0.752  15.180   9.403 -0.0901  0.0439  0.0214
    1loPI    C3    3   0.524  15.351   9.684 -0.0149 -0.1644  0.2130
    1loPI   PO4    4   1.038  15.584   9.585 -0.3893 -0.4692 -0.0976
    1loPI   GL1    5   1.120  15.434   9.217  0.0005  0.1027  0.0487
    1loPI   GL2    6   1.384  15.645   9.127 -0.0184 -0.0662  0.2659
    1loPI   C1A    7   0.971  15.396   8.778 -0.0192  0.0122 -0.1141
    1loPI   C2A    8   1.120  15.220   8.465 -0.2013  0.3352  0.0285
    1loPI   C3A    9   1.089  14.959   8.107  0.0444 -0.1587  0.0954
    1loPI   C4A   10   1.182  14.954   7.644  0.3446  0.3630  0.0902
    1loPI   C5A   11   1.364  14.917   7.206  0.1148 -0.2141  0.3034
    1loPI   C6A   12   1.167  15.133   6.882  0.3003  0.4680 -0.0004
    1loPI   C1B   13   1.286  15.986   8.855  0.2574  0.0554  0.1546
    1loPI   C2B   14   1.411  16.130   8.465 -0.0025  0.3541 -0.1819
    1loPI   C3B   15   1.606  15.940   8.011  0.1645 -0.1917  0.1275
    1loPI   C4B   16   1.449  16.185   7.687 -0.0110 -0.1032 -0.4459
    2loPI    C1   17  14.955  12.210   9.230 -0.0027 -0.2596  0.0293
    2loPI    C2   18  15.177  12.431   9.479  0.2834 -0.0468 -0.4017
    2loPI    C3   19  15.106  12.046   9.562 -0.1136  0.1587  0.2943
    2loPI   PO4   20  15.061  12.248   9.031  0.0864 -0.4528  0.1298
    2loPI   GL1   21  15.389  12.221   8.713  0.3514  0.2091 -0.1969
    2loPI   GL2   22  15.219  12.225   8.468 -0.2072  0.1638 -0.1842
    2loPI   C1A   23  15.711  12.391   8.495  0.1328  0.0339 -0.0755
    2loPI   C2A   24  15.847  12.629   8.053 -0.2096  0.0037 -0.0826
    2loPI   C3A   25  15.843  12.549   7.608 -0.1300 -0.1516  0.1496
    2loPI   C4A   26  16.086  12.290   7.496 -0.0809 -0.0240 -0.1101
    2loPI   C5A   27  16.014  11.871   7.240 -0.2518  0.0980  0.0008
    2loPI   C6A   28  16.187  11.367   7.185 -0.2152  0.2957 -0.3506
    2loPI   C1B   29  14.863  11.992   8.206 -0.0145 -0.3364  0.0450
    2loPI   C2B   30  14.647  11.959   7.844  0.1130 -0.2651  0.3842
    2loPI   C3B   31  14.392  11.828   7.447 -0.0622 -0.1770  0.0081
    2loPI   C4B   32  14.024  11.806   7.240  0.0165 -0.0461  0.0405
    3loPI    C1   33  10.833  13.862  10.307 -0.0664 -0.2496  0.1177
    3loPI    C2   34  11.112  14.115  10.443 -0.1142 -0.0675 -0.1158
    3loPI    C3   35  10.845  13.957  10.695  0.0265 -0.0251  0.0617
    3loPI   PO4   36  10.800  13.923  10.070 -0.1819  0.1256 -0.0303
    3loPI   GL1   37  10.746  14.025   9.557 -0.0035 -0.3952 -0.2170
    3loPI   GL2   38  10.766  13.751   9.530  0.0598 -0.1546  0.1155
    3loPI   C1A   39  10.363  14.014   9.326 -0.0671  0.0404 -0.1178
    3loPI   C2A   40  10.256  14.159   8.791  0.3292 -0.0922  0.0361
    3loPI   C3A   41  10.341  14.214   8.334  0.0450  0.1517 -0.2197
    3loPI   C4A   42  10.345  14.112   7.819 -0.0462  0.1300 -0.0526
    3loPI   C5A   43  10.183  13.793   7.746 -0.2365  0.3963  0.0730
    3loPI   C6A   44   9.946  13.438   7.565  0.1030 -0.1359 -0.1930
    3loPI   C1B   45  10.825  13.481   9.128  0.2555 -0.1260  0.0793
    3loPI   C2B   46  10.898  13.446   8.783  0.1357  0.1065  0.0693
    3loPI   C3B   47  11.140  13.443   8.490  0.2221  0.0117  0.0721
    3loPI   C4B   48  11.456  13.356   8.186  0.3440 -0.1798 -0.0191
    4loPI    C1   49   3.563   8.476  10.076 -0.1861 -0.0057 -0.0958
    4loPI    C2   50   3.764   8.200  10.284  0.0347  0.2259  0.0032
    4loPI    C3   51   3.535   8.466  10.474 -0.1716  0.1180 -0.0913
    4loPI   PO4   52   3.368   8.327   9.930 -0.0333 -0.2082  0.0437
    4loPI   GL1   53   3.203   8.303   9.599  0.1936  0.3788 -0.0209
    4loPI   GL2   54   2.916   8.400   9.673  0.2650  0.0576  0.1742
    4loPI   C1A   55   3.244   8.272   9.069 -0.2293  0.0693 -0.1521
    4loPI   C2A   56   3.127   8.508   8.622 -0.1323  0.1221 -0.0515
    4loPI   C3A   57   2.829   8.427   8.239  0.1840 -0.1973 -0.0852
    4loPI   C4A   58   2.570   8.443   8.008  0.3012 -0.2538 -0.1834
    4loPI   C5A   59   2.431   8.020   7.697  0.1688 -0.0359  0.2901
    4loPI   C6A   60   2.607   8.065   7.303 -0.0827 -0.1426  0.0710
    4loPI   C1B   61   2.818   8.371   9.271  0.3821  0.1699 -0.0315
    4loPI   C2B   62   2.607   8.230   8.911  0.3944  0.0905  0.2574
    4loPI   C3B   63   2.410   8.272   8.563 -0.0289 -0.0941 -0.1025
    4loPI   C4B   64   2.479   8.004   8.161  0.1947 -0.1545 -0.7007
    5loPI    C1   65   5.605   9.168   9.642  0.3061 -0.2283  0.1144
    5loPI    C2   66   5.863   9.412   9.824  0.2806 -0.1645  0.0655
    5loPI    C3   67   5.669   9.134  10.035  0.0841  0.0545  0.1783
    5loPI   PO4   68   5.372   9.351   9.533  0.1563  0.1693 -0.0020
    5loPI   GL1   69   5.145   9.344   9.128 -0.1007  0.0298  0.1473
    5loPI   GL2   70   5.096   9.022   9.186 -0.0952  0.1544 -0.2372
    5loPI   C1A   71   4.869   9.254   8.779 -0.1579 -0.1365  0.1289
    5loPI   C2A   72   5.024   9.196   8.349  0.0356 -0.0353  0.0997
    5loPI   C3A   73   5.306   9.116   8.021  0.0427  0.1527 -0.2605
    5loPI   C4A   74   5.544   9.203   7.555 -0.0352 -0.2872  0.3540
    5loPI   C5A   75   5.777   9.196   7.190  0.2855 -0.0521 -0.1079
    5loPI   C6A   76   6.189   9.510   7.106  0.1347  0.1852 -0.0509
    5loPI   C1B   77   4.939   8.834   8.883  0.0859 -0.2795  0.0573
    5loPI   C2B   78   4.877   8.689   8.419  0.1974  0.3173  0.2832
    5loPI   C3B   79   4.751   8.832   7.989 -0.1483  0.2692  0.1798
    5loPI   C4B   80   4.675   8.689   7.538 -0.1322 -0.2027 -0.2774
    6loPI    C1   81   5.417   3.634   9.783 -0.0531 -0.2640  0.1924
    6loPI    C2   82   5.636   3.924   9.949 -0.3380 -0.0080  0.1305
    6loPI    C3   83   5.570   3.584  10.149 -0.2823  0.1051  0.3445
    6loPI   PO4   84   5.474   3.739   9.440  0.1679 -0.2549  0.1175
    6loPI   GL1   85   5.592   4.100   9.081 -0.2653  0.1292  0.1992
    6loPI   GL2   86   5.751   4.421   9.211  0.1236 -0.2229  0.0198
    6loPI   C1A   87   5.343   4.211   8.685  0.2244 -0.1498 -0.0804
    6loPI   C2A   88   5.470   4.022   8.363 -0.1465 -0.0500 -0.2460
    6loPI   C3A   89   5.303   4.101   8.015  0.0540 -0.1430 -0.2558
    6loPI   C4A   90   5.167   4.326   7.939  0.3253  0.0035  0.0222
    6loPI   C5A   91   5.002   4.600   7.576  0.1800  0.1429  0.0964
    6loPI   C6A   92   4.787   4.687   7.230 -0.4808 -0.1512 -0.1312
    6loPI   C1B   93   5.577   4.676   8.899 -0.0036 -0.3291 -0.2082
    6loPI   C2B   94   5.226   4.840   8.605 -0.0667 -0.1941  0.1300
    6loPI   C3B   95   5.105   4.854   8.149 -0.1117 -0.0528  0.2340
    6loPI   C4B   96   5.331   4.932   7.759  0.4096 -0.0696  0.0984
    7loPI    C1   97   4.213  15.737   9.759  0.0418  0.1739  0.0733
    7loPI    C2   98   4.173  15.524  10.095  0.0296  0.0078 -0.0321
    7loPI    C3   99   4.378  15.868  10.100 -0.1509  0.1158  0.1905
    7loPI   PO4  100   4.284  15.624   9.578  0.1026  0.2123  0.0366
    7loPI   GL1  101   4.375  15.496   9.148 -0.1773 -0.2541 -0.1378
    7loPI   GL2  102   4.682  15.584   8.940  0.0831 -0.1699  0.0954
    7loPI   C1A  103   4.103  15.840   8.944  0.0287 -0.1345 -0.0357
    7loPI   C2A  104   4.217  15.974   8.500 -0.0960 -0.1882 -0.0693
    7loPI   C3A  105   4.351  16.061   8.125  0.4386  0.0028  0.0326
    7loPI   C4A  106   4.237  15.952   7.687 -0.0529  0.0224  0.3064
    7loPI   C5A  107   4.347  15.884   7.242 -0.0558 -0.2583 -0.0717
    7loPI   C6A  108   4.298  15.829   6.760 -0.1823 -0.0379  0.1318
    7loPI   C1B  109   4.743  15.450   8.534 -0.1721  0.0244 -0.1543
    7loPI   C2B  110   4.965  15.348   8.202 -0.0407  0.2336  0.0976
    7loPI   C3B  111   5.029  15.518   7.877 -0.2198 -0.4348  0.3042
    7loPI   C4B  112   5.056  15.690   7.492 -0.2148 -0.2398 -0.1595
    8loPI    C1  113  12.634  10.792   9.977 -0.1261  0.1230 -0.2005
    8loPI    C2  114  12.652  11.055  10.278 -0.0431  0.2279 -0.2965
    8loPI    C3  115  12.323  10.834  10.224 -0.0375  0.1696 -0.0961
    8loPI   PO4  116  12.721  10.925   9.702 -0.1698  0.0765 -0.2891
    8loPI   GL1  117  12.957  10.901   9.373 -0.3667  0.1745  0.0730
    8loPI   GL2  118  13.201  10.679   9.287 -0.1595  0.2087 -0.0124
    8loPI   C1A  119  13.033  11.141   9.031  0.0034 -0.1702 -0.3637
    8loPI   C2A  120  13.286  11.347   8.691  0.0618 -0.2345  0.1095
    8loPI   C3A  121  13.351  11.358   8.299 -0.1310 -0.1890  0.1689
    8loPI   C4A  122  13.136  11.543   7.819 -0.1452  0.1402  0.1917
    8loPI   C5A  123  12.954  11.603   7.417  0.0563 -0.0798  0.2511
    8loPI   C6A  124  12.958  11.331   7.104 -0.2465  0.2012 -0.3302
    8loPI   C1B  125  13.428  10.883   8.932 -0.1119 -0.4531 -0.0047
    8loPI   C2B  126  13.622  10.964   8.517  0.0750  0.0652  0.1155
    8loPI   C3B  127  13.477  10.967   8.021 -0.0073 -0.0681 -0.2638
    8loPI   C4B  128  13.349  11.075   7.612 -0.1765 -0.3221  0.0168
    9loPI    C1  129  11.680  11.905   9.982 -0.0092 -0.0316  0.0835
    9loPI    C2  130  11.560  12.286   9.973 -0.0714 -0.0546 -0.0917
    9loPI    C3  131  11.452  12.049  10.277  0.1997  0.1416  0.1635
    9loPI   PO4  132  11.541  11.836   9.760  0.0309 -0.2606 -0.2510
    9loPI   GL1  133  11.626  11.944   9.396  0.0175  0.1943 -0.1058
    9loPI   GL2  134  11.255  11.916   9.283  0.1589  0.0043 -0.0743
    9loPI   C1A  135  11.815  11.698   8.980 -0.3336 -0.1355 -0.2255
    9loPI   C2A  136  12.208  11.442   8.769  0.2007  0.0013 -0.4847
    9loPI   C3A  137  12.125  11.319   8.339 -0.0187  0.1777  0.1373
    9loPI   C4A  138  12.191  11.277   7.856  0.0336 -0.1761  0.0089
    9loPI   C5A  139  12.386  11.447   7.430 -0.0985  0.2663 -0.1328
    9loPI   C6A  140  12.519  11.553   7.079 -0.0145 -0.1316  0.2278
    9loPI   C1B  141  11.136  12.031   8.822  0.5109 -0.0438  0.0547
    9loPI   C2B  142  10.870  11.726   8.584 -0.0813 -0.0144 -0.2832
    9loPI   C3B  143  10.849  11.661   8.164  0.0481 -0.1313 -0.1307
    9loPI   C4B  144  10.804  11.754   7.778  0.1964 -0.1341  0.1740
   10loPI    C1  145  17.601  14.990   9.613  0.1003  0.0869 -0.1489
   10loPI    C2  146  17.456  14.781   9.305  0.0025  0.2578 -0.2205
   10loPI    C3  147  17.380  14.663   9.679  0.4995 -0.2118 -0.2550
   10loPI   PO4  148  17.563  15.323   9.480  0.1187  0.0234 -0.2088
   10loPI   GL1  149  17.362  15.458   9.139 -0.0461 -0.2236  0.3023
   10loPI   GL2  150  17.563  15.629   9.118  0.1312 -0.0729  0.2832
   10loPI   C1A  151  17.223  15.714   8.754  0.4359 -0.1109  0.1510
   10loPI   C2A  152  17.245  15.628   8.318  0.3586 -0.2964  0.0627
   10loPI   C3A  153  17.107  15.574   7.934 -0.2309 -0.2015 -0.1043
   10loPI   C4A  154  16.995  15.841   7.601  0.0083 -0.3326 -0.1469
   10loPI   C5A  155  17.092  15.768   7.113  0.1983  0.2291 -0.1970
   10loPI   C6A  156  17.445  15.538   7.042 -0.2387  0.0592  0.1485
   10loPI   C1B  157  17.512  15.324   8.715 -0.3292 -0.0814  0.0107
   10loPI   C2B  158  17.529  15.205   8.276  0.0562 -0.2087 -0.0633
   10loPI   C3B  159  17.613  15.437   7.942 -0.0756  0.0207 -0.0875
   10loPI   C4B  160  17.285  15.414   7.501  0.0222  0.0150 -0.0272
   11loPI    C1  161  19.209   0.330   9.400 -0.0891  0.0810 -0.1540
   11loPI    C2  162  18.926   0.111   9.579  0.0936 -0.2952 -0.3154
   11loPI    C3  163  18.926   0.509   9.620 -0.1108 -0.3382  0.1721
   11loPI   PO4  164  19.399   0.121   9.278  0.0042  0.0366 -0.1435
   11loPI   GL1  165  19.632   0.069   8.973  0.3947  0.0178 -0.2915
   11loPI   GL2  166  19.737   0.386   8.854 -0.0119  0.1355  0.0836
   11loPI   C1A  167  19.495   0.050   8.498 -0.0311 -0.1392 -0.1469
   11loPI   C2A  168  19.333  -0.075   8.076  0.2249 -0.1022 -0.0822
   11loPI   C3A  169  19.350  -0.416   7.767 -0.1165 -0.2430  0.1572
   11loPI   C4A  170  19.396  -0.516   7.337 -0.2984 -0.1629 -0.2979
   11loPI   C5A  171  19.525  -0.351   6.894 -0.1578 -0.0353  0.0627
   11loPI   C6A  172  19.531  -0.107   6.542 -0.1729 -0.0317 -0.3675
   11loPI   C1B  173  19.724   0.504   8.479  0.2110  0.0414 -0.1835
   11loPI   C2B  174  19.722   0.425   8.140 -0.0671 -0.3389 -0.0441
   11loPI   C3B  175  19.805   0.333   7.731 -0.4280 -0.1043  0.2460
   11loPI   C4B  176  19.681  -0.139   7.591 -0.0137  0.1105  0.1523
   12loPI    C1  177   4.077   8.968   9.957 -0.1562 -0.0630  0.0334
   12loPI    C2  178   4.387   8.743   9.843 -0.0028  0.1685 -0.0112
   12loPI    C3  179   4.387   9.136   9.769 -0.2481  0.1921  0.1065
   12loPI   PO4  180   3.852   8.808   9.874  0.0595 -0.3536  0.3160
   12loPI   GL1  181   3.625   8.944   9.427  0.0544 -0.0973 -0.2866
   12loPI   GL2  182   3.437   8.682   9.258  0.1174  0.1200 -0.1797
   12loPI   C1A  183   3.468   9.070   9.014 -0.1647  0.2447 -0.0541
   12loPI   C2A  184   3.337   9.021   8.623 -0.3082  0.1773 -0.4175
   12loPI   C3A  185   3.236   8.721   8.224  0.2634 -0.1913 -0.2234
   12loPI   C4A  186   3.300   8.653   7.834 -0.1049  0.2581  0.0387
   12loPI   C5A  187   3.132   8.786   7.444 -0.0115  0.3848  0.1556
   12loPI   C6A  188   2.822   9.029   7.238 -0.0134  0.1287  0.0733
   12loPI   C1B  189   3.031   8.727   9.080  0.0208  0.1487 -0.1985
   12loPI   C2B  190   2.967   9.091   8.882  0.0080  0.0250 -0.1257
   12loPI   C3B  191   2.990   9.405   8.612 -0.1094 -0.0337  0.0533
   12loPI   C4B  192   2.698   9.680   8.503 -0.0772 -0.1719 -0.0688
   13loPI    C1  193  14.002  12.613   9.370  0.0859  0.0675 -0.0561
   13loPI    C2  194  14.112  12.244   9.264 -0.0346 -0.0093  0.0827
   13loPI    C3  195  14.168  12.369   9.639  0.4185  0.2715 -0.0700
   13loPI   PO4  196  14.167  12.723   9.173 -0.4095  0.1302 -0.0734
   13loPI   GL1  197  14.238  12.549   8.881  0.1111  0.0429  0.2504
   13loPI   GL2  198  13.778  12.596   8.906 -0.2108 -0.4368 -0.0476
   13loPI   C1A  199  14.188  12.602   8.454 -0.1234 -0.0150 -0.2586
   13loPI   C2A  200  13.986  12.767   8.074  0.1666  0.1362  0.1994
   13loPI   C3A  201  14.004  12.752   7.579  0.0607 -0.0792  0.0633
   13loPI   C4A  202  14.286  12.673   7.193  0.2180 -0.1573  0.1790
   13loPI   C5A  203  14.566  12.615   6.842  0.2437  0.4132  0.0969
   13loPI   C6A  204  14.893  12.833   6.672  0.0450 -0.2247  0.2244
   13loPI   C1B  205  13.515  12.907   8.875  0.1247 -0.1601 -0.0826
   13loPI   C2B  206  13.266  12.979   8.474  0.1241 -0.0557 -0.0323
   13loPI   C3B  207  13.164  13.143   8.083  0.0651  0.1547 -0.0738
   13loPI   C4B  208  13.076  13.309   7.689 -0.1519  0.0761  0.0971
   14loPI    C1  209  14.819  13.621   9.364  0.3111  0.0012  0.0445
   14loPI    C2  210  15.139  13.617   9.604  0.2828 -0.0250  0.0819
   14loPI    C3  211  14.860  13.332   9.638  0.1785  0.0848  0.1535
   14loPI   PO4  212  14.940  13.707   9.114 -0.2428 -0.0626  0.2496
   14loPI   GL1  213  15.250  13.675   8.761  0.3486  0.2045 -0.2669
   14loPI   GL2  214  14.937  13.507   8.689 -0.0035 -0.1955  0.1200
   14loPI   C1A  215  15.224  14.072   8.376 -0.1842 -0.1953  0.2354
   14loPI   C2A  216  15.248  14.432   8.331 -0.0812 -0.2542 -0.2920
   14loPI   C3A  217  15.067  14.771   8.142  0.1049  0.0576  0.0610
   14loPI   C4A  218  14.862  14.847   7.788 -0.0254  0.2549  0.1342
   14loPI   C5A  219  14.729  15.004   7.294  0.0220  0.3610 -0.1624
   14loPI   C6A  220  14.480  14.792   7.030 -0.3391 -0.0541  0.1811
   14loPI   C1B  221  15.036  13.614   8.248 -0.3980 -0.2461  0.0698
   14loPI   C2B  222  15.159  13.776   7.860  0.1694  0.1453 -0.0141
   14loPI   C3B  223  15.129  13.637   7.410  0.3784  0.1287 -0.2186
   14loPI   C4B  224  15.284  13.681   6.957 -0.2262  0.1636  0.0437
   15loPI    C1  225   9.704   0.805   9.627 -0.0228 -0.0159  0.0561
   15loPI    C2  226   9.775   0.456   9.444  0.0006  0.0371 -0.0368
   15loPI    C3  227  10.061   0.628   9.666 -0.0328 -0.0346  0.0627
   15loPI   PO4  228   9.469   0.969   9.602 -0.0179  0.0313 -0.2103
   15loPI   GL1  229   9.425   1.232   9.209  0.0601 -0.3817 -0.4089
   15loPI   GL2  230   9.031   1.285   9.146 -0.0351  0.1297 -0.1700
   15loPI   C1A  231   9.392   1.247   8.675  0.0960 -0.0228 -0.1451
   15loPI   C2A  232   9.754   1.179   8.464  0.0575  0.1052  0.1498
   15loPI   C3A  233   9.823   1.157   8.172  0.0328  0.0484 -0.0337
   15loPI   C4A  234  10.109   0.992   7.959 -0.0568  0.4175  0.1222
   15loPI   C5A  235  10.082   0.965   7.447 -0.0617 -0.0331 -0.1872
   15loPI   C6A  236  10.140   0.696   7.038 -0.0830  0.0209  0.0310
   15loPI   C1B  237   8.745   1.307   8.828  0.1516  0.0174  0.0972
   15loPI   C2B  238   8.376   1.360   8.588 -0.3727  0.0137 -0.2142
   15loPI   C3B  239   8.523   1.324   8.200 -0.2945  0.2436  0.3937
   15loPI   C4B  240   8.626   1.031   7.820 -0.3992 -0.0627 -0.3129
   16loPI    C1  241  10.706  14.410  10.137  0.2114  0.1344  0.4524
   16loPI    C2  242  10.438  14.622  10.345 -0.1149  0.1001  0.0810
   16loPI    C3  243  10.429  14.223  10.357 -0.1287  0.0982  0.0089
   16loPI   PO4  244  10.718  14.499   9.870  0.1201  0.3045 -0.0956
   16loPI   GL1  245  10.887  14.580   9.482  0.0834 -0.0232 -0.0124
   16loPI   GL2  246  11.169  14.536   9.403 -0.2282  0.3205 -0.0413
   16loPI   C1A  247  10.887  14.213   9.107  0.0924  0.2914  0.0939
   16loPI   C2A  248  10.749  13.913   8.790  0.0596  0.0931 -0.1058
   16loPI   C3A  249  10.774  13.770   8.433 -0.0555  0.0508 -0.2993
   16loPI   C4A  250  10.475  13.700   8.137  0.1523  0.1383 -0.2307
   16loPI   C5A  251  10.679  13.705   7.826 -0.0597  0.0185 -0.4804
   16loPI   C6A  252  10.510  13.555   7.408 -0.0553  0.0843 -0.0511
   16loPI   C1B  253  11.036  14.772   9.037  0.4245 -0.2778 -0.0226
   16loPI   C2B  254  11.070  15.206   8.934 -0.0088 -0.1828 -0.1289
   16loPI   C3B  255  11.132  15.378   8.595 -0.1930  0.0819  0.0333
   16loPI   C4B  256  11.145  15.458   8.147  0.1873 -0.3712 -0.0522
   17loPI    C1  257  11.284   9.498   9.685  0.0108 -0.0806 -0.0035
   17loPI    C2  258  11.068   9.170   9.759 -0.0158 -0.0955 -0.1453
   17loPI    C3  259  11.110   9.450  10.041 -0.0973 -0.1620 -0.0668
   17loPI   PO4  260  11.289   9.499   9.418 -0.0507  0.0124 -0.3195
   17loPI   GL1  261  11.388   9.747   9.093 -0.0060 -0.4203  0.1324
   17loPI   GL2  262  11.024   9.538   8.984 -0.1650  0.1104  0.0550
   17loPI   C1A  263  11.500   9.534   8.688  0.2334 -0.2487  0.0339
   17loPI   C2A  264  11.583   9.507   8.256 -0.1263  0.0715  0.1607
   17loPI   C3A  265  11.587   9.531   7.756  0.2237  0.1225 -0.0936
   17loPI   C4A  266  11.672   9.739   7.334 -0.0788  0.0715 -0.1816
   17loPI   C5A  267  11.936  10.040   7.134  0.0809 -0.0081 -0.1857
   17loPI   C6A  268  12.274  10.123   6.911 -0.1647  0.1630  0.2012
   17loPI   C1B  269  11.029   9.420   8.517 -0.0704 -0.1246  0.1180
   17loPI   C2B  270  11.204   9.227   8.130 -0.1134  0.0639 -0.0316
   17loPI   C3B  271  11.319   9.052   7.695  0.0091  0.0929 -0.0433
   17loPI   C4B  272  11.049   9.182   7.384  0.1887  0.3234  0.2029
   18loPI    C1  273  19.267   9.476  10.077 -0.0992  0.0492  0.1195
   18loPI    C2  274  19.630   9.556  10.225 -0.0641 -0.2004  0.1732
   18loPI    C3  275  19.503   9.178  10.202 -0.1800 -0.1436 -0.1773
   18loPI   PO4  276  19.286   9.615   9.818 -0.0345  0.0058 -0.1015
   18loPI   GL1  277  19.529   9.799   9.448  0.0774 -0.0269 -0.0437
   18loPI   GL2  278  19.622  10.152   9.603  0.1182 -0.0645 -0.0138
   18loPI   C1A  279  19.730  10.068   9.092 -0.0737 -0.2676  0.0505
   18loPI   C2A  280  19.986  10.110   8.688 -0.2331 -0.3362  0.0987
   18loPI   C3A  281  20.438   9.978   8.489  0.3144 -0.0694  0.0716
   18loPI   C4A  282  20.767   9.986   8.161  0.2837  0.1394  0.0196
   18loPI   C5A  283  20.823   9.554   7.973  0.0945 -0.0786 -0.1492
   18loPI   C6A  284  21.045   9.412   7.600 -0.1519  0.1334  0.1601
   18loPI   C1B  285  19.296  10.243   9.297  0.0941 -0.0263  0.2716
   18loPI   C2B  286  19.122  10.285   8.860  0.0624 -0.0418 -0.2014
   18loPI   C3B  287  18.981  10.132   8.534  0.0359  0.0340  0.0115
   18loPI   C4B  288  18.880   9.994   8.081  0.1132  0.0499 -0.4819
   19loPI    C1  289  14.181  15.484   9.760  0.0041 -0.0536  0.0608
   19loPI    C2  290  14.057  15.525  10.139  0.2079  0.0714  0.1155
   19loPI    C3  291  14.412  15.673  10.027  0.0520  0.2325 -0.1777
   19loPI   PO4  292  14.046  15.591   9.576  0.0927 -0.0264 -0.0618
   19loPI   GL1  293  13.678  15.760   9.285  0.2635 -0.1439 -0.2561
   19loPI   GL2  294  13.968  15.653   9.096 -0.2638  0.0360  0.0274
   19loPI   C1A  295  13.442  16.150   9.212  0.1373  0.1523  0.0218
   19loPI   C2A  296  13.197  16.142   8.868 -0.1106  0.2214  0.3657
   19loPI   C3A  297  12.870  16.108   8.564  0.1602 -0.0395 -0.1768
   19loPI   C4A  298  12.867  15.899   8.208 -0.0667 -0.0891 -0.0253
   19loPI   C5A  299  13.135  15.512   8.100 -0.2035 -0.1796 -0.1099
   19loPI   C6A  300  13.004  15.148   7.991  0.1309  0.0816 -0.0455
   19loPI   C1B  301  13.714  15.767   8.766  0.0539 -0.2020 -0.2964
   19loPI   C2B  302  13.577  16.253   8.556  0.0668  0.0681 -0.1677
   19loPI   C3B  303  13.505  16.564   8.192 -0.1170  0.2617 -0.4742
   19loPI   C4B  304  13.359  16.465   7.798  0.0172  0.2260  0.2047
   20loPI    C1  305  15.985  17.124   9.288 -0.1027 -0.0258  0.3952
   20loPI    C2  306  15.989  16.730   9.361 -0.0353 -0.1054 -0.0101
   20loPI    C3  307  16.329  16.920   9.272 -0.0439  0.0778  0.3300
   20loPI   PO4  308  15.726  17.201   9.256 -0.1809 -0.0053 -0.0066
   20loPI   GL1  309  15.668  16.800   9.008 -0.5242  0.0329  0.0207
   20loPI   GL2  310  15.642  17.017   8.759 -0.2218 -0.0142 -0.4866
   20loPI   C1A  311  16.133  16.833   8.809 -0.2017 -0.0765  0.2783
   20loPI   C2A  312  16.242  16.779   8.372 -0.1909  0.1409  0.1852
   20loPI   C3A  313  16.133  16.963   8.028  0.3234  0.0109  0.0552
   20loPI   C4A  314  16.050  17.183   7.697  0.0997 -0.2629  0.1656
   20loPI   C5A  315  16.286  17.228   7.392  0.1605 -0.0914 -0.2560
   20loPI   C6A  316  16.535  17.456   7.180  0.1852  0.1536  0.1660
   20loPI   C1B  317  15.746  16.742   8.463  0.1891  0.0196  0.0662
   20loPI   C2B  318  15.703  16.718   7.942  0.1047  0.3458  0.3849
   20loPI   C3B  319  15.786  16.530   7.507  0.0823  0.1464  0.4019
   20loPI   C4B  320  15.771  16.298   7.200  0.2666  0.1382 -0.0955
   21loPI    C1  321   0.269  10.434  10.177  0.0209 -0.1889 -0.0568
   21loPI    C2  322   0.442  10.618  10.488 -0.1863 -0.0989  0.0068
   21loPI    C3  323   0.140  10.363  10.549 -0.1775 -0.1391 -0.1153
   21loPI   PO4  324   0.124  10.566   9.993  0.0238 -0.2869  0.1995
   21loPI   GL1  325   0.266  10.722   9.610 -0.2608  0.0135 -0.2946
   21loPI   GL2  326   0.441  10.930   9.373  0.3245  0.3329 -0.2013
   21loPI   C1A  327   0.368  10.441   9.311 -0.1103 -0.0211  0.0746
   21loPI   C2A  328   0.680  10.415   9.020 -0.0548  0.2958  0.1433
   21loPI   C3A  329   0.853  10.446   8.592 -0.2312  0.0970  0.1783
   21loPI   C4A  330   0.743  10.316   8.130  0.0602  0.1891  0.0374
   21loPI   C5A  331   0.485  10.241   7.716 -0.3813 -0.2147 -0.0944
   21loPI   C6A  332   0.330  10.156   7.293  0.0032  0.2664  0.4998
   21loPI   C1B  333   0.323  10.830   8.950 -0.1119  0.2356 -0.0490
   21loPI   C2B  334   0.427  10.644   8.531  0.0710 -0.1606  0.2254
   21loPI   C3B  335   0.724  10.894   8.239 -0.1348  0.2556  0.0635
   21loPI   C4B  336   0.800  10.846   7.844  0.0838 -0.1372 -0.0255
   22loPI    C1  337  11.189  10.012   9.489 -0.1162 -0.1834  0.0975
   22loPI    C2  338  11.150   9.963   9.884  0.0994  0.1684  0.1673
   22loPI    C3  339  11.339  10.285   9.741 -0.0347  0.0771 -0.2264
   22loPI   PO4  340  10.888   9.963   9.341  0.0005  0.2186 -0.1379
   22loPI   GL1  341  10.924  10.043   8.884  0.3088  0.0803 -0.0347
   22loPI   GL2  342  11.211  10.172   8.919  0.2417 -0.0493  0.2051
   22loPI   C1A  343  11.034   9.908   8.478  0.3170 -0.0110  0.1791
   22loPI   C2A  344  11.175   9.747   8.069 -0.0432  0.1329  0.2206
   22loPI   C3A  345  11.010   9.579   7.727 -0.5006  0.0362 -0.1801
   22loPI   C4A  346  10.983   9.669   7.288  0.2253 -0.1250 -0.2473
   22loPI   C5A  347  11.324   9.870   6.994 -0.0980  0.0855 -0.2889
   22loPI   C6A  348  11.580   9.869   6.813 -0.0689 -0.1124  0.3707
   22loPI   C1B  349  11.438  10.216   8.559  0.0828 -0.1815  0.0292
   22loPI   C2B  350  11.566  10.054   8.271 -0.0588  0.2477  0.1473
   22loPI   C3B  351  11.764  10.197   7.907  0.1753  0.1863 -0.0251
   22loPI   C4B  352  11.627  10.527   7.717 -0.1978  0.1104  0.2456
   23loPI    C1  353  10.409   2.097   9.290  0.3596  0.0162 -0.2986
   23loPI    C2  354  10.680   1.820   9.391  0.0424 -0.1563  0.1132
   23loPI    C3  355  10.719   2.196   9.523  0.2216 -0.1138 -0.0553
   23loPI   PO4  356  10.180   1.947   9.265  0.0162  0.0797  0.2912
   23loPI   GL1  357  10.156   1.882   8.836 -0.0329  0.1454 -0.1276
   23loPI   GL2  358   9.838   2.082   8.902  0.0380  0.1431  0.0232
   23loPI   C1A  359  10.000   1.710   8.501 -0.4036  0.3125 -0.4715
   23loPI   C2A  360   9.985   1.660   8.121  0.0008  0.1721 -0.1214
   23loPI   C3A  361  10.009   1.421   7.716 -0.1170  0.0915 -0.1136
   23loPI   C4A  362   9.968   1.393   7.332  0.1069  0.0064  0.1981
   23loPI   C5A  363  10.155   1.182   6.927  0.0250 -0.1246 -0.0332
   23loPI   C6A  364   9.966   0.959   6.625 -0.0922 -0.0296  0.1256
   23loPI   C1B  365   9.690   2.151   8.387 -0.2981 -0.1004 -0.1538
   23loPI   C2B  366   9.621   2.031   7.976 -0.2945 -0.0693 -0.0981
   23loPI   C3B  367   9.821   1.871   7.530  0.3729 -0.1481  0.0817
   23loPI   C4B  368   9.776   1.999   7.062  0.1731  0.0158  0.1187
   24loPI    C1  369   5.149  19.030   9.599  0.1180  0.0460  0.3234
   24loPI    C2  370   5.060  18.694   9.798 -0.0547 -0.0622  0.0688
   24loPI    C3  371   5.282  18.978   9.973  0.2131 -0.3683  0.2361
   24loPI   PO4  372   5.265  18.845   9.253  0.0432 -0.2736 -0.1010
   24loPI   GL1  373   5.086  19.038   8.742 -0.0580  0.5769 -0.1688
   24loPI   GL2  374   4.761  19.186   8.740 -0.0999 -0.1624  0.0009
   24loPI   C1A  375   5.317  18.899   8.482 -0.1297  0.0935  0.2188
   24loPI   C2A  376   5.379  18.830   8.026 -0.1721  0.1890 -0.2863
   24loPI   C3A  377   5.572  18.812   7.611 -0.1391  0.2362 -0.0150
   24loPI   C4A  378   5.885  19.018   7.241  0.1317  0.1699 -0.1991
   24loPI   C5A  379   5.890  18.969   6.853 -0.0757 -0.0344  0.1362
   24loPI   C6A  380   6.338  18.942   6.753  0.1175 -0.1265 -0.1348
   24loPI   C1B  381   4.970  19.203   8.296 -0.3407 -0.0093  0.0957
   24loPI   C2B  382   4.865  19.195   7.875 -0.1048 -0.1821 -0.0110
   24loPI   C3B  383   5.026  18.899   7.482  0.4063 -0.2116 -0.1096
   24loPI   C4B  384   4.947  18.880   7.104 -0.0080 -0.2682 -0.0418
   25loPI    C1  385   5.905  16.681   9.547 -0.0281 -0.0423  0.0982
   25loPI    C2  386   5.734  16.688   9.909 -0.0380 -0.1514  0.0956
   25loPI    C3  387   5.693  17.000   9.663 -0.1347 -0.1281  0.1410
   25loPI   PO4  388   5.790  16.423   9.477  0.1210  0.4254  0.1837
   25loPI   GL1  389   5.990  16.240   9.208  0.0507  0.1433  0.1800
   25loPI   GL2  390   5.949  16.633   9.055 -0.0316 -0.0822 -0.0683
   25loPI   C1A  391   5.952  16.169   8.879 -0.0606  0.0441 -0.1509
   25loPI   C2A  392   5.770  16.500   8.588  0.0135  0.0654 -0.0958
   25loPI   C3A  393   5.748  16.662   8.185  0.0989 -0.1127  0.0306
   25loPI   C4A  394   5.783  16.989   8.043 -0.1230 -0.2218 -0.2740
   25loPI   C5A  395   5.530  16.937   7.734 -0.3045  0.0061  0.0784
   25loPI   C6A  396   5.194  16.554   7.740 -0.0425  0.3794 -0.3326
   25loPI   C1B  397   6.278  16.513   8.812 -0.0423  0.1764 -0.2715
   25loPI   C2B  398   6.286  16.415   8.411  0.3285 -0.1266 -0.0353
   25loPI   C3B  399   6.142  16.540   7.957 -0.0590 -0.2132 -0.1667
   25loPI   C4B  400   6.249  16.493   7.467  0.1783 -0.2237  0.0921
   26loPI    C1  401  13.098   2.608   9.468 -0.1024  0.0280  0.2580
   26loPI    C2  402  13.079   2.574   9.866  0.1639  0.0910  0.2782
   26loPI    C3  403  13.385   2.768   9.696 -0.0205  0.1858  0.0482
   26loPI   PO4  404  13.084   2.404   9.355  0.3707 -0.2747 -0.1602
   26loPI   GL1  405  12.954   2.383   8.910 -0.0837  0.3423  0.2139
   26loPI   GL2  406  13.322   2.462   8.908  0.2103 -0.1862  0.2631
   26loPI   C1A  407  13.047   2.226   8.572 -0.0266 -0.0767  0.0745
   26loPI   C2A  408  13.292   2.188   8.135  0.2500  0.2415  0.2705
   26loPI   C3A  409  13.461   2.294   7.813 -0.1042  0.2219 -0.1861
   26loPI   C4A  410  13.604   2.409   7.371 -0.4129  0.0591  0.2023
   26loPI   C5A  411  13.505   2.811   7.141 -0.0897  0.2655 -0.0396
   26loPI   C6A  412  13.177   3.036   7.074 -0.0330 -0.0488 -0.0803
   26loPI   C1B  413  13.517   2.486   8.464  0.0251  0.0729  0.3028
   26loPI   C2B  414  13.843   2.230   8.210  0.2620 -0.0147 -0.0245
   26loPI   C3B  415  13.954   2.194   7.845 -0.2087  0.2017  0.0224
   26loPI   C4B  416  14.304   1.901   7.695 -0.2070 -0.0694  0.0462
   27loPI    C1  417   5.229   7.151   9.921 -0.0520  0.1068 -0.3718
   27loPI    C2  418   5.233   6.804  10.119 -0.1610  0.2594 -0.0964
   27loPI    C3  419   5.564   6.932   9.935 -0.0452  0.1354  0.0227
   27loPI   PO4  420   4.896   7.142   9.817 -0.0651 -0.2118 -0.0901
   27loPI   GL1  421   4.834   7.136   9.362 -0.0686 -0.3401 -0.0907
   27loPI   GL2  422   4.611   6.917   9.239  0.1775 -0.1759  0.1035
   27loPI   C1A  423   5.052   7.143   8.923 -0.0169  0.0440  0.0258
   27loPI   C2A  424   4.975   7.221   8.393 -0.2037  0.0978  0.2644
   27loPI   C3A  425   5.033   7.373   7.906 -0.0555 -0.0632  0.0816
   27loPI   C4A  426   5.195   7.278   7.442 -0.2084 -0.2681  0.3111
   27loPI   C5A  427   5.230   7.436   7.020 -0.2187  0.0207 -0.0680
   27loPI   C6A  428   5.012   7.569   6.814  0.2327 -0.1237 -0.0079
   27loPI   C1B  429   4.505   7.020   8.861 -0.1566 -0.0598  0.1470
   27loPI   C2B  430   4.530   6.935   8.389  0.1281 -0.1520 -0.1011
   27loPI   C3B  431   4.707   6.886   7.990 -0.1461 -0.2182 -0.3778
   27loPI   C4B  432   4.758   7.085   7.588 -0.2033 -0.3215 -0.2169
   28loPI    C1  433  18.192  16.197   9.342  0.2560  0.0924  0.1989
   28loPI    C2  434  17.920  16.423   9.530  0.3792  0.3083  0.1216
   28loPI    C3  435  18.174  16.197   9.742  0.2058  0.1810  0.1969
   28loPI   PO4  436  18.102  16.087   9.162 -0.2586 -0.2054  0.0313
   28loPI   GL1  437  17.992  15.871   8.905 -0.2930  0.0175  0.0089
   28loPI   GL2  438  17.901  16.269   8.780 -0.0603 -0.1138 -0.2155
   28loPI   C1A  439  17.717  15.842   8.574  0.1417  0.1597  0.0124
   28loPI   C2A  440  17.636  15.922   8.191 -0.1481  0.4035  0.2246
   28loPI   C3A  441  17.580  15.889   7.834 -0.1303  0.1211 -0.2701
   28loPI   C4A  442  17.464  15.874   7.437 -0.0467 -0.0483 -0.0524
   28loPI   C5A  443  17.653  16.118   7.043  0.0787 -0.1073  0.1974
   28loPI   C6A  444  17.560  16.241   6.652 -0.1977 -0.0778 -0.1247
   28loPI   C1B  445  17.824  16.348   8.434 -0.1508 -0.0839 -0.0505
   28loPI   C2B  446  17.797  16.485   8.063 -0.1722  0.1731  0.0475
   28loPI   C3B  447  17.894  16.745   7.672 -0.4499 -0.0301 -0.2849
   28loPI   C4B  448  17.841  17.023   7.311  0.2846 -0.1836 -0.2231
   29loPI    C1  449   5.021   4.892   9.803  0.0207  0.2457  0.1990
   29loPI    C2  450   5.317   4.962  10.063  0.2250 -0.4782  0.1820
   29loPI    C3  451   5.193   4.588   9.997 -0.4320 -0.2241 -0.1108
   29loPI   PO4  452   5.107   5.071   9.537 -0.0183 -0.2343 -0.1701
   29loPI   GL1  453   4.979   4.861   9.179  0.3709 -0.2696  0.1040
   29loPI   GL2  454   5.188   5.069   9.075  0.1321  0.2001 -0.1261
   29loPI   C1A  455   4.602   4.916   9.019 -0.0907  0.0997  0.0913
   29loPI   C2A  456   4.200   4.789   8.847  0.3005 -0.0985 -0.0020
   29loPI   C3A  457   3.964   4.664   8.541  0.0936  0.0053 -0.1762
   29loPI   C4A  458   3.818   4.766   8.027  0.3493  0.2379  0.1157
   29loPI   C5A  459   3.799   4.635   7.618  0.3508 -0.1023 -0.0012
   29loPI   C6A  460   3.702   4.304   7.421 -0.1241  0.1451 -0.1983
   29loPI   C1B  461   4.992   5.301   8.827 -0.1090  0.1455 -0.1742
   29loPI   C2B  462   4.939   5.541   8.646  0.3774  0.2358 -0.1970
   29loPI   C3B  463   4.842   5.747   8.236  0.2222  0.3026  0.1013
   29loPI   C4B  464   4.914   6.153   8.077 -0.1493  0.2365 -0.1653
   30loPI    C1  465   4.946  16.813   9.335  0.1004  0.0031 -0.0521
   30loPI    C2  466   5.159  17.032   9.593  0.3476 -0.1928 -0.0856
   30loPI    C3  467   4.851  16.813   9.723  0.0152  0.2700 -0.0714
   30loPI   PO4  468   4.882  16.983   9.143 -0.0479  0.2185  0.1835
   30loPI   GL1  469   4.999  17.296   8.776  0.1335  0.0405  0.1405
   30loPI   GL2  470   5.083  17.603   8.846  0.4946  0.0513  0.2488
   30loPI   C1A  471   5.110  17.234   8.416  0.1636 -0.0718 -0.1197
   30loPI   C2A  472   5.405  17.279   8.152 -0.0891  0.4320  0.1157
   30loPI   C3A  473   5.394  17.457   7.684  0.3523  0.1978  0.1543
   30loPI   C4A  474   5.559  17.411   7.212 -0.0171 -0.0775 -0.1625
   30loPI   C5A  475   5.293  17.288   6.879 -0.1743 -0.1358 -0.0498
   30loPI   C6A  476   5.232  16.974   6.592  0.3364  0.2883 -0.0240
   30loPI   C1B  477   5.044  17.788   8.420 -0.1232  0.0241  0.4531
   30loPI   C2B  478   5.160  17.779   8.039 -0.0391 -0.2628 -0.2993
   30loPI   C3B  479   4.941  17.452   7.929  0.0312 -0.0102  0.0305
   30loPI   C4B  480   4.627  17.274   7.675  0.2277  0.1724  0.1960
   31loPI    C1  481   5.493   8.421   9.770  0.2680 -0.0907  0.0247
   31loPI    C2  482   5.763   8.715   9.748 -0.0389  0.1968  0.0294
   31loPI    C3  483   5.688   8.539  10.099  0.2143  0.0429  0.0089
   31loPI   PO4  484   5.485   8.347   9.509 -0.3650 -0.1045  0.3391
   31loPI   GL1  485   5.701   8.318   9.222  0.0097 -0.1563 -0.0385
   31loPI   GL2  486   5.434   7.955   9.198  0.3275 -0.1369 -0.1664
   31loPI   C1A  487   5.862   8.435   8.824 -0.0682  0.2040 -0.1247
   31loPI   C2A  488   6.026   8.409   8.452  0.0950  0.2461  0.2993
   31loPI   C3A  489   5.857   8.479   8.059  0.0086  0.2384 -0.0428
   31loPI   C4A  490   6.004   8.446   7.637 -0.2250  0.0449  0.0498
   31loPI   C5A  491   6.384   8.311   7.327  0.0395  0.1739 -0.1203
   31loPI   C6A  492   6.833   8.214   7.106  0.2116 -0.0585  0.2027
   31loPI   C1B  493   5.479   7.999   8.713 -0.3190 -0.0740 -0.1807
   31loPI   C2B  494   5.563   8.063   8.296 -0.2657 -0.1694  0.2924
   31loPI   C3B  495   5.322   8.059   7.909  0.2082 -0.0892  0.1832
   31loPI   C4B  496   5.254   7.761   7.629  0.0605  0.2017  0.2254
   32loPI    C1  497   6.913   1.233   9.713  0.1754  0.1443  0.0931
   32loPI    C2  498   7.252   1.228   9.925  0.1412  0.0552  0.1464
   32loPI    C3  499   6.900   1.267  10.112  0.1174  0.0777  0.0971
   32loPI   PO4  500   7.005   1.318   9.474 -0.1354  0.0881 -0.0328
   32loPI   GL1  501   7.142   1.466   9.163  0.2994  0.1813  0.0339
   32loPI   GL2  502   7.448   1.335   9.019 -0.0592 -0.0578 -0.1662
   32loPI   C1A  503   7.054   1.494   8.711  0.1695 -0.1005 -0.1145
   32loPI   C2A  504   7.149   1.502   8.357 -0.0939 -0.1273  0.0068
   32loPI   C3A  505   7.174   1.541   7.957  0.0428  0.0146 -0.0351
   32loPI   C4A  506   7.426   1.438   7.585 -0.4905  0.2864 -0.3925
   32loPI   C5A  507   7.565   1.654   7.343  0.0270  0.2713  0.0862
   32loPI   C6A  508   7.368   1.948   7.113 -0.0738 -0.1997  0.0240
   32loPI   C1B  509   7.417   1.119   8.725  0.0284  0.1182  0.3939
   32loPI   C2B  510   7.505   1.070   8.274  0.2203  0.2287  0.1484
   32loPI   C3B  511   7.727   1.279   7.971  0.2192  0.0670 -0.2741
   32loPI   C4B  512   7.872   1.224   7.527 -0.1094 -0.0517  0.4704
   33loPI    C1  513  17.679   3.391   9.420  0.2686  0.1927  0.3833
   33loPI    C2  514  17.967   3.392   9.698  0.2720 -0.4639  0.3956
   33loPI    C3  515  17.936   3.086   9.441 -0.0323 -0.1000 -0.0177
   33loPI   PO4  516  17.428   3.376   9.484  0.2294 -0.0255  0.1302
   33loPI   GL1  517  17.274   3.694   9.254 -0.0534  0.1353  0.2131
   33loPI   GL2  518  17.585   3.829   9.145 -0.0509 -0.1247 -0.0215
   33loPI   C1A  519  17.468   3.515   8.818 -0.0797  0.0949 -0.0802
   33loPI   C2A  520  17.373   3.376   8.464  0.1247  0.0207 -0.1741
   33loPI   C3A  521  17.518   3.526   8.137  0.1101  0.0978 -0.2291
   33loPI   C4A  522  17.428   3.544   7.683 -0.4983  0.0778  0.2524
   33loPI   C5A  523  17.329   3.385   7.205  0.0558 -0.1005  0.3905
   33loPI   C6A  524  17.296   3.298   6.718  0.1970 -0.0907 -0.1175
   33loPI   C1B  525  17.555   4.109   8.775  0.0513  0.1786  0.0385
   33loPI   C2B  526  17.524   4.009   8.297  0.2570  0.0881  0.0059
   33loPI   C3B  527  17.361   4.048   7.887  0.0429 -0.0413 -0.5436
   33loPI   C4B  528  17.342   4.098   7.440 -0.4378  0.1713  0.0312
   34loPI    C1  529  18.461  17.439   9.536  0.0245 -0.2179 -0.1210
   34loPI    C2  530  18.722  17.632   9.770 -0.2046  0.1044 -0.1254
   34loPI    C3  531  18.425  17.422   9.934 -0.0129 -0.1685 -0.1222
   34loPI   PO4  532  18.490  17.517   9.297 -0.1237  0.2322  0.1174
   34loPI   GL1  533  18.339  17.777   8.963 -0.0648 -0.2289  0.4704
   34loPI   GL2  534  18.266  18.084   8.847 -0.1762  0.2633  0.1547
   34loPI   C1A  535  18.152  17.594   8.563  0.1766  0.1846 -0.1238
   34loPI   C2A  536  17.904  17.280   8.358 -0.1825 -0.0057  0.2711
   34loPI   C3A  537  17.768  17.094   8.021 -0.2687 -0.4471 -0.1675
   34loPI   C4A  538  17.532  17.134   7.680 -0.3574 -0.3030 -0.1893
   34loPI   C5A  539  17.345  17.130   7.281  0.0114 -0.0239  0.0354
   34loPI   C6A  540  17.017  17.505   7.083 -0.0696  0.1481  0.0986
   34loPI   C1B  541  18.312  18.045   8.364  0.1920  0.0150 -0.2679
   34loPI   C2B  542  18.254  18.161   7.920 -0.3563  0.1144 -0.0575
   34loPI   C3B  543  18.399  17.933   7.499  0.3684 -0.0137  0.2374
   34loPI   C4B  544  18.397  18.064   7.079 -0.1030  0.2020 -0.3314
   35loPI    C1  545  13.513  12.463   9.477  0.0346  0.2118  0.0142
   35loPI    C2  546  13.360  12.268   9.791  0.0912 -0.1430 -0.1728
   35loPI    C3  547  13.671  12.515   9.840  0.0750 -0.1660  0.0550
   35loPI   PO4  548  13.472  12.257   9.211 -0.0221 -0.3111 -0.1701
   35loPI   GL1  549  13.414  12.011   8.856  0.1148  0.4020 -0.0238
   35loPI   GL2  550  13.357  12.364   8.761  0.1780 -0.3081 -0.1671
   35loPI   C1A  551  13.289  11.946   8.387  0.0421 -0.1172  0.3075
   35loPI   C2A  552  13.348  11.973   7.941 -0.1772 -0.0215 -0.1903
   35loPI   C3A  553  13.302  11.936   7.529 -0.0425  0.2619 -0.1133
   35loPI   C4A  554  13.007  12.099   7.301 -0.1575 -0.0967  0.1491
   35loPI   C5A  555  12.606  12.332   7.072 -0.2348  0.3213  0.0640
   35loPI   C6A  556  12.304  12.558   6.845  0.0911 -0.1188 -0.1753
   35loPI   C1B  557  13.085  12.404   8.508 -0.1114  0.0170 -0.0389
   35loPI   C2B  558  13.107  12.379   8.042 -0.0938 -0.1218  0.0456
   35loPI   C3B  559  12.994  12.379   7.659 -0.2923 -0.3052 -0.0219
   35loPI   C4B  560  13.056  12.586   7.316 -0.4450 -0.0120  0.0435
   36loPI    C1  561   1.116   7.171   9.757 -0.0227  0.1601 -0.2679
   36loPI    C2  562   0.928   6.821   9.792  0.3153 -0.0209 -0.2175
   36loPI    C3  563   1.309   6.855   9.907  0.2170  0.4254 -0.0017
   36loPI   PO4  564   1.060   7.248   9.519 -0.0576  0.0160 -0.0773
   36loPI   GL1  565   1.047   7.210   9.025 -0.0169 -0.2372  0.3708
   36loPI   GL2  566   0.811   7.369   9.022  0.0852 -0.2190  0.4191
   36loPI   C1A  567   0.918   6.957   8.767 -0.0038 -0.2421 -0.3545
   36loPI   C2A  568   0.752   6.771   8.389 -0.0306 -0.1170  0.1007
   36loPI   C3A  569   0.649   6.551   8.003 -0.1504 -0.2725  0.0666
   36loPI   C4A  570   0.516   6.382   7.593  0.1552 -0.0007 -0.0505
   36loPI   C5A  571   0.256   6.561   7.288 -0.0821  0.1611  0.3447
   36loPI   C6A  572   0.334   6.743   6.949 -0.2509  0.1441  0.0175
   36loPI   C1B  573   0.826   7.415   8.487 -0.3180  0.0120 -0.3370
   36loPI   C2B  574   0.823   7.598   8.027 -0.2675  0.2871 -0.3510
   36loPI   C3B  575   0.966   7.458   7.611 -0.0917 -0.1489 -0.3692
   36loPI   C4B  576   1.076   7.145   7.272 -0.2122  0.4442  0.1280
   37loPI    C1  577  15.746   4.341   9.808  0.1294  0.1470  0.1309
   37loPI    C2  578  15.723   3.971   9.960 -0.3046  0.0988 -0.0397
   37loPI    C3  579  15.869   4.270  10.182  0.0638 -0.1740  0.0946
   37loPI   PO4  580  15.771   4.341   9.593 -0.1228  0.2686 -0.3420
   37loPI   GL1  581  15.873   4.287   9.219 -0.1217  0.0623 -0.4402
   37loPI   GL2  582  16.100   4.290   8.925 -0.3863 -0.1246  0.1518
   37loPI   C1A  583  15.583   4.180   8.883  0.0542 -0.1651  0.1194
   37loPI   C2A  584  15.325   4.027   8.600 -0.0366  0.1911  0.2357
   37loPI   C3A  585  15.097   3.940   8.332  0.0808 -0.0292  0.1520
   37loPI   C4A  586  15.041   4.026   7.822  0.1517  0.0123 -0.2870
   37loPI   C5A  587  15.108   3.787   7.455 -0.0988 -0.2243  0.2886
   37loPI   C6A  588  15.140   3.664   7.095 -0.0999  0.2482 -0.1982
   37loPI   C1B  589  15.854   4.220   8.457 -0.2818 -0.0502 -0.3310
   37loPI   C2B  590  15.944   3.962   8.105  0.2666 -0.0661 -0.2549
   37loPI   C3B  591  16.127   4.071   7.688  0.0336  0.0323 -0.1118
   37loPI   C4B  592  16.002   4.059   7.187  0.0663  0.2051  0.0439
   38loPI    C1  593   9.985   5.076   9.969 -0.1044  0.0206  0.0093
   38loPI    C2  594   9.924   5.469   9.931 -0.2053  0.0103  0.0607
   38loPI    C3  595   9.995   5.312  10.292  0.0427  0.0099  0.0135
   38loPI   PO4  596   9.800   4.969   9.753  0.2751 -0.1690 -0.0847
   38loPI   GL1  597   9.674   5.218   9.422  0.1532 -0.0190 -0.1725
   38loPI   GL2  598   9.475   5.010   9.271  0.2408 -0.0987  0.2315
   38loPI   C1A  599   9.764   5.374   9.045 -0.0810  0.3214 -0.0174
   38loPI   C2A  600   9.982   5.676   8.777  0.1660 -0.0397  0.3694
   38loPI   C3A  601  10.181   5.857   8.570 -0.0193  0.2608 -0.0022
   38loPI   C4A  602  10.252   5.778   8.098  0.0039  0.0019 -0.2158
   38loPI   C5A  603  10.175   5.467   7.703 -0.1295 -0.1354  0.1725
   38loPI   C6A  604  10.253   5.275   7.303  0.0132  0.0804 -0.1065
   38loPI   C1B  605   9.402   5.054   8.865 -0.2825 -0.5865  0.1759
   38loPI   C2B  606   9.555   5.195   8.400  0.1903  0.0614 -0.2008
   38loPI   C3B  607   9.478   4.953   8.033 -0.0763 -0.2984 -0.0483
   38loPI   C4B  608   9.501   4.981   7.640 -0.0911  0.1804  0.0201
   39loPI    C1  609  13.270  18.625  10.025  0.0496  0.0116 -0.2594
   39loPI    C2  610  12.949  18.831  10.146 -0.0059 -0.1489 -0.1281
   39loPI    C3  611  13.266  18.796  10.387  0.1284  0.0427 -0.2731
   39loPI   PO4  612  13.264  18.539   9.734  0.3280 -0.0784  0.3930
   39loPI   GL1  613  13.369  18.624   9.379 -0.2175 -0.0204 -0.0556
   39loPI   GL2  614  13.693  18.421   9.358  0.0492  0.0375 -0.2652
   39loPI   C1A  615  13.352  18.353   8.957 -0.0813  0.0605 -0.1205
   39loPI   C2A  616  13.432  17.998   8.697  0.3219 -0.0732 -0.0185
   39loPI   C3A  617  13.591  17.987   8.214  0.2045 -0.2042  0.2015
   39loPI   C4A  618  13.698  18.082   7.805  0.1550  0.2611 -0.1796
   39loPI   C5A  619  13.651  18.288   7.323 -0.1270 -0.1776  0.0774
   39loPI   C6A  620  13.703  18.469   6.938 -0.1029  0.1136 -0.2725
   39loPI   C1B  621  13.686  18.750   9.018 -0.0149  0.2485  0.0299
   39loPI   C2B  622  13.606  18.866   8.559  0.0661 -0.3570 -0.1399
   39loPI   C3B  623  13.534  18.930   8.129 -0.1431  0.0443  0.2520
   39loPI   C4B  624  13.676  19.029   7.725 -0.2071  0.2091  0.0516
   40loPI    C1  625  18.578  12.612   9.512  0.1524 -0.1319 -0.0910
   40loPI    C2  626  18.897  12.851   9.543  0.0614 -0.0255  0.0420
   40loPI    C3  627  18.688  12.754   9.870  0.0508 -0.2245 -0.0222
   40loPI   PO4  628  18.522  12.686   9.246  0.2104  0.1263 -0.1669
   40loPI   GL1  629  18.533  12.536   8.840 -0.0135 -0.0295 -0.0978
   40loPI   GL2  630  18.258  12.346   9.015  0.1621 -0.3868 -0.3211
   40loPI   C1A  631  18.871  12.484   8.587  0.1912 -0.0912  0.3429
   40loPI   C2A  632  19.029  12.153   8.271 -0.0921  0.0815  0.0460
   40loPI   C3A  633  18.898  12.183   7.952 -0.0258  0.0696  0.0817
   40loPI   C4A  634  18.823  12.191   7.526 -0.2439  0.0528 -0.0387
   40loPI   C5A  635  18.700  12.413   7.154  0.3934  0.0008  0.0280
   40loPI   C6A  636  18.666  12.899   7.059 -0.1793 -0.4480  0.2294
   40loPI   C1B  637  18.250  11.966   8.852  0.1883 -0.0602 -0.3047
   40loPI   C2B  638  17.828  11.894   8.582  0.3354  0.4507  0.1826
   40loPI   C3B  639  17.549  11.925   8.237  0.0274  0.0553  0.1113
   40loPI   C4B  640  17.513  11.880   7.784  0.1085 -0.0180 -0.1780
   41loPI    C1  641   4.163  18.541   9.002  0.0690 -0.1126 -0.1938
   41loPI    C2  642   4.428  18.247   8.942  0.1291 -0.0887 -0.0485
   41loPI    C3  643   4.305  18.333   9.313  0.0599  0.0243 -0.0971
   41loPI   PO4  644   4.323  18.780   8.889 -0.2817  0.2704  0.2052
   41loPI   GL1  645   4.362  18.976   8.480  0.0470 -0.0771  0.0911
   41loPI   GL2  646   4.023  18.961   8.278 -0.3106 -0.0431 -0.0678
   41loPI   C1A  647   4.436  18.899   8.044  0.0690 -0.4495  0.0510
   41loPI   C2A  648   4.443  18.684   7.708  0.0801 -0.1422  0.3614
   41loPI   C3A  649   4.534  18.647   7.265  0.1218  0.1018  0.2282
   41loPI   C4A  650   4.487  18.510   6.938 -0.1868  0.2872 -0.3718
   41loPI   C5A  651   4.688  18.157   6.736 -0.0331 -0.1966  0.0138
   41loPI   C6A  652   4.829  17.944   6.291 -0.0185 -0.2202  0.2126
   41loPI   C1B  653   3.994  18.575   8.017 -0.0788 -0.0581 -0.2169
   41loPI   C2B  654   3.828  18.427   7.667 -0.0703  0.0991  0.0600
   41loPI   C3B  655   3.585  18.273   7.385  0.1512  0.1069 -0.1071
   41loPI   C4B  656   3.510  18.087   7.002 -0.0207 -0.1664 -0.2435
   42loPI    C1  657  11.921   2.849   9.346  0.1726  0.0849  0.2076
   42loPI    C2  658  12.004   2.470   9.446  0.0469  0.0196  0.0682
   42loPI    C3  659  11.928   2.741   9.731 -0.0872 -0.1129  0.1600
   42loPI   PO4  660  12.117   2.871   9.165  0.1250  0.1791 -0.4531
   42loPI   GL1  661  12.219   2.754   8.792  0.2126  0.1515  0.0174
   42loPI   GL2  662  12.480   2.599   8.879  0.0110 -0.4063  0.2718
   42loPI   C1A  663  12.210   2.380   8.505 -0.0096  0.2146  0.4152
   42loPI   C2A  664  12.359   2.196   8.006  0.2343  0.1072  0.4280
   42loPI   C3A  665  12.561   2.089   7.534  0.2708 -0.3131  0.1792
   42loPI   C4A  666  12.711   2.150   7.065  0.1230 -0.0245 -0.1958
   42loPI   C5A  667  12.587   2.281   6.760  0.1987 -0.4574  0.1465
   42loPI   C6A  668  12.374   2.594   6.530  0.1237 -0.1433  0.0012
   42loPI   C1B  669  12.619   2.629   8.445 -0.2051  0.3380 -0.2807
   42loPI   C2B  670  12.808   2.359   7.998 -0.4419 -0.3875 -0.0030
   42loPI   C3B  671  13.055   2.186   7.594 -0.1050 -0.0989 -0.0001
   42loPI   C4B  672  13.257   2.037   7.267 -0.3842  0.0208  0.1970
   43loPI    C1  673  12.939   4.263  10.040 -0.1847 -0.0115 -0.1833
   43loPI    C2  674  12.651   4.453   9.839  0.0622  0.5811  0.0008
   43loPI    C3  675  12.699   4.521  10.230  0.0156 -0.0470  0.1259
   43loPI   PO4  676  13.224   4.422   9.811 -0.0462  0.0017 -0.0751
   43loPI   GL1  677  13.405   4.540   9.486 -0.1095 -0.0867  0.1895
   43loPI   GL2  678  13.090   4.335   9.338 -0.3134  0.1882  0.0834
   43loPI   C1A  679  13.377   4.410   8.977  0.1193 -0.0151  0.0560
   43loPI   C2A  680  13.186   4.241   8.597 -0.1968 -0.3959 -0.0778
   43loPI   C3A  681  12.853   4.292   8.401  0.2466  0.0766 -0.3046
   43loPI   C4A  682  12.633   4.182   8.103  0.1964  0.4202 -0.2642
   43loPI   C5A  683  12.629   4.273   7.750  0.4825 -0.1371  0.0067
   43loPI   C6A  684  12.390   4.697   7.610  0.0671 -0.0970  0.0159
   43loPI   C1B  685  12.862   4.270   8.970  0.0947  0.1284  0.2666
   43loPI   C2B  686  12.809   3.904   8.879  0.2629  0.0438 -0.2537
   43loPI   C3B  687  13.030   3.774   8.549 -0.1015  0.3174 -0.0734
   43loPI   C4B  688  13.425   3.924   8.290  0.1922  0.3009 -0.0055
   44loPI    C1  689   7.046   2.836   9.498 -0.0832 -0.4174  0.1635
   44loPI    C2  690   7.441   2.876   9.549 -0.0856 -0.1150 -0.0282
   44loPI    C3  691   7.190   2.959   9.850 -0.0106 -0.1863  0.0547
   44loPI   PO4  692   7.019   2.740   9.294  0.2627  0.0079  0.2712
   44loPI   GL1  693   7.108   2.697   8.911 -0.2815  0.0019  0.0613
   44loPI   GL2  694   7.384   2.867   9.007 -0.1553  0.1364  0.0083
   44loPI   C1A  695   7.195   2.438   8.439  0.1505 -0.1254 -0.0336
   44loPI   C2A  696   7.387   2.467   8.001  0.0739 -0.0686 -0.0987
   44loPI   C3A  697   7.557   2.644   7.626  0.0251 -0.3941  0.2731
   44loPI   C4A  698   7.710   2.902   7.344 -0.1101 -0.1384 -0.0698
   44loPI   C5A  699   7.722   3.127   6.954 -0.2449  0.2364 -0.1813
   44loPI   C6A  700   7.798   3.278   6.531  0.1477  0.0517 -0.0954
   44loPI   C1B  701   7.430   2.884   8.499 -0.0575  0.0292 -0.2412
   44loPI   C2B  702   7.676   2.885   8.178 -0.0920 -0.0518  0.0468
   44loPI   C3B  703   7.717   3.087   7.848 -0.0123  0.3741  0.1651
   44loPI   C4B  704   7.516   3.369   7.543 -0.0698  0.0393  0.2073
   45loPI    C1  705   3.889  13.306   9.729 -0.1204  0.2767 -0.0197
   45loPI    C2  706   3.832  13.216  10.115 -0.0630  0.1838 -0.0323
   45loPI    C3  707   4.092  13.004   9.897 -0.2036  0.1411 -0.1601
   45loPI   PO4  708   3.623  13.405   9.707  0.1942  0.3789 -0.3540
   45loPI   GL1  709   3.302  13.381   9.432 -0.5712  0.0840  0.1697
   45loPI   GL2  710   3.358  13.039   9.351  0.1638 -0.0189 -0.2561
   45loPI   C1A  711   3.305  13.495   9.061  0.0302  0.2741  0.1541
   45loPI   C2A  712   3.129  13.585   8.686  0.1894 -0.2343  0.2358
   45loPI   C3A  713   3.331  13.526   8.255 -0.0067  0.1530 -0.1244
   45loPI   C4A  714   3.384  13.305   7.861  0.0063  0.2805 -0.4331
   45loPI   C5A  715   3.339  13.364   7.490  0.4819  0.2061  0.1654
   45loPI   C6A  716   3.489  13.690   7.363 -0.0680 -0.2894 -0.3218
   45loPI   C1B  717   3.613  13.084   8.982  0.0198 -0.0670  0.0272
   45loPI   C2B  718   3.443  13.151   8.541 -0.3891  0.1686 -0.4829
   45loPI   C3B  719   3.170  12.979   8.228 -0.0621 -0.3291 -0.2137
   45loPI   C4B  720   3.121  12.934   7.742 -0.2313  0.2092 -0.1768
   46loPI    C1  721   8.878  15.214   9.734  0.0009  0.0029  0.1372
   46loPI    C2  722   8.485  15.140   9.719  0.0610 -0.3192  0.0809
   46loPI    C3  723   8.665  15.197  10.072 -0.1339  0.4114  0.0780
   46loPI   PO4  724   8.910  15.284   9.477  0.2170 -0.4182  0.0014
   46loPI   GL1  725   8.830  15.269   9.075 -0.0493  0.1210  0.4043
   46loPI   GL2  726   9.186  15.213   9.089  0.0179 -0.1810 -0.1420
   46loPI   C1A  727   8.916  15.172   8.622  0.1587 -0.0985  0.3593
   46loPI   C2A  728   9.043  14.884   8.156 -0.3926  0.0855 -0.0622
   46loPI   C3A  729   9.085  14.929   7.717 -0.2028 -0.0884 -0.0325
   46loPI   C4A  730   9.025  15.080   7.344  0.0490 -0.1219  0.1427
   46loPI   C5A  731   8.736  15.116   6.992  0.1987  0.1475  0.5001
   46loPI   C6A  732   8.586  15.088   6.510 -0.1452  0.3006 -0.2107
   46loPI   C1B  733   9.400  15.274   8.775 -0.0592 -0.1455  0.3191
   46loPI   C2B  734   9.456  15.132   8.356  0.0054  0.0545  0.0616
   46loPI   C3B  735   9.511  15.123   7.924  0.0342  0.2449  0.0256
   46loPI   C4B  736   9.736  14.975   7.653 -0.1635  0.3115 -0.0261
   47loPI    C1  737  14.028  11.745   9.472  0.1725  0.2023  0.1153
   47loPI    C2  738  13.761  11.884   9.208  0.0522 -0.0356  0.1086
   47loPI    C3  739  13.782  12.043   9.575 -0.2354 -0.1457  0.1749
   47loPI   PO4  740  14.194  11.705   9.286  0.0400 -0.3069  0.0991
   47loPI   GL1  741  14.239  11.704   8.765 -0.0205  0.3846  0.1077
   47loPI   GL2  742  14.378  11.969   8.566  0.1328  0.0639 -0.1542
   47loPI   C1A  743  13.952  12.157   8.634 -0.2863  0.1697  0.3769
   47loPI   C2A  744  13.724  12.502   8.424  0.1053 -0.0064  0.1115
   47loPI   C3A  745  13.457  12.736   8.075 -0.3697  0.0967 -0.2236
   47loPI   C4A  746  13.347  12.865   7.639 -0.4627 -0.0176  0.1479
   47loPI   C5A  747  13.398  13.076   7.158  0.3562  0.0156 -0.1159
   47loPI   C6A  748  13.269  13.015   6.727  0.0554 -0.1865 -0.3616
   47loPI   C1B  749  14.251  12.125   8.269  0.0342  0.0587 -0.1241
   47loPI   C2B  750  14.221  12.290   7.910 -0.0742 -0.2206 -0.0435
   47loPI   C3B  751  14.068  12.247   7.488 -0.0293 -0.5075 -0.1534
   47loPI   C4B  752  13.928  12.214   7.024  0.2920  0.1712  0.1066
   48loPI    C1  753   1.604   5.378   9.821 -0.1803  0.0049 -0.0679
   48loPI    C2  754   1.544   5.758   9.930 -0.2130 -0.0334  0.0487
   48loPI    C3  755   1.478   5.462  10.191 -0.3172 -0.1280 -0.0832
   48loPI   PO4  756   1.678   5.387   9.564  0.0875 -0.2130 -0.0239
   48loPI   GL1  757   1.571   5.558   9.146  0.0812  0.1091 -0.0164
   48loPI   GL2  758   1.894   5.700   9.106  0.0810 -0.1280  0.1422
   48loPI   C1A  759   1.389   5.851   8.773 -0.0795  0.0942  0.2447
   48loPI   C2A  760   1.020   6.066   8.483  0.1215  0.1268 -0.1476
   48loPI   C3A  761   0.626   6.001   8.202  0.0767  0.1264 -0.0514
   48loPI   C4A  762   0.633   5.913   7.804  0.0088  0.0516  0.4201
   48loPI   C5A  763   0.756   5.984   7.367 -0.3726  0.1083 -0.0327
   48loPI   C6A  764   0.698   6.383   7.105  0.4381 -0.2557  0.2548
   48loPI   C1B  765   1.848   5.556   8.694  0.0373  0.0453  0.3255
   48loPI   C2B  766   1.908   5.833   8.376 -0.0177  0.0893 -0.0505
   48loPI   C3B  767   1.976   6.064   8.027  0.4177  0.2363 -0.2285
   48loPI   C4B  768   1.671   6.418   7.954  0.1568  0.0534  0.0619
   49loPI    C1  769  14.623  12.589   9.267  0.0249 -0.1266  0.0624
   49loPI    C2  770  14.514  12.758   9.613  0.2580 -0.0528  0.1014
   49loPI    C3  771  14.738  12.427   9.614  0.0599 -0.1890  0.0218
   49loPI   PO4  772  14.742  12.652   9.007  0.3556 -0.0062 -0.3393
   49loPI   GL1  773  14.958  12.673   8.590 -0.1419 -0.1656  0.1405
   49loPI   GL2  774  14.749  12.382   8.567 -0.1449  0.0818  0.0474
   49loPI   C1A  775  15.328  12.676   8.356  0.3452  0.2085 -0.0535
   49loPI   C2A  776  15.346  12.734   7.887  0.1072  0.1528  0.2580
   49loPI   C3A  777  15.375  12.596   7.461  0.1128 -0.1273 -0.0231
   49loPI   C4A  778  15.316  12.665   7.039  0.0212  0.0904  0.0987
   49loPI   C5A  779  15.396  12.581   6.642  0.0965  0.4908  0.0535
   49loPI   C6A  780  15.070  12.494   6.273 -0.3432  0.1314  0.3030
   49loPI   C1B  781  14.620  12.431   8.295  0.0678  0.5030 -0.1035
   49loPI   C2B  782  14.768  12.428   7.910 -0.2874 -0.2304  0.1760
   49loPI   C3B  783  14.565  12.532   7.549  0.2121  0.0302  0.2760
   49loPI   C4B  784  14.894  12.456   7.190  0.0178 -0.1194 -0.0856
   50loPI    C1  785   2.241  19.506   9.454  0.2654  0.0894 -0.1669
   50loPI    C2  786   2.001  19.490   9.774  0.1468 -0.0690 -0.2625
   50loPI    C3  787   2.296  19.759   9.759  0.1274 -0.0334 -0.0382
   50loPI   PO4  788   2.061  19.442   9.274 -0.1989 -0.1324 -0.3126
   50loPI   GL1  789   2.174  19.604   8.912  0.1155  0.3755  0.0316
   50loPI   GL2  790   1.931  19.823   8.838  0.0531  0.0703 -0.0204
   50loPI   C1A  791   2.462  19.565   8.563 -0.3366 -0.0184  0.0128
   50loPI   C2A  792   2.685  19.349   8.208  0.1257  0.2660  0.1415
   50loPI   C3A  793   2.821  19.498   7.778 -0.1610  0.4254 -0.0087
   50loPI   C4A  794   2.702  19.571   7.316  0.1691 -0.1537 -0.1217
   50loPI   C5A  795   2.343  19.302   6.987 -0.1668  0.0047  0.1977
   50loPI   C6A  796   2.107  19.127   6.628 -0.0993  0.3026 -0.1352
   50loPI   C1B  797   1.962  19.664   8.421  0.1570 -0.1656 -0.2668
   50loPI   C2B  798   1.907  19.836   7.985 -0.2848 -0.0594  0.0574
   50loPI   C3B  799   1.880  19.801   7.568  0.1360  0.0628  0.0677
   50loPI   C4B  800   2.076  19.737   7.163  0.1970 -0.1739 -0.0947
   51loPI    C1  801   2.901  15.385   9.554  0.0622 -0.1784 -0.0223
   51loPI    C2  802   2.787  15.705   9.764  0.1860 -0.0148 -0.2008
   51loPI    C3  803   2.533  15.401   9.709  0.1201 -0.0175  0.1006
   51loPI   PO4  804   3.041  15.530   9.316  0.0812  0.1236  0.0177
   51loPI   GL1  805   3.376  15.350   9.267 -0.0681 -0.0918 -0.0768
   51loPI   GL2  806   3.190  15.088   9.008 -0.2241 -0.0803  0.1789
   51loPI   C1A  807   3.524  15.400   8.805  0.1008 -0.0443 -0.0863
   51loPI   C2A  808   3.414  15.385   8.346 -0.1033 -0.0637 -0.4798
   51loPI   C3A  809   3.461  15.386   7.934 -0.1368 -0.2751  0.2526
   51loPI   C4A  810   3.359  15.431   7.527 -0.2119 -0.1845  0.0549
   51loPI   C5A  811   3.449  15.447   7.135  0.0661 -0.0865 -0.0544
   51loPI   C6A  812   3.782  15.246   7.063 -0.0264 -0.2995 -0.1240
   51loPI   C1B  813   2.969  15.094   8.567  0.2497  0.1850 -0.0865
   51loPI   C2B  814   3.190  14.952   8.137 -0.2812  0.1445 -0.1014
   51loPI   C3B  815   3.313  14.750   7.774 -0.0234 -0.0898 -0.3235
   51loPI   C4B  816   3.220  14.439   7.530 -0.1799  0.3125 -0.2806
   52loPI    C1  817  14.999  19.445   9.788  0.0612 -0.1167 -0.1675
   52loPI    C2  818  15.079  19.740  10.046  0.1512 -0.1993 -0.1004
   52loPI    C3  819  14.949  19.387  10.180 -0.0109 -0.1729 -0.1848
   52loPI   PO4  820  14.748  19.537   9.635  0.0369  0.0489  0.0166
   52loPI   GL1  821  14.413  19.574   9.262  0.0448 -0.1431 -0.1949
   52loPI   GL2  822  14.514  19.310   9.221  0.0689 -0.0563  0.2472
   52loPI   C1A  823  14.246  19.654   8.853  0.0637  0.0092 -0.0521
   52loPI   C2A  824  14.226  19.712   8.429  0.0647 -0.0865  0.2451
   52loPI   C3A  825  14.364  19.617   7.993 -0.0804 -0.0203 -0.2964
   52loPI   C4A  826  14.252  19.539   7.553 -0.2567 -0.1594  0.2291
   52loPI   C5A  827  14.326  19.518   7.173  0.2802 -0.1401  0.0117
   52loPI   C6A  828  14.186  19.531   6.723  0.1230  0.1401 -0.0148
   52loPI   C1B  829  14.505  19.248   8.713  0.0114 -0.2011 -0.0049
   52loPI   C2B  830  14.446  19.190   8.332 -0.0684 -0.2051 -0.1372
   52loPI   C3B  831  14.656  19.131   7.952 -0.2942  0.1616  0.0675
   52loPI   C4B  832  14.655  19.240   7.611 -0.3800  0.0474  0.2799
   53loPI    C1  833  13.432   7.266   9.836 -0.0085 -0.0039  0.0995
   53loPI    C2  834  13.562   7.629   9.941  0.1835 -0.0708  0.0986
   53loPI    C3  835  13.332   7.419  10.192 -0.2502  0.2053 -0.0550
   53loPI   PO4  836  13.629   7.221   9.632  0.2655  0.0434  0.3398
   53loPI   GL1  837  13.635   7.355   9.168  0.0936 -0.3428  0.0215
   53loPI   GL2  838  13.920   7.340   9.018 -0.0416  0.2382 -0.2171
   53loPI   C1A  839  13.416   7.386   8.768  0.1898 -0.0264  0.0604
   53loPI   C2A  840  13.323   7.642   8.461 -0.0851 -0.3452  0.1260
   53loPI   C3A  841  13.199   7.700   8.059 -0.3653  0.0147 -0.1467
   53loPI   C4A  842  12.979   7.588   7.754  0.0347 -0.3666 -0.1825
   53loPI   C5A  843  13.108   7.521   7.314 -0.0767 -0.0991  0.1640
   53loPI   C6A  844  13.154   7.424   6.907 -0.1236  0.1459 -0.3799
   53loPI   C1B  845  13.840   7.222   8.543  0.2534  0.1244  0.1023
   53loPI   C2B  846  13.762   7.334   8.188  0.1748 -0.0263 -0.1931
   53loPI   C3B  847  13.979   7.637   7.849 -0.0819  0.1490  0.3001
   53loPI   C4B  848  14.245   7.792   7.560  0.1064  0.2356 -0.1481
   54loPI    C1  849   8.235   4.354   9.813 -0.0811  0.0684  0.0401
   54loPI    C2  850   8.250   4.704  10.006  0.0343  0.0370  0.0886
   54loPI    C3  851   8.471   4.395  10.133 -0.0452 -0.0451  0.0286
   54loPI   PO4  852   8.216   4.358   9.572 -0.0639  0.3098 -0.1272
   54loPI   GL1  853   8.355   4.504   9.261  0.2317 -0.1788  0.2057
   54loPI   GL2  854   8.402   4.216   9.084  0.0052  0.0527  0.5208
   54loPI   C1A  855   8.489   4.654   8.859  0.0196  0.1841 -0.0255
   54loPI   C2A  856   8.592   4.625   8.448 -0.4359 -0.0807  0.0106
   54loPI   C3A  857   8.556   4.662   8.060  0.0262  0.3350  0.1263
   54loPI   C4A  858   8.547   4.697   7.697 -0.3264 -0.0606 -0.1522
   54loPI   C5A  859   8.312   4.613   7.288  0.0715  0.0470  0.0458
   54loPI   C6A  860   8.162   4.451   6.889 -0.2482  0.1199 -0.0324
   54loPI   C1B  861   8.469   4.142   8.555 -0.3950 -0.4049 -0.1221
   54loPI   C2B  862   8.411   4.172   8.092 -0.2061 -0.0055  0.2206
   54loPI   C3B  863   8.117   4.210   7.669 -0.0519 -0.3441  0.2080
   54loPI   C4B  864   7.796   4.549   7.552  0.0964  0.1072 -0.2776
   55loPI    C1  865  18.674  16.178   9.270  0.1772 -0.3648  0.0840
   55loPI    C2  866  18.649  16.007   9.631  0.0471  0.0740  0.2900
   55loPI    C3  867  18.867  16.338   9.582  0.0963 -0.0043 -0.0460
   55loPI   PO4  868  18.698  16.013   9.114  0.2154 -0.1079 -0.2398
   55loPI   GL1  869  18.757  16.000   8.736 -0.0437  0.0631  0.3753
   55loPI   GL2  870  18.402  15.901   8.685  0.0859  0.0415 -0.0419
   55loPI   C1A  871  18.930  15.700   8.490  0.0248 -0.0705  0.1473
   55loPI   C2A  872  18.918  15.352   8.233  0.1763 -0.1466 -0.0848
   55loPI   C3A  873  18.916  14.994   8.036 -0.2223 -0.0082 -0.5637
   55loPI   C4A  874  18.966  14.935   7.610  0.0598  0.0085 -0.1643
   55loPI   C5A  875  19.030  15.259   7.320 -0.2411 -0.2155  0.1431
   55loPI   C6A  876  18.800  15.630   7.158  0.0620 -0.0328  0.2248
   55loPI   C1B  877  18.116  16.003   8.334  0.1276 -0.0047 -0.2487
   55loPI   C2B  878  18.086  15.967   7.929 -0.1222  0.0580 -0.1792
   55loPI   C3B  879  17.836  16.191   7.564 -0.4907 -0.1028 -0.0382
   55loPI   C4B  880  17.993  16.403   7.219  0.0218 -0.1257 -0.2002
   56loPI    C1  881   3.128   4.227   9.555 -0.1051 -0.0141 -0.0061
   56loPI    C2  882   2.896   4.195   9.879 -0.1576  0.0389 -0.0381
   56loPI    C3  883   3.267   4.341   9.912 -0.0892 -0.1473  0.0308
   56loPI   PO4  884   3.194   3.983   9.387  0.0546 -0.3902  0.1874
   56loPI   GL1  885   3.218   4.033   9.022 -0.3556  0.1859 -0.0838
   56loPI   GL2  886   3.301   3.706   8.788  0.1046  0.1521  0.0784
   56loPI   C1A  887   3.090   4.119   8.680  0.1803 -0.1407  0.2555
   56loPI   C2A  888   2.948   4.181   8.292  0.0142 -0.0515  0.1605
   56loPI   C3A  889   2.923   4.403   7.961  0.1177  0.2080  0.3022
   56loPI   C4A  890   2.816   4.478   7.531  0.0708 -0.1592 -0.0676
   56loPI   C5A  891   2.556   4.440   7.166  0.0783  0.0356 -0.5855
   56loPI   C6A  892   2.369   4.311   6.804 -0.1893  0.2830 -0.0377
   56loPI   C1B  893   3.398   3.794   8.321 -0.4288 -0.0142 -0.1530
   56loPI   C2B  894   3.259   4.018   7.924 -0.0888  0.2048  0.0502
   56loPI   C3B  895   3.272   4.176   7.486 -0.0457  0.0897 -0.2212
   56loPI   C4B  896   3.418   4.070   7.040 -0.0506  0.2375  0.0173
   57loPI    C1  897   2.086  10.146  10.168  0.0704 -0.0620 -0.0743
   57loPI    C2  898   1.711  10.269  10.100 -0.0099 -0.2691 -0.0132
   57loPI    C3  899   1.785   9.998  10.386  0.2308  0.0290  0.2147
   57loPI   PO4  900   2.223  10.341  10.189  0.1617  0.1995 -0.1027
   57loPI   GL1  901   2.066  10.510   9.758 -0.1822  0.1650 -0.0831
   57loPI   GL2  902   1.684  10.567   9.687 -0.3187 -0.1987  0.2851
   57loPI   C1A  903   2.309  10.571   9.275  0.0868  0.3065 -0.0044
   57loPI   C2A  904   2.076  10.650   8.884 -0.1543  0.0048  0.4209
   57loPI   C3A  905   1.690  10.674   8.600  0.3605  0.0416 -0.0676
   57loPI   C4A  906   1.643  10.938   8.328 -0.2273  0.0363  0.1508
   57loPI   C5A  907   1.877  11.279   8.108 -0.1676 -0.1554 -0.0554
   57loPI   C6A  908   2.170  11.454   7.854  0.2182  0.0606  0.1539
   57loPI   C1B  909   1.527  10.598   9.203 -0.0956  0.2449 -0.1752
   57loPI   C2B  910   1.222  10.571   8.866 -0.0736 -0.1379  0.3431
   57loPI   C3B  911   1.185  10.747   8.423  0.0668 -0.0125 -0.1710
   57loPI   C4B  912   1.291  10.828   8.003 -0.0760  0.1053  0.1651
   58loPI    C1  913  10.830  12.739   9.846 -0.1697 -0.1503 -0.0138
   58loPI    C2  914  10.591  12.642  10.152  0.1654 -0.2706  0.2149
   58loPI    C3  915  10.917  12.866  10.215  0.0651 -0.0257 -0.1096
   58loPI   PO4  916  10.675  12.475   9.674 -0.0859 -0.1780 -0.0302
   58loPI   GL1  917  10.587  12.455   9.320  0.0797 -0.2123 -0.0761
   58loPI   GL2  918  10.698  12.198   9.199 -0.0758 -0.0110  0.0871
   58loPI   C1A  919  10.408  12.635   8.914 -0.1514 -0.2158 -0.2067
   58loPI   C2A  920  10.493  12.681   8.563  0.0170 -0.1026  0.0663
   58loPI   C3A  921  10.388  12.622   8.134 -0.0475  0.1947  0.0036
   58loPI   C4A  922  10.453  12.471   7.661  0.1394  0.1251  0.0140
   58loPI   C5A  923  10.458  12.832   7.409  0.2025  0.0935  0.1197
   58loPI   C6A  924  10.858  13.093   7.187  0.3952 -0.0895  0.0711
   58loPI   C1B  925  10.976  12.435   9.002  0.0639  0.0446  0.0038
   58loPI   C2B  926  11.370  12.516   8.712  0.0124  0.2660 -0.0823
   58loPI   C3B  927  11.612  12.305   8.253  0.1823 -0.3018  0.1429
   58loPI   C4B  928  11.737  12.192   7.866 -0.1419 -0.0737 -0.0615
   59loPI    C1  929  15.952  13.909   9.596  0.1378  0.1394 -0.1067
   59loPI    C2  930  15.750  13.566   9.566  0.3048  0.0490 -0.2143
   59loPI    C3  931  15.594  13.872   9.771  0.2100 -0.1317 -0.0114
   59loPI   PO4  932  16.271  13.927   9.608  0.2195  0.1015 -0.3200
   59loPI   GL1  933  16.495  13.861   9.144 -0.2421 -0.1173  0.2332
   59loPI   GL2  934  16.826  13.880   9.219  0.2153 -0.1425 -0.1279
   59loPI   C1A  935  16.259  13.873   8.764  0.0489 -0.1528 -0.2646
   59loPI   C2A  936  16.285  14.053   8.312 -0.0708  0.2526  0.1419
   59loPI   C3A  937  16.199  13.997   7.919  0.2591  0.3322 -0.1190
   59loPI   C4A  938  16.014  13.893   7.591 -0.2144 -0.0186 -0.3135
   59loPI   C5A  939  16.093  13.627   7.243 -0.4077  0.0166 -0.1955
   59loPI   C6A  940  16.176  13.241   6.990  0.1555 -0.1214  0.0287
   59loPI   C1B  941  16.915  14.045   8.807  0.0127 -0.1375 -0.3172
   59loPI   C2B  942  16.781  14.112   8.380  0.1134 -0.2473 -0.0779
   59loPI   C3B  943  16.669  14.072   7.870 -0.2349  0.1544 -0.3298
   59loPI   C4B  944  16.631  13.846   7.558  0.0038 -0.0570  0.0961
   60loPI    C1  945  19.259  18.291   9.828  0.0897 -0.0771 -0.0502
   60loPI    C2  946  19.320  18.675   9.922 -0.2778 -0.0634  0.1498
   60loPI    C3  947  19.372  18.391  10.199 -0.1236 -0.1477  0.0355
   60loPI   PO4  948  19.305  18.320   9.557  0.0701  0.4074  0.1448
   60loPI   GL1  949  19.441  18.276   9.169 -0.0097 -0.1727  0.2979
   60loPI   GL2  950  19.224  18.068   9.071  0.3146 -0.0379  0.0133
   60loPI   C1A  951  19.717  18.080   8.933  0.2093 -0.3311  0.0623
   60loPI   C2A  952  19.906  18.011   8.604 -0.1687 -0.1064  0.0320
   60loPI   C3A  953  20.007  18.072   8.135 -0.0302  0.1306  0.3953
   60loPI   C4A  954  20.023  17.993   7.744  0.2479 -0.1093  0.2479
   60loPI   C5A  955  19.858  17.914   7.250  0.1645 -0.1019  0.0089
   60loPI   C6A  956  19.571  17.735   6.918  0.1396  0.2672 -0.2293
   60loPI   C1B  957  19.229  18.018   8.652 -0.2998  0.0548 -0.3238
   60loPI   C2B  958  19.400  17.961   8.211  0.2924  0.2936  0.0677
   60loPI   C3B  959  19.521  17.761   7.738  0.4589 -0.1222 -0.0526
   60loPI   C4B  960  19.452  17.482   7.334  0.1054  0.0332 -0.0619
   61loPI    C1  961   2.268   9.167   9.943 -0.1146  0.2996 -0.1877
   61loPI    C2  962   1.881   9.184   9.842 -0.1682  0.1817 -0.0086
   61loPI    C3  963   1.985   9.104  10.219  0.0322  0.1699 -0.0651
   61loPI   PO4  964   2.345   9.344   9.772 -0.0360  0.0128  0.0454
   61loPI   GL1  965   2.265   9.528   9.388 -0.1546 -0.0464 -0.1774
   61loPI   GL2  966   2.367   9.788   9.386  0.2315  0.1841  0.2155
   61loPI   C1A  967   2.091   9.189   9.251  0.1609  0.1231 -0.0526
   61loPI   C2A  968   2.027   9.251   8.877 -0.0931 -0.1765 -0.1900
   61loPI   C3A  969   1.965   9.176   8.465 -0.0047  0.5172  0.0586
   61loPI   C4A  970   2.000   9.290   7.936 -0.2221 -0.0699 -0.0992
   61loPI   C5A  971   1.991   9.531   7.514  0.0053 -0.1192 -0.0448
   61loPI   C6A  972   2.016   9.676   7.029 -0.0396 -0.4155  0.3325
   61loPI   C1B  973   2.364  10.091   9.049 -0.0166  0.0439  0.0087
   61loPI   C2B  974   2.485  10.097   8.570  0.0363  0.1552  0.4464
   61loPI   C3B  975   2.575  10.004   8.136  0.3231  0.3502 -0.1170
   61loPI   C4B  976   2.886   9.739   7.919 -0.0994  0.2899  0.0500
   62loPI    C1  977   9.270  13.481   9.959  0.1832 -0.1142  0.2086
   62loPI    C2  978   9.033  13.747  10.141  0.1328  0.0249 -0.0547
   62loPI    C3  979   9.280  13.517  10.357 -0.2333 -0.1167  0.2233
   62loPI   PO4  980   9.398  13.566   9.687  0.1984  0.1771 -0.0874
   62loPI   GL1  981   9.258  13.508   9.347 -0.2409  0.2467  0.2592
   62loPI   GL2  982   9.222  13.930   9.347 -0.2801 -0.2779  0.0365
   62loPI   C1A  983   9.558  13.657   9.034 -0.0259 -0.0425 -0.0372
   62loPI   C2A  984   9.871  13.578   8.697  0.0555 -0.1465  0.0685
   62loPI   C3A  985   9.978  13.663   8.296  0.1405 -0.4324  0.0478
   62loPI   C4A  986   9.704  13.698   7.924 -0.2061  0.5165 -0.0587
   62loPI   C5A  987   9.365  13.678   7.827 -0.1442  0.1463 -0.2604
   62loPI   C6A  988   9.360  14.077   7.584 -0.0530 -0.0169 -0.1477
   62loPI   C1B  989   8.930  13.844   9.010  0.0611 -0.0332  0.1534
   62loPI   C2B  990   8.488  13.891   8.836 -0.0599  0.3024 -0.3203
   62loPI   C3B  991   8.280  13.841   8.303 -0.2793 -0.1686 -0.3127
   62loPI   C4B  992   8.418  13.554   7.925 -0.0114  0.0651  0.1730
   63loPI    C1  993  14.165   3.848   9.915 -0.1866 -0.0773 -0.1738
   63loPI    C2  994  13.897   4.001  10.169  0.0439  0.0354  0.0053
   63loPI    C3  995  14.288   4.046  10.240  0.1125 -0.2282 -0.1917
   63loPI   PO4  996  14.140   3.975   9.665 -0.0321  0.3578  0.1937
   63loPI   GL1  997  13.963   3.985   9.333 -0.0216  0.0160  0.0040
   63loPI   GL2  998  13.826   4.318   9.270  0.3346  0.3261  0.0100
   63loPI   C1A  999  13.814   3.808   9.015  0.1963 -0.2040 -0.1953
   63loPI   C2A 1000  13.926   3.873   8.564 -0.1794 -0.1091  0.0505
   63loPI   C3A 1001  13.992   3.976   8.139 -0.0272 -0.0246 -0.0427
   63loPI   C4A 1002  14.035   4.025   7.747 -0.1025 -0.0067  0.2678
   63loPI   C5A 1003  14.427   3.752   7.606  0.3616  0.1943 -0.2408
   63loPI   C6A 1004  14.728   3.420   7.514  0.5313 -0.0798 -0.0693
   63loPI   C1B 1005  14.023   4.720   9.057  0.0321 -0.1300 -0.1090
   63loPI   C2B 1006  14.008   4.780   8.711 -0.1007  0.0959  0.1692
   63loPI   C3B 1007  13.867   4.755   8.285  0.2760 -0.0274 -0.1243
   63loPI   C4B 1008  13.906   4.918   7.923  0.0413  0.0036 -0.0888
   64loPI    C1 1009   2.021  11.240  10.536  0.2060 -0.0982  0.0384
   64loPI    C2 1010   1.928  11.045  10.872  0.2337 -0.1150  0.0364
   64loPI    C3 1011   1.961  11.444  10.874 -0.0945 -0.0850 -0.0196
   64loPI   PO4 1012   1.898  11.165  10.367 -0.1865  0.2354 -0.4091
   64loPI   GL1 1013   1.977  11.140   9.917 -0.0520 -0.2279  0.3637
   64loPI   GL2 1014   1.701  11.080   9.761  0.0190 -0.2556  0.0936
   64loPI   C1A 1015   2.328  11.071   9.528 -0.2714 -0.0511 -0.0091
   64loPI   C2A 1016   2.349  11.048   9.072  0.3740 -0.2248  0.0189
   64loPI   C3A 1017   2.488  10.927   8.693  0.2311  0.1268 -0.0196
   64loPI   C4A 1018   2.451  11.137   8.193  0.1001  0.2255 -0.1296
   64loPI   C5A 1019   2.637  11.308   7.749 -0.0031  0.2380 -0.0763
   64loPI   C6A 1020   2.526  11.715   7.618 -0.0323  0.0307  0.0338
   64loPI   C1B 1021   1.905  10.930   9.342 -0.2144 -0.1441  0.2428
   64loPI   C2B 1022   1.804  11.081   8.857 -0.0631  0.2212 -0.2366
   64loPI   C3B 1023   2.055  11.110   8.556  0.0177 -0.1455  0.1182
   64loPI   C4B 1024   2.180  10.611   8.347  0.0177 -0.1026  0.0420
   65loPI    C1 1025   0.470   5.014   9.721  0.0085  0.1471 -0.0919
   65loPI    C2 1026   0.628   5.280   9.975  0.0956 -0.0424  0.0557
   65loPI    C3 1027   0.625   4.891  10.070  0.1740 -0.1217 -0.2560
   65loPI   PO4 1028   0.541   4.972   9.482  0.0449 -0.0802 -0.1648
   65loPI   GL1 1029   0.321   4.880   9.031  0.0414  0.0358 -0.1664
   65loPI   GL2 1030   0.123   4.677   9.108  0.2452  0.0255  0.1831
   65loPI   C1A 1031   0.355   4.746   8.520  0.0495  0.1419  0.1100
   65loPI   C2A 1032   0.279   4.579   8.189 -0.0900 -0.2179 -0.1989
   65loPI   C3A 1033   0.257   4.626   7.660 -0.0723  0.2318  0.2233
   65loPI   C4A 1034   0.336   4.537   7.228  0.0867 -0.3611  0.1366
   65loPI   C5A 1035   0.349   4.430   6.741  0.1313  0.4047 -0.1560
   65loPI   C6A 1036   0.192   4.473   6.376 -0.2118 -0.2566 -0.1257
   65loPI   C1B 1037   0.099   4.407   8.711  0.1936 -0.3540  0.1661
   65loPI   C2B 1038   0.095   4.165   8.309  0.0418  0.2446 -0.0948
   65loPI   C3B 1039   0.268   4.043   7.912  0.0006  0.0083 -0.5337
   65loPI   C4B 1040   0.352   4.041   7.468  0.0413 -0.3433  0.1255
   66loPI    C1 1041  18.001  14.149   9.469 -0.2576 -0.2269 -0.0987
   66loPI    C2 1042  17.825  14.393   9.732  0.1064 -0.0125 -0.0475
   66loPI    C3 1043  17.640  14.301   9.390 -0.0614  0.2888 -0.0410
   66loPI   PO4 1044  18.207  14.239   9.305 -0.1860  0.0275  0.2480
   66loPI   GL1 1045  18.251  14.200   8.907 -0.0639 -0.1164  0.1698
   66loPI   GL2 1046  18.395  14.001   8.885 -0.1406  0.0423 -0.2197
   66loPI   C1A 1047  18.264  14.476   8.577  0.0567 -0.0757  0.3123
   66loPI   C2A 1048  18.377  14.610   8.127 -0.0880 -0.1729 -0.1763
   66loPI   C3A 1049  18.455  14.524   7.678  0.0732  0.0248  0.0411
   66loPI   C4A 1050  18.629  14.610   7.227 -0.2398  0.2256 -0.1037
   66loPI   C5A 1051  18.631  14.458   6.866 -0.0288  0.2660 -0.2914
   66loPI   C6A 1052  18.700  14.175   6.558 -0.2004 -0.0649 -0.3204
   66loPI   C1B 1053  18.472  14.066   8.451 -0.0638 -0.1108  0.2260
   66loPI   C2B 1054  18.321  14.126   7.967  0.2349 -0.0766 -0.0841
   66loPI   C3B 1055  18.568  13.978   7.627  0.0162  0.5226 -0.1793
   66loPI   C4B 1056  18.536  13.693   7.369  0.1145 -0.0608  0.3093
   67loPI    C1 1057   7.177  15.814   9.739  0.1239 -0.1773 -0.1558
   67loPI    C2 1058   6.976  15.486   9.630 -0.0854  0.0024 -0.3214
   67loPI    C3 1059   6.781  15.795   9.792  0.1297 -0.0043 -0.0405
   67loPI   PO4 1060   7.326  16.019   9.513  0.1755  0.0905 -0.2104
   67loPI   GL1 1061   7.423  16.015   9.159  0.0712  0.0586  0.1235
   67loPI   GL2 1062   7.642  16.233   8.894  0.1531 -0.0630 -0.4441
   67loPI   C1A 1063   7.260  15.840   8.880 -0.0643 -0.0985 -0.2602
   67loPI   C2A 1064   6.869  15.617   8.644 -0.1640 -0.1834 -0.2917
   67loPI   C3A 1065   6.648  15.557   8.365 -0.1806 -0.1729  0.1794
   67loPI   C4A 1066   6.604  15.441   7.964  0.0845  0.0857 -0.1875
   67loPI   C5A 1067   6.557  15.213   7.551 -0.2102 -0.0818  0.2548
   67loPI   C6A 1068   6.385  15.034   7.225 -0.1062  0.2083 -0.1232
   67loPI   C1B 1069   7.584  16.087   8.485 -0.1148 -0.3066  0.0971
   67loPI   C2B 1070   7.226  15.890   8.316 -0.2464  0.3402  0.0317
   67loPI   C3B 1071   6.988  15.705   8.038  0.2137 -0.0398  0.0823
   67loPI   C4B 1072   7.148  15.398   7.666  0.1506  0.0392  0.2414
   68loPI    C1 1073   4.403  12.191  10.176 -0.0532 -0.0014  0.0934
   68loPI    C2 1074   4.248  12.542  10.286 -0.1762 -0.0026 -0.0725
   68loPI    C3 1075   4.332  12.266  10.563 -0.1643  0.1219  0.0497
   68loPI   PO4 1076   4.312  12.165   9.963  0.1743  0.2460  0.0296
   68loPI   GL1 1077   4.483  12.018   9.606 -0.2090 -0.1499  0.2001
   68loPI   GL2 1078   4.293  12.119   9.446  0.1168 -0.0041 -0.0910
   68loPI   C1A 1079   4.730  12.316   9.204  0.0032 -0.2044 -0.0384
   68loPI   C2A 1080   4.881  12.480   8.734 -0.0571  0.2508 -0.1912
   68loPI   C3A 1081   4.660  12.544   8.277  0.2438  0.0864 -0.0882
   68loPI   C4A 1082   4.298  12.415   7.920 -0.1611  0.0266 -0.1899
   68loPI   C5A 1083   4.364  12.067   7.719  0.0743  0.0109  0.2781
   68loPI   C6A 1084   4.723  11.895   7.494  0.0903  0.1571  0.0733
   68loPI   C1B 1085   4.328  11.996   9.049  0.1607 -0.4504  0.0283
   68loPI   C2B 1086   4.451  11.795   8.678 -0.2350  0.2192 -0.0409
   68loPI   C3B 1087   4.745  11.515   8.560  0.0242  0.2774  0.1200
   68loPI   C4B 1088   5.042  11.243   8.488  0.1100  0.4496  0.0870
   69loPI    C1 1089   9.549  18.185  10.024  0.0245  0.1351  0.2326
   69loPI    C2 1090   9.890  17.976  10.008 -0.1127 -0.0762 -0.0149
   69loPI    C3 1091   9.831  18.242  10.301  0.2962  0.0198 -0.0145
   69loPI   PO4 1092   9.428  18.037   9.719 -0.2549  0.4232 -0.0879
   69loPI   GL1 1093   9.543  17.808   9.364 -0.2146  0.0777 -0.1756
   69loPI   GL2 1094   9.358  17.586   9.069  0.2423 -0.0222 -0.0704
   69loPI   C1A 1095   9.592  18.027   8.917 -0.0563  0.0093 -0.0303
   69loPI   C2A 1096   9.592  18.036   8.471  0.0855  0.0920  0.0964
   69loPI   C3A 1097   9.737  18.059   8.071 -0.3353 -0.0651 -0.1862
   69loPI   C4A 1098  10.073  17.923   7.836 -0.2045  0.1327 -0.2403
   69loPI   C5A 1099  10.146  17.700   7.433  0.1597 -0.1421 -0.2174
   69loPI   C6A 1100  10.574  17.606   7.205 -0.0612  0.3094  0.3714
   69loPI   C1B 1101   9.418  17.605   8.695  0.1222 -0.1350 -0.0624
   69loPI   C2B 1102   9.411  17.555   8.210  0.1580 -0.0218 -0.1725
   69loPI   C3B 1103   9.136  17.551   7.746  0.1750  0.1559 -0.0822
   69loPI   C4B 1104   9.126  17.566   7.249  0.2496  0.1496  0.3858
   70loPI    C1 1105  16.928  14.807   9.950 -0.0369  0.2351  0.3109
   70loPI    C2 1106  16.692  14.650  10.233 -0.0715 -0.1417  0.0791
   70loPI    C3 1107  17.089  14.643  10.278 -0.0828 -0.0366  0.2003
   70loPI   PO4 1108  16.901  14.641   9.696 -0.0653 -0.1100  0.2160
   70loPI   GL1 1109  16.945  14.692   9.271 -0.2209 -0.2391  0.4087
   70loPI   GL2 1110  16.997  15.032   8.959  0.0433 -0.2161  0.2325
   70loPI   C1A 1111  16.866  14.563   8.827 -0.1919  0.0677 -0.0776
   70loPI   C2A 1112  16.858  14.607   8.482 -0.3299 -0.0247 -0.2675
   70loPI   C3A 1113  16.923  14.560   8.053  0.1276  0.2280  0.1902
   70loPI   C4A 1114  16.846  14.441   7.651  0.0054 -0.0006 -0.0010
   70loPI   C5A 1115  16.915  14.125   7.275 -0.0174  0.1222  0.0674
   70loPI   C6A 1116  16.920  13.912   6.809 -0.0642  0.1109 -0.0337
   70loPI   C1B 1117  17.065  15.106   8.591 -0.3887 -0.1512 -0.1133
   70loPI   C2B 1118  17.039  15.123   8.174  0.1104 -0.2601  0.2521
   70loPI   C3B 1119  17.050  14.970   7.758 -0.1575  0.0494 -0.1756
   70loPI   C4B 1120  17.051  14.937   7.323 -0.0850 -0.3053 -0.1596
   71loPI    C1 1121  17.601   5.036   9.845  0.2697 -0.1434 -0.2658
   71loPI    C2 1122  17.858   4.985  10.147  0.0779  0.0011 -0.0757
   71loPI    C3 1123  17.853   4.724   9.844  0.2306 -0.1800  0.0745
   71loPI   PO4 1124  17.604   5.283   9.712 -0.0726  0.3115  0.0246
   71loPI   GL1 1125  17.387   5.283   9.347 -0.1969  0.2553  0.0218
   71loPI   GL2 1126  17.469   5.633   9.310 -0.2074  0.2447 -0.0813
   71loPI   C1A 1127  17.578   5.182   8.873 -0.1677  0.2979  0.2802
   71loPI   C2A 1128  17.520   4.935   8.353  0.1455  0.1862 -0.0943
   71loPI   C3A 1129  17.623   5.036   7.965  0.1617 -0.3648  0.1747
   71loPI   C4A 1130  17.902   5.192   7.671  0.0717  0.0745  0.0616
   71loPI   C5A 1131  18.312   5.345   7.566 -0.0170 -0.2550 -0.0977
   71loPI   C6A 1132  18.501   5.474   7.214  0.2847  0.0067 -0.2178
   71loPI   C1B 1133  17.684   5.687   8.909  0.0467 -0.1987  0.1951
   71loPI   C2B 1134  17.662   5.858   8.575  0.1395 -0.1088  0.3169
   71loPI   C3B 1135  17.466   6.016   8.238  0.0669  0.0048 -0.1841
   71loPI   C4B 1136  17.163   6.301   8.083  0.2853 -0.0246  0.0310
   72loPI    C1 1137  19.499   6.908   9.911 -0.2883  0.2155 -0.0606
   72loPI    C2 1138  19.738   7.177  10.085 -0.0583 -0.1033  0.1280
   72loPI    C3 1139  19.627   6.850  10.286 -0.1032 -0.2895 -0.1939
   72loPI   PO4 1140  19.453   7.041   9.664 -0.3028  0.0944 -0.0301
   72loPI   GL1 1141  19.550   7.075   9.200  0.0347 -0.1335 -0.1714
   72loPI   GL2 1142  19.324   7.168   9.067 -0.1690 -0.0766 -0.0323
   72loPI   C1A 1143  19.673   6.815   8.929 -0.0502 -0.4365 -0.1031
   72loPI   C2A 1144  19.485   6.918   8.540 -0.2405 -0.1955  0.1072
   72loPI   C3A 1145  19.353   6.929   8.102 -0.2770  0.0669 -0.1844
   72loPI   C4A 1146  19.377   6.901   7.574  0.4158  0.0503  0.0231
   72loPI   C5A 1147  19.333   6.622   7.200 -0.0404 -0.0388 -0.2974
   72loPI   C6A 1148  19.072   6.298   7.018  0.2619 -0.0535 -0.1013
   72loPI   C1B 1149  19.101   7.189   8.697 -0.0295  0.2282  0.0910
   72loPI   C2B 1150  18.934   7.304   8.296  0.1587 -0.1066 -0.1113
   72loPI   C3B 1151  18.900   7.386   7.933 -0.1068 -0.1446 -0.0426
   72loPI   C4B 1152  19.063   7.618   7.582 -0.2758 -0.0712 -0.2825
   73loPI    C1 1153   7.821  15.318  10.145 -0.1039  0.0009 -0.2203
   73loPI    C2 1154   8.208  15.417  10.163 -0.1382  0.1120 -0.0814
   73loPI    C3 1155   7.927  15.698  10.210 -0.2374 -0.0450  0.3141
   73loPI   PO4 1156   7.862  15.147   9.844  0.1621  0.0373 -0.1007
   73loPI   GL1 1157   7.971  15.279   9.386 -0.3384 -0.2514 -0.1167
   73loPI   GL2 1158   8.226  15.090   9.214  0.0098 -0.1523  0.2796
   73loPI   C1A 1159   7.854  15.147   8.903 -0.0027 -0.0873 -0.0367
   73loPI   C2A 1160   8.009  15.338   8.585 -0.0781 -0.4104  0.1469
   73loPI   C3A 1161   8.061  15.503   8.134 -0.1302 -0.2428  0.0659
   73loPI   C4A 1162   7.927  15.667   7.742 -0.0294  0.3112  0.2064
   73loPI   C5A 1163   7.944  16.026   7.468 -0.0694  0.2235 -0.2044
   73loPI   C6A 1164   7.874  16.416   7.359 -0.1052  0.1294 -0.1103
   73loPI   C1B 1165   8.429  15.175   8.835  0.0618  0.1358 -0.1350
   73loPI   C2B 1166   8.466  15.123   8.388  0.0941  0.0621 -0.0713
   73loPI   C3B 1167   8.496  14.823   8.102  0.2412 -0.2800 -0.0572
   73loPI   C4B 1168   8.514  14.597   7.824 -0.2217 -0.5040 -0.0224
   74loPI    C1 1169  12.075   4.427   9.778  0.0385  0.1509  0.0153
   74loPI    C2 1170  12.229   4.060   9.736  0.0304  0.1628 -0.1202
   74loPI    C3 1171  12.244   4.243  10.091 -0.1761 -0.0640  0.0079
   74loPI   PO4 1172  12.236   4.600   9.640  0.0569 -0.2136 -0.1839
   74loPI   GL1 1173  12.213   4.789   9.236  0.0022  0.3757  0.1936
   74loPI   GL2 1174  11.967   4.950   9.163 -0.2007  0.0022 -0.0100
   74loPI   C1A 1175  12.393   4.614   8.972  0.4666  0.0558 -0.2763
   74loPI   C2A 1176  12.543   4.640   8.557  0.2972 -0.1009 -0.1348
   74loPI   C3A 1177  12.532   4.740   8.124  0.0911  0.3098 -0.0012
   74loPI   C4A 1178  12.833   4.782   7.857  0.0017 -0.0097  0.4795
   74loPI   C5A 1179  13.056   4.481   7.654 -0.1969  0.1025  0.1511
   74loPI   C6A 1180  13.344   4.104   7.579  0.0287 -0.2694 -0.0913
   74loPI   C1B 1181  12.022   4.939   8.747  0.0035 -0.0479  0.1904
   74loPI   C2B 1182  12.034   4.865   8.299 -0.2747  0.2468  0.0048
   74loPI   C3B 1183  12.044   4.830   7.909  0.0243 -0.0036 -0.0327
   74loPI   C4B 1184  11.865   4.760   7.565  0.0292  0.2405 -0.2689
   75loPI    C1 1185   9.941  18.855   9.615 -0.1380 -0.1983 -0.2497
   75loPI    C2 1186   9.931  19.248   9.689 -0.1966 -0.1794 -0.3558
   75loPI    C3 1187  10.053  18.994   9.973 -0.5340 -0.1196 -0.1516
   75loPI   PO4 1188   9.797  18.876   9.427 -0.2782 -0.1132 -0.1294
   75loPI   GL1 1189   9.738  18.620   9.058 -0.2192  0.1618  0.4435
   75loPI   GL2 1190   9.541  18.871   9.013 -0.2196 -0.1459  0.1831
   75loPI   C1A 1191   9.495  18.451   8.694 -0.2743  0.0531 -0.1752
   75loPI   C2A 1192   9.233  18.484   8.306 -0.3365  0.2313  0.0912
   75loPI   C3A 1193   9.291  18.518   7.888  0.1949  0.2534  0.0701
   75loPI   C4A 1194   9.041  18.175   7.562  0.4329 -0.0509 -0.2387
   75loPI   C5A 1195   8.765  17.779   7.549 -0.1315 -0.0991 -0.0069
   75loPI   C6A 1196   8.322  17.740   7.546 -0.2453 -0.1278  0.0984
   75loPI   C1B 1197   9.566  18.925   8.527  0.2606  0.0071 -0.1727
   75loPI   C2B 1198   9.711  18.883   8.178  0.5786  0.3676 -0.0741
   75loPI   C3B 1199   9.637  18.902   7.691 -0.0879 -0.0573  0.0969
   75loPI   C4B 1200   9.785  18.747   7.212  0.0349 -0.2670  0.2961
   76loPI    C1 1201  15.044   4.163   9.864 -0.1136  0.0096 -0.0137
   76loPI    C2 1202  14.845   4.260   9.530 -0.1502  0.0774  0.0278
   76loPI    C3 1203  14.660   4.061   9.823 -0.0751 -0.1191 -0.0568
   76loPI   PO4 1204  15.279   4.055   9.746  0.0657 -0.0332 -0.0235
   76loPI   GL1 1205  15.384   4.257   9.345  0.1404  0.2502  0.2286
   76loPI   GL2 1206  15.478   4.603   9.261  0.4765  0.0435  0.0664
   76loPI   C1A 1207  15.062   4.053   9.057  0.2742 -0.0522 -0.0964
   76loPI   C2A 1208  14.722   4.156   8.733  0.0989 -0.0306  0.1507
   76loPI   C3A 1209  14.918   4.441   8.420 -0.3342 -0.3086 -0.1190
   76loPI   C4A 1210  14.919   4.525   8.016 -0.2418 -0.0463  0.2872
   76loPI   C5A 1211  14.806   4.500   7.539 -0.0285 -0.1540 -0.0086
   76loPI   C6A 1212  14.916   4.213   7.346  0.0181  0.0360 -0.0702
   76loPI   C1B 1213  15.414   5.007   8.903  0.1281  0.1893 -0.1639
   76loPI   C2B 1214  15.619   5.225   8.448  0.2276  0.0350 -0.1293
   76loPI   C3B 1215  15.587   5.354   7.965  0.2240 -0.1543  0.3031
   76loPI   C4B 1216  15.628   5.371   7.512 -0.1260 -0.0779 -0.0136
   77loPI    C1 1217   1.471  13.126  10.011 -0.0934  0.0926  0.0690
   77loPI    C2 1218   1.535  13.370  10.321 -0.1745  0.0025  0.1578
   77loPI    C3 1219   1.546  12.974  10.373 -0.4487 -0.0147  0.1020
   77loPI   PO4 1220   1.414  13.140   9.835  0.1167 -0.1623 -0.0765
   77loPI   GL1 1221   1.418  13.003   9.443 -0.0435  0.0198 -0.1188
   77loPI   GL2 1222   1.539  12.700   9.462 -0.0287 -0.0348 -0.1829
   77loPI   C1A 1223   1.162  13.020   9.121  0.0557  0.2677 -0.0136
   77loPI   C2A 1224   1.133  12.856   8.656 -0.1244 -0.0352 -0.0308
   77loPI   C3A 1225   1.083  12.819   8.382 -0.3243  0.0648  0.3478
   77loPI   C4A 1226   1.151  12.800   7.934  0.0686 -0.1347 -0.2121
   77loPI   C5A 1227   1.052  12.546   7.650  0.0245  0.2190  0.1238
   77loPI   C6A 1228   1.004  12.469   7.283 -0.0703 -0.0757  0.2888
   77loPI   C1B 1229   1.472  12.651   9.050 -0.0801  0.2887 -0.0857
   77loPI   C2B 1230   1.552  12.469   8.651  0.1964 -0.0179 -0.3164
   77loPI   C3B 1231   1.550  12.660   8.241  0.0619  0.1058 -0.4099
   77loPI   C4B 1232   1.675  12.616   7.742  0.2601 -0.0553  0.3102
   78loPI    C1 1233   1.279   2.264   9.704 -0.3243  0.2183 -0.0870
   78loPI    C2 1234   1.147   1.961   9.930 -0.2569  0.0626 -0.2540
   78loPI    C3 1235   1.040   2.337  10.016 -0.0862  0.0242  0.1444
   78loPI   PO4 1236   1.451   2.137   9.540 -0.0399  0.0318  0.0068
   78loPI   GL1 1237   1.624   1.975   9.087  0.2065  0.1386 -0.2975
   78loPI   GL2 1238   1.318   1.908   8.983 -0.0063  0.4246 -0.0413
   78loPI   C1A 1239   1.676   2.185   8.743 -0.0030 -0.1601  0.2259
   78loPI   C2A 1240   1.878   2.284   8.342  0.2483 -0.1660 -0.0822
   78loPI   C3A 1241   1.942   2.377   7.922 -0.1599  0.0191 -0.0323
   78loPI   C4A 1242   1.884   2.193   7.499 -0.1485 -0.4091 -0.4381
   78loPI   C5A 1243   1.887   1.924   7.189  0.1445  0.1800 -0.0419
   78loPI   C6A 1244   2.103   1.550   7.087 -0.0602 -0.0006  0.1306
   78loPI   C1B 1245   1.401   1.750   8.592  0.2064 -0.0144  0.0561
   78loPI   C2B 1246   1.385   1.911   8.111 -0.3658  0.1122  0.0868
   78loPI   C3B 1247   1.129   2.123   7.825 -0.0339 -0.1412 -0.0225
   78loPI   C4B 1248   0.924   2.095   7.479 -0.1463 -0.2966 -0.0550
   79loPI    C1 1249  15.213   1.997   9.637  0.0158  0.3212 -0.1364
   79loPI    C2 1250  14.885   2.224   9.657 -0.0845  0.1530  0.2277
   79loPI    C3 1251  14.895   1.872   9.846  0.1490 -0.0475 -0.1458
   79loPI   PO4 1252  15.320   2.012   9.396 -0.1764  0.1431 -0.2601
   79loPI   GL1 1253  15.623   2.165   9.066  0.1030  0.0768 -0.1125
   79loPI   GL2 1254  15.269   2.210   8.966 -0.1657  0.1684  0.0707
   79loPI   C1A 1255  15.677   2.316   8.633 -0.3865 -0.0574 -0.1867
   79loPI   C2A 1256  15.610   2.089   8.203  0.0703 -0.0186 -0.0743
   79loPI   C3A 1257  15.530   2.410   7.787  0.1664 -0.1854  0.0639
   79loPI   C4A 1258  15.348   2.655   7.367  0.2675 -0.1410  0.0563
   79loPI   C5A 1259  15.090   2.587   7.022  0.3197  0.0000 -0.1496
   79loPI   C6A 1260  14.874   2.425   6.754 -0.0349  0.2051  0.1706
   79loPI   C1B 1261  15.147   2.312   8.476  0.2960 -0.0160 -0.1843
   79loPI   C2B 1262  15.016   2.450   8.055  0.0344 -0.0389 -0.0412
   79loPI   C3B 1263  14.880   2.573   7.607  0.0905  0.0025 -0.0374
   79loPI   C4B 1264  14.647   2.866   7.286 -0.1111  0.1657 -0.1947
   80loPI    C1 1265  17.402   5.986   9.765  0.0190 -0.3259 -0.0115
   80loPI    C2 1266  17.053   6.107   9.917  0.0322 -0.1809 -0.0953
   80loPI    C3 1267  17.389   6.146  10.131  0.0597  0.0790 -0.1816
   80loPI   PO4 1268  17.377   6.072   9.531 -0.1530  0.3246 -0.3885
   80loPI   GL1 1269  17.647   6.360   9.362 -0.0628 -0.2383 -0.0761
   80loPI   GL2 1270  17.812   6.663   9.408  0.2227 -0.3591  0.0034
   80loPI   C1A 1271  17.578   6.220   8.951 -0.2471  0.0610  0.1855
   80loPI   C2A 1272  17.248   6.300   8.582  0.2864  0.0416  0.1404
   80loPI   C3A 1273  16.826   6.288   8.548  0.2187  0.2065  0.0060
   80loPI   C4A 1274  16.466   6.561   8.457  0.0663 -0.0062  0.0575
   80loPI   C5A 1275  16.048   6.522   8.664 -0.1462 -0.2126  0.0342
   80loPI   C6A 1276  15.781   6.534   9.152 -0.0199 -0.1101 -0.0337
   80loPI   C1B 1277  17.980   6.481   8.975 -0.0090  0.0006  0.5055
   80loPI   C2B 1278  17.767   6.357   8.488  0.2341 -0.1583  0.3238
   80loPI   C3B 1279  17.692   6.523   8.111 -0.2079 -0.2714 -0.1223
   80loPI   C4B 1280  17.348   6.710   7.839  0.0339  0.1260  0.0074
   81loPI    C1 1281   0.856  14.848   9.781 -0.0890 -0.3020  0.0427
   81loPI    C2 1282   0.470  14.792   9.693 -0.1089 -0.2943  0.1240
   81loPI    C3 1283   0.573  14.958  10.042 -0.0524  0.1914 -0.1140
   81loPI   PO4 1284   0.992  14.709   9.543 -0.1115 -0.1392  0.0482
   81loPI   GL1 1285   1.272  14.806   9.180 -0.2080  0.1414  0.2633
   81loPI   GL2 1286   1.021  14.972   9.077  0.3853 -0.0940  0.2790
   81loPI   C1A 1287   1.453  15.159   8.845  0.0369  0.1293 -0.2533
   81loPI   C2A 1288   1.725  15.208   8.595  0.2112  0.0257  0.0493
   81loPI   C3A 1289   1.999  15.097   8.373 -0.0440 -0.0338  0.3144
   81loPI   C4A 1290   2.227  14.866   7.939  0.0649  0.0404  0.0762
   81loPI   C5A 1291   2.476  15.006   7.489  0.0092  0.2481  0.0833
   81loPI   C6A 1292   2.660  15.227   7.220 -0.0716  0.0861  0.1350
   81loPI   C1B 1293   0.748  14.917   8.715  0.2008  0.4068  0.0503
   81loPI   C2B 1294   0.684  14.667   8.332  0.2069  0.1128 -0.0709
   81loPI   C3B 1295   0.798  14.521   7.907 -0.2850  0.0438  0.2309
   81loPI   C4B 1296   0.855  14.337   7.579  0.2386  0.0297  0.0520
   82loPI    C1 1297   9.237   4.714   9.871  0.0876  0.1142  0.0767
   82loPI    C2 1298   8.920   4.544  10.045  0.2386  0.1404  0.3861
   82loPI    C3 1299   9.278   4.367  10.065  0.2318  0.0667 -0.0366
   82loPI   PO4 1300   9.258   4.732   9.704  0.1693 -0.0223 -0.1443
   82loPI   GL1 1301   9.058   4.623   9.408 -0.0445  0.0711  0.0165
   82loPI   GL2 1302   8.841   4.708   9.211  0.3806  0.3443 -0.0094
   82loPI   C1A 1303   9.281   4.614   9.039 -0.1899  0.0762  0.2407
   82loPI   C2A 1304   9.327   4.711   8.570 -0.0180  0.2104  0.2380
   82loPI   C3A 1305   9.340   4.472   8.199 -0.0166 -0.0693 -0.2171
   82loPI   C4A 1306   9.233   4.494   7.783 -0.4042  0.2040  0.2494
   82loPI   C5A 1307   9.022   4.703   7.479 -0.3850 -0.1041  0.1036
   82loPI   C6A 1308   8.763   4.784   7.106  0.0582  0.0987  0.1468
   82loPI   C1B 1309   8.924   4.849   8.792  0.0876  0.1790 -0.0644
   82loPI   C2B 1310   8.976   4.887   8.272 -0.1861 -0.1301 -0.0695
   82loPI   C3B 1311   8.943   5.061   7.841 -0.0591  0.0975 -0.1885
   82loPI   C4B 1312   8.615   5.184   7.515  0.0617 -0.0931 -0.1239
   83loPI    C1 1313  13.061  14.532   9.772 -0.0113 -0.0281 -0.0034
   83loPI    C2 1314  13.176  14.151   9.736  0.2084  0.0139  0.2219
   83loPI    C3 1315  13.410  14.413   9.926  0.0499  0.2584  0.0859
   83loPI   PO4 1316  12.955  14.554   9.574 -0.0601  0.2149 -0.2119
   83loPI   GL1 1317  13.061  14.372   9.178 -0.1393 -0.1473 -0.0384
   83loPI   GL2 1318  13.038  14.043   9.070  0.2431  0.1563  0.0880
   83loPI   C1A 1319  13.235  14.555   8.821 -0.4107  0.4614 -0.3737
   83loPI   C2A 1320  13.177  14.691   8.424  0.1208  0.0657  0.0577
   83loPI   C3A 1321  13.270  14.608   8.045  0.3417  0.1365  0.0753
   83loPI   C4A 1322  13.181  14.772   7.617  0.2236  0.1190 -0.0110
   83loPI   C5A 1323  13.258  15.053   7.381 -0.1125 -0.3667 -0.0610
   83loPI   C6A 1324  13.131  15.315   7.055  0.0386  0.0394  0.1878
   83loPI   C1B 1325  13.171  14.098   8.614  0.0895 -0.1064  0.0131
   83loPI   C2B 1326  13.244  14.104   8.202  0.0928  0.1023 -0.1762
   83loPI   C3B 1327  13.415  14.097   7.802 -0.1599  0.0838  0.1590
   83loPI   C4B 1328  13.641  14.259   7.469  0.3132 -0.1802 -0.5931
   84loPI    C1 1329   7.904  13.397   9.467 -0.0910 -0.1662 -0.0833
   84loPI    C2 1330   7.996  13.170   9.783  0.0182 -0.0830 -0.0544
   84loPI    C3 1331   7.924  13.560   9.832  0.1953 -0.0372 -0.1536
   84loPI   PO4 1332   7.814  13.218   9.249 -0.0364 -0.2063 -0.0905
   84loPI   GL1 1333   7.877  13.100   8.847  0.0114 -0.1787 -0.0217
   84loPI   GL2 1334   8.024  13.065   8.495  0.0169  0.1073 -0.1185
   84loPI   C1A 1335   7.612  13.094   8.306 -0.1962 -0.5956 -0.0524
   84loPI   C2A 1336   7.817  12.931   8.023  0.0789  0.0566  0.2670
   84loPI   C3A 1337   7.845  12.491   7.789  0.1813 -0.0552 -0.1671
   84loPI   C4A 1338   7.873  12.301   7.405 -0.0132  0.1122  0.0866
   84loPI   C5A 1339   8.225  12.506   7.185  0.1193 -0.1877 -0.0403
   84loPI   C6A 1340   8.603  12.757   7.290 -0.3020  0.3682 -0.1133
   84loPI   C1B 1341   8.260  13.143   8.144 -0.0739  0.3587 -0.2337
   84loPI   C2B 1342   8.683  13.003   7.959 -0.0410 -0.3332  0.1714
   84loPI   C3B 1343   9.127  12.860   7.932  0.0837 -0.1719 -0.2988
   84loPI   C4B 1344   9.324  12.622   7.573  0.0509 -0.0456  0.0836
   85loPI    C1 1345   3.788  13.997   9.809  0.1933  0.1439  0.1180
   85loPI    C2 1346   4.111  13.769   9.751  0.1612  0.1294 -0.0057
   85loPI    C3 1347   4.082  13.994  10.080  0.1979 -0.0366  0.1119
   85loPI   PO4 1348   3.621  13.891   9.616 -0.1193  0.0046  0.1656
   85loPI   GL1 1349   3.536  13.978   9.203 -0.1137  0.1644  0.0117
   85loPI   GL2 1350   3.323  14.186   9.285  0.2862 -0.3791 -0.0720
   85loPI   C1A 1351   3.522  13.912   8.742  0.0248  0.0723  0.0695
   85loPI   C2A 1352   3.611  13.932   8.352 -0.1703  0.0604  0.1089
   85loPI   C3A 1353   3.698  13.613   8.011  0.0276  0.3310  0.1243
   85loPI   C4A 1354   3.970  13.683   7.796 -0.1427 -0.0955 -0.0763
   85loPI   C5A 1355   4.320  13.704   7.533 -0.0697  0.1315 -0.1969
   85loPI   C6A 1356   4.427  13.338   7.419  0.1804  0.0921  0.1141
   85loPI   C1B 1357   3.034  14.265   8.858 -0.0863  0.1000  0.1774
   85loPI   C2B 1358   3.092  14.096   8.447 -0.1653  0.1786  0.0199
   85loPI   C3B 1359   3.189  13.974   8.032 -0.2356  0.1886  0.3755
   85loPI   C4B 1360   3.226  13.804   7.756  0.0021 -0.0223 -0.2586
   86loPI    C1 1361  19.543  16.458   9.398 -0.1174  0.0309 -0.0497
   86loPI    C2 1362  19.609  16.126   9.610  0.0601  0.0619 -0.0553
   86loPI    C3 1363  19.772  16.472   9.725 -0.1597  0.1566 -0.0247
   86loPI   PO4 1364  19.259  16.391   9.304 -0.1093 -0.0587 -0.2816
   86loPI   GL1 1365  19.011  16.421   8.991  0.3444  0.1272 -0.1120
   86loPI   GL2 1366  19.166  16.687   8.898  0.2210 -0.4506  0.2035
   86loPI   C1A 1367  19.187  16.209   8.647 -0.1748  0.0297 -0.2725
   86loPI   C2A 1368  19.376  16.243   8.227  0.0746 -0.1436  0.1087
   86loPI   C3A 1369  19.442  16.371   7.868 -0.0285  0.2864 -0.1275
   86loPI   C4A 1370  19.316  16.704   7.634  0.1249 -0.0241 -0.0991
   86loPI   C5A 1371  19.213  17.028   7.430 -0.1964  0.1691 -0.0026
   86loPI   C6A 1372  18.929  17.167   7.044 -0.2667  0.2677  0.3060
   86loPI   C1B 1373  19.389  16.699   8.496  0.4197  0.2308  0.1700
   86loPI   C2B 1374  19.568  16.816   8.127  0.2367 -0.0270 -0.0707
   86loPI   C3B 1375  19.849  16.843   7.862 -0.0057  0.1136  0.0156
   86loPI   C4B 1376  20.049  16.643   7.543 -0.1949  0.0011 -0.2297
   87loPI    C1 1377  11.360   2.027   9.250 -0.0869 -0.0587  0.3961
   87loPI    C2 1378  11.707   2.039   9.450  0.0734  0.1005  0.1135
   87loPI    C3 1379  11.693   1.886   9.080 -0.2018 -0.1033  0.2046
   87loPI   PO4 1380  11.156   1.891   9.311  0.2307  0.0720  0.2295
   87loPI   GL1 1381  10.929   1.850   8.953  0.2571  0.0063  0.1341
   87loPI   GL2 1382  11.216   1.740   8.845 -0.1481  0.0047  0.0583
   87loPI   C1A 1383  10.951   2.071   8.499 -0.2637 -0.2005 -0.0609
   87loPI   C2A 1384  10.830   2.156   7.998 -0.6306  0.1830  0.1683
   87loPI   C3A 1385  10.833   2.030   7.543 -0.2283 -0.0099  0.3010
   87loPI   C4A 1386  10.979   2.240   7.144  0.0081  0.1738  0.1981
   87loPI   C5A 1387  11.183   2.575   7.094  0.1205  0.1180 -0.1732
   87loPI   C6A 1388  11.240   2.944   7.300  0.3042  0.3818  0.2310
   87loPI   C1B 1389  11.107   1.614   8.403 -0.1237  0.3215  0.0267
   87loPI   C2B 1390  11.020   1.319   8.015 -0.0224 -0.2261 -0.2105
   87loPI   C3B 1391  11.042   0.800   7.938  0.0748 -0.0187  0.1617
   87loPI   C4B 1392  11.130   0.369   7.834  0.1765  0.0733 -0.0515
   88loPI    C1 1393   6.371   6.237   9.639 -0.0839  0.1222 -0.1176
   88loPI    C2 1394   6.512   6.491   9.914 -0.2262 -0.1480  0.2111
   88loPI    C3 1395   6.727   6.170   9.809 -0.1296  0.0045 -0.0672
   88loPI   PO4 1396   6.348   6.309   9.450  0.0457 -0.1282  0.0639
   88loPI   GL1 1397   6.327   6.165   9.096 -0.2202  0.1627  0.1996
   88loPI   GL2 1398   6.183   6.143   8.898 -0.1900  0.2774  0.0236
   88loPI   C1A 1399   6.714   6.228   8.871  0.0055 -0.0046  0.1186
   88loPI   C2A 1400   6.909   6.311   8.439 -0.0346  0.0983 -0.0239
   88loPI   C3A 1401   7.019   6.342   7.987  0.0893 -0.0805 -0.1460
   88loPI   C4A 1402   7.212   6.462   7.612  0.0793 -0.2511 -0.2986
   88loPI   C5A 1403   7.687   6.231   7.396 -0.0562 -0.1491  0.3126
   88loPI   C6A 1404   7.971   5.999   7.374  0.0312  0.3297 -0.0592
   88loPI   C1B 1405   6.366   6.635   8.760 -0.0383  0.3906 -0.0959
   88loPI   C2B 1406   6.351   7.016   8.584  0.1940  0.1733 -0.1205
   88loPI   C3B 1407   6.503   7.162   8.179 -0.1390 -0.1629  0.3040
   88loPI   C4B 1408   6.734   7.299   7.841  0.0320 -0.1384 -0.1822
   89loPI    C1 1409   7.200  17.103   9.903  0.0847  0.0609  0.1200
   89loPI    C2 1410   7.447  17.018  10.206 -0.0164 -0.1408  0.1475
   89loPI    C3 1411   7.062  17.097  10.278  0.0075  0.0322  0.0912
   89loPI   PO4 1412   7.340  16.961   9.668  0.2507  0.0412 -0.0617
   89loPI   GL1 1413   7.289  16.956   9.204 -0.1870 -0.2220  0.0468
   89loPI   GL2 1414   7.566  16.795   9.063  0.0091 -0.0073  0.2379
   89loPI   C1A 1415   7.196  16.508   8.969  0.0365  0.1394 -0.2158
   89loPI   C2A 1416   7.252  16.491   8.495  0.0114 -0.0365 -0.1827
   89loPI   C3A 1417   7.301  16.334   8.148 -0.0857  0.1159 -0.2741
   89loPI   C4A 1418   7.364  16.433   7.672  0.3466 -0.0041 -0.3250
   89loPI   C5A 1419   7.144  16.401   7.363 -0.0209 -0.2106  0.2201
   89loPI   C6A 1420   6.709  16.165   7.219  0.3930  0.2561 -0.2575
   89loPI   C1B 1421   7.521  16.973   8.562  0.1413  0.2876 -0.2538
   89loPI   C2B 1422   7.196  16.932   8.233  0.2171 -0.1413 -0.1043
   89loPI   C3B 1423   7.065  16.796   7.827  0.3783  0.2025 -0.2733
   89loPI   C4B 1424   6.729  16.672   7.452 -0.1132 -0.0319 -0.1848
   90loPI    C1 1425   3.311   0.683   9.437  0.0851  0.1793  0.1134
   90loPI    C2 1426   3.439   0.653   9.814  0.2456 -0.1359  0.0376
   90loPI    C3 1427   3.544   0.969   9.592  0.0174  0.1333  0.3027
   90loPI   PO4 1428   3.305   0.392   9.413 -0.0848 -0.0250  0.0426
   90loPI   GL1 1429   3.094   0.243   9.186  0.0356 -0.2284  0.0580
   90loPI   GL2 1430   3.228   0.109   8.914 -0.0617 -0.0902 -0.0752
   90loPI   C1A 1431   2.888   0.420   8.834  0.1373  0.1031 -0.4229
   90loPI   C2A 1432   2.809   0.283   8.399 -0.2632 -0.1474 -0.3504
   90loPI   C3A 1433   2.817   0.369   7.966 -0.0817  0.1345 -0.0997
   90loPI   C4A 1434   3.054   0.545   7.608 -0.2129  0.2942 -0.0649
   90loPI   C5A 1435   3.336   0.500   7.271  0.0400 -0.0029 -0.1317
   90loPI   C6A 1436   3.298   0.283   6.855 -0.2260 -0.1462  0.3632
   90loPI   C1B 1437   3.126  -0.145   8.573 -0.0467  0.0324 -0.3512
   90loPI   C2B 1438   3.183  -0.215   8.216 -0.1339 -0.0590  0.2243
   90loPI   C3B 1439   3.419  -0.318   7.774  0.2692  0.0904 -0.1439
   90loPI   C4B 1440   3.571  -0.473   7.391  0.1193 -0.0858 -0.4258
   91loPI    C1 1441  12.973   7.467   9.815 -0.0679 -0.2787  0.2444
   91loPI    C2 1442  13.127   7.832   9.876  0.0126 -0.2491 -0.1137
   91loPI    C3 1443  12.887   7.668  10.150  0.1082  0.0028  0.1254
   91loPI   PO4 1444  12.872   7.540   9.442  0.0216  0.0216  0.2658
   91loPI   GL1 1445  12.953   7.767   9.125 -0.0766  0.3681  0.3550
   91loPI   GL2 1446  12.954   8.103   9.067 -0.0177 -0.2943  0.0556
   91loPI   C1A 1447  12.787   7.598   8.732 -0.2552 -0.0577  0.1315
   91loPI   C2A 1448  12.832   7.605   8.350 -0.0496 -0.1428  0.0443
   91loPI   C3A 1449  12.849   7.193   8.047  0.3625  0.2585  0.3762
   91loPI   C4A 1450  12.911   6.811   7.830 -0.2879 -0.2957 -0.0634
   91loPI   C5A 1451  12.729   6.317   7.717 -0.2598 -0.0115  0.1405
   91loPI   C6A 1452  12.833   6.162   7.250  0.0805  0.1384 -0.3097
   91loPI   C1B 1453  12.981   8.477   8.738  0.1600 -0.1131  0.0947
   91loPI   C2B 1454  12.910   8.810   8.687 -0.1042  0.1119  0.3943
   91loPI   C3B 1455  13.051   9.188   8.686  0.1041 -0.1535  0.2054
   91loPI   C4B 1456  13.432   9.394   8.822 -0.1478 -0.1585  0.1486
   92loPI    C1 1457   2.360   2.112   9.490  0.0193  0.1909  0.0757
   92loPI    C2 1458   1.976   2.000   9.482  0.1788 -0.3800 -0.0955
   92loPI    C3 1459   2.184   1.976   9.823  0.0593 -0.0378  0.0057
   92loPI   PO4 1460   2.395   2.358   9.384  0.0697  0.0788  0.0716
   92loPI   GL1 1461   2.118   2.429   8.997 -0.1062  0.2647  0.0750
   92loPI   GL2 1462   2.071   2.118   8.942  0.0917  0.0304 -0.0980
   92loPI   C1A 1463   2.319   2.577   8.639 -0.0500  0.0289  0.3703
   92loPI   C2A 1464   2.439   2.720   8.204 -0.2138 -0.2025 -0.2262
   92loPI   C3A 1465   2.277   2.786   7.820 -0.0227  0.2594  0.0530
   92loPI   C4A 1466   2.003   2.740   7.501 -0.0003 -0.2065 -0.1997
   92loPI   C5A 1467   1.790   2.992   7.133  0.4025  0.1679 -0.1537
   92loPI   C6A 1468   1.721   3.078   6.796 -0.1893  0.2286  0.1387
   92loPI   C1B 1469   2.248   2.006   8.601 -0.1546  0.1841  0.1494
   92loPI   C2B 1470   2.264   2.029   8.136 -0.1311 -0.0224  0.0155
   92loPI   C3B 1471   2.350   2.206   7.744  0.2701 -0.4525 -0.0969
   92loPI   C4B 1472   2.345   2.381   7.294  0.1998  0.1805  0.2347
   93loPI    C1 1473  10.382  15.426   9.792  0.1846 -0.1590  0.1543
   93loPI    C2 1474  10.178  15.097   9.895  0.0455 -0.0094  0.3666
   93loPI    C3 1475  10.196  15.408  10.146  0.2305  0.1214  0.1952
   93loPI   PO4 1476  10.350  15.351   9.496 -0.0409  0.0331 -0.2247
   93loPI   GL1 1477  10.407  15.321   9.206  0.3257 -0.1409 -0.0397
   93loPI   GL2 1478  10.230  15.687   9.124 -0.0733  0.0895 -0.0618
   93loPI   C1A 1479  10.640  15.000   8.950 -0.0158  0.0308 -0.2630
   93loPI   C2A 1480  10.674  15.123   8.531 -0.3966 -0.1192 -0.0189
   93loPI   C3A 1481  10.592  15.048   8.157  0.1800 -0.0053  0.3722
   93loPI   C4A 1482  10.595  15.060   7.681 -0.4845 -0.0791  0.3239
   93loPI   C5A 1483  10.917  15.270   7.404 -0.1939 -0.0729  0.0298
   93loPI   C6A 1484  11.381  15.224   7.288  0.0528 -0.0247  0.0141
   93loPI   C1B 1485   9.839  15.508   8.939  0.1626  0.0665  0.3638
   93loPI   C2B 1486   9.863  15.172   8.612  0.1411  0.1402 -0.0742
   93loPI   C3B 1487   9.991  15.184   8.250 -0.1625  0.1811  0.0816
   93loPI   C4B 1488  10.184  15.209   7.858  0.0846  0.0148 -0.2881
   94loPI    C1 1489  10.772  17.352   9.817  0.0780 -0.2978 -0.1606
   94loPI    C2 1490  10.723  16.976   9.945  0.0891 -0.2712 -0.0790
   94loPI    C3 1491  11.044  17.186  10.059 -0.0815 -0.1253  0.1419
   94loPI   PO4 1492  10.686  17.378   9.612  0.1798  0.2110 -0.0853
   94loPI   GL1 1493  10.551  17.701   9.376 -0.0247 -0.1004  0.0201
   94loPI   GL2 1494  10.855  17.731   9.269 -0.1602  0.1710 -0.2061
   94loPI   C1A 1495  10.391  17.481   8.928  0.3690  0.0778 -0.4263
   94loPI   C2A 1496  10.557  17.469   8.480  0.0491 -0.1714 -0.3715
   94loPI   C3A 1497  10.785  17.275   8.127  0.1408  0.0815  0.3743
   94loPI   C4A 1498  10.992  17.161   7.769 -0.0165  0.2299 -0.2161
   94loPI   C5A 1499  10.695  17.010   7.425  0.1093  0.1593 -0.2131
   94loPI   C6A 1500  10.359  17.168   7.121  0.0375 -0.0052 -0.3159
   94loPI   C1B 1501  10.888  17.618   8.877  0.4433  0.1756  0.0539
   94loPI   C2B 1502  10.947  17.850   8.498  0.0281 -0.1641 -0.3362
   94loPI   C3B 1503  10.957  17.743   8.069  0.0150  0.1173 -0.3830
   94loPI   C4B 1504  11.168  17.830   7.687  0.0532 -0.0016 -0.3375
   95loPI    C1 1505   9.006   1.652   9.621  0.0479  0.1005  0.2104
   95loPI    C2 1506   9.280   1.935   9.554  0.0487  0.0167 -0.1625
   95loPI    C3 1507   9.381   1.602   9.750  0.1340  0.1221 -0.0257
   95loPI   PO4 1508   8.901   1.623   9.506  0.0365 -0.3557 -0.2648
   95loPI   GL1 1509   8.818   1.756   9.100 -0.0784 -0.0690 -0.0170
   95loPI   GL2 1510   9.208   1.807   9.086  0.1059 -0.0326  0.5761
   95loPI   C1A 1511   9.038   1.637   8.634  0.1111  0.1125 -0.0802
   95loPI   C2A 1512   8.985   1.528   8.317  0.4107  0.1774  0.1833
   95loPI   C3A 1513   8.980   1.391   7.939 -0.0291 -0.1434 -0.0412
   95loPI   C4A 1514   8.821   1.574   7.527 -0.0656  0.1965  0.0301
   95loPI   C5A 1515   9.017   1.506   7.123 -0.0426 -0.0375 -0.1036
   95loPI   C6A 1516   9.112   1.600   6.732  0.0375  0.0348  0.0021
   95loPI   C1B 1517   9.504   1.779   8.674 -0.2684 -0.1846  0.0275
   95loPI   C2B 1518   9.441   1.520   8.250 -0.0288 -0.0243  0.3429
   95loPI   C3B 1519   9.430   1.535   7.781 -0.0754  0.1244 -0.1776
   95loPI   C4B 1520   9.504   1.529   7.304  0.2868 -0.2081  0.2349
   96loPI    C1 1521  11.096  16.292   9.712  0.1124  0.1017  0.0189
   96loPI    C2 1522  10.804  16.023   9.762 -0.1207  0.2940 -0.2748
   96loPI    C3 1523  11.180  15.901   9.698 -0.1500  0.0439  0.0082
   96loPI   PO4 1524  10.939  16.472   9.524  0.1813  0.3114 -0.1830
   96loPI   GL1 1525  10.793  16.513   9.137  0.0726  0.0455  0.1369
   96loPI   GL2 1526  10.834  16.110   9.144  0.3739  0.0144  0.1874
   96loPI   C1A 1527  10.779  16.422   8.717 -0.0090 -0.1537 -0.1341
   96loPI   C2A 1528  10.816  16.397   8.262  0.0918  0.0604 -0.3762
   96loPI   C3A 1529  10.936  16.202   7.904  0.0717 -0.6605  0.1150
   96loPI   C4A 1530  10.817  15.932   7.574 -0.2883  0.2675  0.1472
   96loPI   C5A 1531  10.596  15.820   7.207  0.3013  0.1624 -0.1346
   96loPI   C6A 1532  10.520  15.480   7.315  0.1654 -0.1435 -0.1104
   96loPI   C1B 1533  10.439  16.059   8.851 -0.1554  0.2656  0.0800
   96loPI   C2B 1534  10.269  16.243   8.509 -0.0752 -0.2803 -0.1349
   96loPI   C3B 1535  10.387  16.172   8.043 -0.0575 -0.2960 -0.1274
   96loPI   C4B 1536  10.434  16.175   7.536 -0.4467 -0.0040  0.4669
   97loPI    C1 1537  13.377   6.700   9.773 -0.0274 -0.1704 -0.0720
   97loPI    C2 1538  13.770   6.760   9.812 -0.0039 -0.2888 -0.1227
   97loPI    C3 1539  13.521   6.868  10.106  0.0761 -0.3007 -0.0503
   97loPI   PO4 1540  13.458   6.733   9.435  0.0114  0.0280 -0.2662
   97loPI   GL1 1541  13.469   6.927   9.033 -0.0551  0.0112  0.4343
   97loPI   GL2 1542  13.155   6.918   8.866  0.1082  0.0004 -0.4253
   97loPI   C1A 1543  13.634   6.778   8.646 -0.0277  0.0663  0.2440
   97loPI   C2A 1544  13.650   6.836   8.264  0.1509 -0.0437 -0.0045
   97loPI   C3A 1545  13.551   6.764   7.852  0.0997 -0.1124  0.5554
   97loPI   C4A 1546  13.218   6.383   7.685  0.1785 -0.0397  0.0111
   97loPI   C5A 1547  13.216   5.899   7.512  0.0342 -0.1278  0.1601
   97loPI   C6A 1548  13.662   5.681   7.419  0.2001 -0.1071 -0.2096
   97loPI   C1B 1549  13.155   6.715   8.476  0.3017  0.0576  0.1221
   97loPI   C2B 1550  13.056   6.558   8.204 -0.0924 -0.0407 -0.1141
   97loPI   C3B 1551  13.065   6.091   8.112  0.0426 -0.1000 -0.1297
   97loPI   C4B 1552  12.999   5.772   7.945  0.2858  0.0407  0.2276
   98loPI    C1 1553  13.994   5.995   9.595 -0.2359 -0.1416  0.1654
   98loPI    C2 1554  14.007   6.395   9.614  0.0249 -0.1290 -0.1915
   98loPI    C3 1555  14.057   6.177   9.946  0.1488  0.1298 -0.0371
   98loPI   PO4 1556  14.164   5.939   9.468  0.0930  0.0912  0.1273
   98loPI   GL1 1557  14.460   6.054   9.130 -0.0347  0.0800 -0.1352
   98loPI   GL2 1558  14.551   5.826   8.918  0.3921  0.0478 -0.0797
   98loPI   C1A 1559  14.208   6.136   8.735 -0.0075  0.1388 -0.0426
   98loPI   C2A 1560  14.057   6.351   8.402 -0.2727 -0.1515  0.1584
   98loPI   C3A 1561  14.115   6.422   7.930 -0.3300 -0.2008  0.0434
   98loPI   C4A 1562  14.246   6.326   7.561  0.0264  0.0050  0.0230
   98loPI   C5A 1563  14.700   6.364   7.350  0.1614  0.0526 -0.2005
   98loPI   C6A 1564  14.962   6.761   7.283  0.1790 -0.0362 -0.1633
   98loPI   C1B 1565  14.572   5.866   8.475  0.1950  0.0741 -0.4033
   98loPI   C2B 1566  14.841   5.870   8.122 -0.2063  0.0606 -0.0952
   98loPI   C3B 1567  15.020   6.022   7.845 -0.0511  0.0611  0.1557
   98loPI   C4B 1568  15.135   6.273   7.601 -0.1441 -0.2397  0.0210
   99loPI    C1 1569  12.231  17.805   9.832 -0.0194  0.0352  0.1007
   99loPI    C2 1570  12.001  18.032  10.068 -0.0165  0.2411 -0.0912
   99loPI    C3 1571  12.400  18.067  10.082 -0.0150  0.2285 -0.1021
   99loPI   PO4 1572  12.184  17.838   9.560 -0.2134  0.0138  0.3868
   99loPI   GL1 1573  12.383  17.749   9.281 -0.0156  0.0878  0.0637
   99loPI   GL2 1574  12.134  17.490   9.240 -0.0345 -0.0593  0.2688
   99loPI   C1A 1575  12.477  17.580   8.859  0.1238  0.1553 -0.1951
   99loPI   C2A 1576  12.282  17.408   8.438  0.1385  0.1004  0.2312
   99loPI   C3A 1577  12.446  17.359   7.986  0.0712 -0.0706  0.2474
   99loPI   C4A 1578  12.596  17.292   7.559  0.1166  0.3597 -0.1769
   99loPI   C5A 1579  12.517  16.890   7.295  0.1083  0.1652 -0.1323
   99loPI   C6A 1580  12.518  16.531   7.051  0.1087 -0.2960 -0.1873
   99loPI   C1B 1581  11.926  17.498   8.818 -0.2556  0.0145 -0.1955
   99loPI   C2B 1582  11.756  17.327   8.490 -0.0901  0.2123  0.2489
   99loPI   C3B 1583  11.933  17.232   8.092 -0.3464  0.0651 -0.0069
   99loPI   C4B 1584  12.063  17.326   7.597  0.1967 -0.0435 -0.1420
  100loPI    C1 1585   1.444  12.484  10.440  0.1063  0.2795  0.1193
  100loPI    C2 1586   1.301  12.128  10.552  0.0388  0.3302  0.1957
  100loPI    C3 1587   1.694  12.198  10.565  0.1183  0.0560 -0.3908
  100loPI   PO4 1588   1.340  12.443  10.184  0.1341  0.0939  0.0272
  100loPI   GL1 1589   1.507  12.324   9.791 -0.1260 -0.0630  0.1620
  100loPI   GL2 1590   1.785  12.349   9.673  0.0497  0.1423  0.3950
  100loPI   C1A 1591   1.409  12.225   9.328 -0.0564  0.1019  0.2035
  100loPI   C2A 1592   1.356  12.098   8.956 -0.3122 -0.0070  0.3118
  100loPI   C3A 1593   1.485  11.884   8.723 -0.0185  0.0591 -0.1894
  100loPI   C4A 1594   1.876  11.632   8.772 -0.1147  0.0068 -0.2551
  100loPI   C5A 1595   2.106  11.462   9.108  0.2525  0.0546 -0.1804
  100loPI   C6A 1596   2.251  11.526   9.461 -0.2139 -0.0224  0.5504
  100loPI   C1B 1597   1.911  12.414   9.224 -0.2365 -0.0216 -0.1535
  100loPI   C2B 1598   1.936  12.242   8.820  0.1565  0.0190  0.1799
  100loPI   C3B 1599   1.906  12.062   8.475 -0.0243  0.1716 -0.3037
  100loPI   C4B 1600   1.555  12.058   8.284  0.1531 -0.0241  0.3602
  101loPI    C1 1601   2.561  12.786   9.970 -0.4419  0.3021  0.0974
  101loPI    C2 1602   2.385  12.627  10.292 -0.3812 -0.0218 -0.0259
  101loPI    C3 1603   2.702  12.447  10.128 -0.2469  0.2849 -0.1093
  101loPI   PO4 1604   2.400  12.998   9.912  0.2096  0.1239  0.2632
  101loPI   GL1 1605   2.151  12.891   9.627 -0.2014  0.1261 -0.1912
  101loPI   GL2 1606   1.895  13.193   9.554  0.0510 -0.2273 -0.0374
  101loPI   C1A 1607   2.404  12.885   9.187 -0.1002  0.2789  0.0215
  101loPI   C2A 1608   2.379  13.090   8.733 -0.0909 -0.0226  0.1159
  101loPI   C3A 1609   2.581  12.935   8.326  0.0412  0.3968 -0.1647
  101loPI   C4A 1610   2.562  12.921   7.877  0.0351  0.3271  0.0501
  101loPI   C5A 1611   2.342  13.036   7.390  0.0842 -0.0637 -0.0140
  101loPI   C6A 1612   2.152  13.347   7.233 -0.3190 -0.0185  0.3791
  101loPI   C1B 1613   1.893  12.966   9.191 -0.1091  0.0728  0.3864
  101loPI   C2B 1614   2.046  12.722   8.804  0.3965 -0.1961 -0.0699
  101loPI   C3B 1615   2.031  12.532   8.394 -0.1102  0.3168  0.1558
  101loPI   C4B 1616   1.955  12.302   7.932 -0.0403 -0.2452 -0.1099
  102loPI    C1 1617   2.911  17.974   9.762 -0.0306 -0.0215 -0.0831
  102loPI    C2 1618   3.192  18.185   9.952  0.0754 -0.2389  0.0044
  102loPI    C3 1619   2.819  18.328   9.925  0.1299 -0.0717  0.1196
  102loPI   PO4 1620   3.045  17.971   9.482 -0.2074 -0.0668  0.1612
  102loPI   GL1 1621   3.351  18.256   9.156  0.1101 -0.1464 -0.0461
  102loPI   GL2 1622   3.525  18.477   8.879  0.0146  0.1462  0.1752
  102loPI   C1A 1623   3.262  18.134   8.795 -0.4029 -0.0534 -0.1353
  102loPI   C2A 1624   3.024  17.960   8.437  0.1495 -0.1408  0.0799
  102loPI   C3A 1625   3.053  17.836   7.933  0.2205  0.1241 -0.1043
  102loPI   C4A 1626   3.084  18.103   7.499 -0.0127 -0.1771  0.0840
  102loPI   C5A 1627   2.814  18.257   7.193  0.0589  0.1424  0.2207
  102loPI   C6A 1628   2.503  18.267   6.972  0.0002 -0.0645  0.1386
  102loPI   C1B 1629   3.665  18.675   8.539  0.0224  0.1626 -0.1385
  102loPI   C2B 1630   3.560  18.701   8.051  0.2525 -0.2852  0.0620
  102loPI   C3B 1631   3.433  18.709   7.598 -0.0239 -0.0510 -0.2141
  102loPI   C4B 1632   3.123  18.616   7.288 -0.1275 -0.0281  0.1728
  103loPI    C1 1633   3.488  16.144   9.674  0.2990 -0.1272 -0.0560
  103loPI    C2 1634   3.814  16.030   9.876  0.2361  0.2938  0.2983
  103loPI    C3 1635   3.469  16.089  10.070 -0.0271 -0.0328 -0.0554
  103loPI   PO4 1636   3.522  16.015   9.490 -0.1731 -0.0930  0.1719
  103loPI   GL1 1637   3.365  15.837   9.081  0.3268  0.1057 -0.2228
  103loPI   GL2 1638   3.528  16.055   8.984  0.1560  0.2438 -0.1034
  103loPI   C1A 1639   3.173  15.696   8.673 -0.0356 -0.0063 -0.0705
  103loPI   C2A 1640   3.179  15.855   8.263  0.0940  0.0056  0.0506
  103loPI   C3A 1641   3.132  15.755   7.812 -0.1135 -0.2254  0.0181
  103loPI   C4A 1642   2.900  15.661   7.433  0.2923 -0.0360  0.0291
  103loPI   C5A 1643   2.434  15.745   7.330 -0.1707  0.2396  0.2219
  103loPI   C6A 1644   2.207  15.506   7.003 -0.0306 -0.1271 -0.0005
  103loPI   C1B 1645   3.678  15.899   8.613 -0.1713  0.0512 -0.3554
  103loPI   C2B 1646   3.850  15.629   8.240  0.1907  0.1344  0.1557
  103loPI   C3B 1647   3.974  15.443   7.905  0.1150  0.0069  0.0595
  103loPI   C4B 1648   3.897  15.556   7.435  0.3591  0.0187  0.2739
  104loPI    C1 1649  13.961  16.851   9.650  0.0141  0.0953 -0.0385
  104loPI    C2 1650  13.702  16.614   9.458  0.0867  0.0043 -0.0251
  104loPI    C3 1651  13.779  16.554   9.846  0.0148  0.1259  0.0086
  104loPI   PO4 1652  13.949  17.039   9.488 -0.0082 -0.3943 -0.1651
  104loPI   GL1 1653  13.868  17.145   9.070  0.0375  0.3625  0.2892
  104loPI   GL2 1654  14.195  16.998   9.010  0.1451 -0.0776 -0.2187
  104loPI   C1A 1655  13.877  17.247   8.634 -0.0394  0.1796 -0.1052
  104loPI   C2A 1656  13.837  17.425   8.159 -0.2239  0.1503 -0.0788
  104loPI   C3A 1657  13.879  17.357   7.791 -0.0376 -0.1360 -0.0272
  104loPI   C4A 1658  14.091  17.330   7.476 -0.2082 -0.0047 -0.0337
  104loPI   C5A 1659  14.390  17.215   7.225 -0.0865  0.2908  0.2342
  104loPI   C6A 1660  14.784  17.281   7.172 -0.1404  0.2983 -0.0107
  104loPI   C1B 1661  14.295  16.934   8.602 -0.1047 -0.0500 -0.0649
  104loPI   C2B 1662  14.283  17.212   8.277 -0.1206 -0.1675 -0.2752
  104loPI   C3B 1663  14.345  17.463   8.004 -0.0492  0.1716  0.2004
  104loPI   C4B 1664  14.474  17.642   7.518  0.3537 -0.0970 -0.0924
  105loPI    C1 1665  17.013  18.654   9.482  0.0282 -0.1008 -0.0734
  105loPI    C2 1666  17.222  18.799   9.791 -0.2007  0.2442 -0.0751
  105loPI    C3 1667  16.855  18.650   9.849 -0.0887 -0.0563 -0.1227
  105loPI   PO4 1668  16.980  18.779   9.336 -0.2378 -0.1343 -0.1865
  105loPI   GL1 1669  16.982  18.932   8.912 -0.3160  0.2178  0.0071
  105loPI   GL2 1670  16.655  19.046   9.081  0.1613  0.1399  0.1152
  105loPI   C1A 1671  16.964  18.890   8.528  0.1675  0.0317 -0.2031
  105loPI   C2A 1672  17.140  18.622   8.278  0.1389 -0.3241  0.1063
  105loPI   C3A 1673  17.406  18.413   7.973 -0.0568  0.0421 -0.0696
  105loPI   C4A 1674  17.443  18.494   7.577 -0.5668  0.2179 -0.1887
  105loPI   C5A 1675  17.659  18.398   7.200  0.0603 -0.0180 -0.0822
  105loPI   C6A 1676  17.778  18.650   6.885  0.3025  0.1171 -0.1033
  105loPI   C1B 1677  16.388  18.977   8.785 -0.0390 -0.3586  0.0025
  105loPI   C2B 1678  16.211  18.996   8.341  0.0033 -0.1301  0.0644
  105loPI   C3B 1679  16.254  18.987   7.932  0.3665  0.1215 -0.3848
  105loPI   C4B 1680  16.157  19.011   7.574 -0.1736  0.2117 -0.1614
  106loPI    C1 1681  16.851  12.781   9.681 -0.3533 -0.3216 -0.1351
  106loPI    C2 1682  16.948  12.506   9.955 -0.0423  0.1732  0.2715
  106loPI    C3 1683  16.682  12.791  10.043  0.0151  0.3025  0.0359
  106loPI   PO4 1684  16.774  12.693   9.435 -0.2129  0.1916 -0.0250
  106loPI   GL1 1685  16.735  12.684   8.957  0.3203 -0.1531  0.3797
  106loPI   GL2 1686  16.333  12.641   8.810  0.1086 -0.6517 -0.0781
  106loPI   C1A 1687  16.736  12.467   8.550  0.0505  0.3775 -0.0605
  106loPI   C2A 1688  16.598  12.667   8.129 -0.0137  0.2670 -0.1016
  106loPI   C3A 1689  16.391  12.655   7.732  0.1604 -0.1392 -0.2137
  106loPI   C4A 1690  16.387  12.805   7.368 -0.0917  0.2227  0.0339
  106loPI   C5A 1691  16.306  12.735   6.818 -0.0615  0.2800  0.4506
  106loPI   C6A 1692  16.372  12.672   6.335 -0.2116  0.1480 -0.2534
  106loPI   C1B 1693  16.238  12.448   8.406 -0.1767 -0.4107  0.3626
  106loPI   C2B 1694  16.493  12.195   8.047  0.2440  0.1984  0.0384
  106loPI   C3B 1695  16.739  12.196   7.597 -0.0656  0.0305  0.0108
  106loPI   C4B 1696  16.564  12.164   7.283  0.2221 -0.0516 -0.0321
  107loPI    C1 1697  15.221   9.824   9.553  0.0401  0.0597 -0.0843
  107loPI    C2 1698  14.859   9.693   9.662  0.0294  0.0185 -0.1681
  107loPI    C3 1699  15.159   9.697   9.927 -0.0550  0.1381 -0.0730
  107loPI   PO4 1700  15.126  10.143   9.433 -0.1412  0.1981  0.0739
  107loPI   GL1 1701  14.995  10.445   9.031  0.2044 -0.3623  0.2480
  107loPI   GL2 1702  14.851  10.763   9.018 -0.1108 -0.1835  0.3583
  107loPI   C1A 1703  14.790  10.277   8.621  0.1812  0.1779 -0.2506
  107loPI   C2A 1704  14.659  10.178   8.226  0.0348 -0.1430  0.0192
  107loPI   C3A 1705  14.760   9.941   7.865  0.1165  0.0153  0.1040
  107loPI   C4A 1706  15.152  10.050   7.688 -0.1592  0.1776 -0.0837
  107loPI   C5A 1707  15.424  10.329   7.422 -0.1077  0.0194  0.0570
  107loPI   C6A 1708  15.657  10.651   7.216  0.1150 -0.3600  0.2695
  107loPI   C1B 1709  14.928  10.730   8.574 -0.2178  0.0725 -0.0457
  107loPI   C2B 1710  14.810  10.877   8.165  0.1130  0.0850  0.1051
  107loPI   C3B 1711  14.918  11.004   7.907 -0.4658  0.1078  0.1623
  107loPI   C4B 1712  14.820  10.920   7.529 -0.0547 -0.1185  0.0258
  108loPI    C1 1713   6.767  12.207   9.796 -0.2590 -0.0045  0.0521
  108loPI    C2 1714   6.817  12.261  10.189 -0.0473 -0.0357  0.0308
  108loPI    C3 1715   6.836  11.892  10.033 -0.2422 -0.0360  0.0059
  108loPI   PO4 1716   6.823  12.396   9.691 -0.4101 -0.2462 -0.2340
  108loPI   GL1 1717   6.783  12.333   9.278  0.0469  0.0556 -0.0039
  108loPI   GL2 1718   6.645  12.095   9.131 -0.0374  0.0399 -0.1631
  108loPI   C1A 1719   6.610  12.507   8.828 -0.1718  0.0502  0.2450
  108loPI   C2A 1720   6.577  12.607   8.366 -0.3725  0.0554 -0.3601
  108loPI   C3A 1721   6.812  12.737   8.089  0.0548  0.0646 -0.1642
  108loPI   C4A 1722   6.910  13.020   7.690  0.0669 -0.2431 -0.0963
  108loPI   C5A 1723   7.316  13.071   7.402 -0.3458 -0.1319 -0.1737
  108loPI   C6A 1724   7.733  13.025   7.466 -0.2913 -0.3956  0.0485
  108loPI   C1B 1725   6.807  12.049   8.672  0.2033 -0.3863  0.0886
  108loPI   C2B 1726   6.732  11.970   8.197  0.0086  0.1124 -0.2327
  108loPI   C3B 1727   6.666  12.274   7.858  0.2846  0.0537 -0.1881
  108loPI   C4B 1728   6.636  12.582   7.587 -0.3663 -0.1116  0.1768
  109loPI    C1 1729   7.841   7.608   9.599  0.0340  0.0514  0.0568
  109loPI    C2 1730   7.836   7.994   9.701 -0.0893  0.0197  0.1726
  109loPI    C3 1731   7.789   7.713   9.981 -0.0298 -0.0786  0.0843
  109loPI   PO4 1732   7.649   7.629   9.402 -0.3396  0.2298  0.1613
  109loPI   GL1 1733   7.624   7.789   9.026  0.0321 -0.1129  0.0806
  109loPI   GL2 1734   7.325   7.530   8.991  0.1224 -0.0033 -0.0149
  109loPI   C1A 1735   8.029   8.076   8.906  0.2140 -0.4370 -0.3494
  109loPI   C2A 1736   8.369   8.175   8.691 -0.1943  0.1217  0.2306
  109loPI   C3A 1737   8.320   8.339   8.259  0.1235  0.0915 -0.1011
  109loPI   C4A 1738   8.294   8.707   7.994  0.2809 -0.2705  0.2288
  109loPI   C5A 1739   7.991   8.892   7.714  0.0769  0.2655  0.2769
  109loPI   C6A 1740   7.784   8.854   7.352  0.2962 -0.1457 -0.1407
  109loPI   C1B 1741   7.565   7.462   8.594  0.1916 -0.1809  0.1402
  109loPI   C2B 1742   7.561   7.130   8.193 -0.1899 -0.2252 -0.2759
  109loPI   C3B 1743   7.646   7.109   7.867 -0.0599 -0.0920 -0.1185
  109loPI   C4B 1744   7.936   7.399   7.562 -0.1049  0.2569 -0.0630
  110loPI    C1 1745   6.841  17.755   9.757 -0.0680 -0.2417 -0.1002
  110loPI    C2 1746   6.588  17.499   9.931 -0.1462 -0.1462 -0.0728
  110loPI    C3 1747   6.955  17.550  10.081 -0.2021 -0.0884  0.0462
  110loPI   PO4 1748   6.674  17.684   9.403 -0.0524 -0.2106 -0.3130
  110loPI   GL1 1749   6.681  17.370   9.109 -0.2007 -0.1814  0.0839
  110loPI   GL2 1750   6.809  17.173   9.080  0.0152 -0.3339 -0.0971
  110loPI   C1A 1751   6.645  17.470   8.692  0.0376  0.0326 -0.0386
  110loPI   C2A 1752   6.400  17.443   8.322  0.0385  0.2145  0.0646
  110loPI   C3A 1753   6.376  17.589   7.839 -0.1604  0.0490  0.4546
  110loPI   C4A 1754   6.512  17.518   7.398  0.0378  0.0373 -0.0330
  110loPI   C5A 1755   6.305  17.405   7.062 -0.1338 -0.1531  0.0970
  110loPI   C6A 1756   6.247  17.189   6.717  0.0225  0.1957 -0.0702
  110loPI   C1B 1757   6.997  16.949   8.810 -0.2756 -0.0396 -0.0299
  110loPI   C2B 1758   6.795  16.634   8.582 -0.1075  0.1500  0.0027
  110loPI   C3B 1759   6.806  16.540   8.150  0.3212 -0.0068 -0.2804
  110loPI   C4B 1760   6.589  16.702   7.902 -0.0981 -0.1583 -0.1580
  111loPI    C1 1761   6.466  11.347   9.637 -0.1913  0.0706  0.0383
  111loPI    C2 1762   6.186  11.580   9.803 -0.2097 -0.0471  0.1738
  111loPI    C3 1763   6.512  11.479  10.012 -0.0604  0.0976  0.0134
  111loPI   PO4 1764   6.341  11.406   9.344  0.1772  0.1934  0.1302
  111loPI   GL1 1765   6.107  11.302   9.001  0.1562  0.0228 -0.0542
  111loPI   GL2 1766   6.334  11.183   8.783  0.0105 -0.2374  0.1448
  111loPI   C1A 1767   5.769  11.567   8.685 -0.0859 -0.0067  0.4216
  111loPI   C2A 1768   5.644  11.442   8.260 -0.3496  0.0075 -0.0781
  111loPI   C3A 1769   5.289  11.473   8.106  0.1736  0.0638 -0.0447
  111loPI   C4A 1770   5.107  11.782   7.940  0.1448 -0.1074  0.1531
  111loPI   C5A 1771   4.821  12.216   7.859  0.1506 -0.3074  0.1297
  111loPI   C6A 1772   4.644  12.435   7.535 -0.0791 -0.3044 -0.0062
  111loPI   C1B 1773   6.749  11.060   8.586 -0.1957  0.0776 -0.4789
  111loPI   C2B 1774   6.806  10.980   8.214 -0.3113 -0.1408  0.1296
  111loPI   C3B 1775   6.871  10.837   7.874 -0.0581  0.1152 -0.0798
  111loPI   C4B 1776   6.972  10.686   7.483 -0.0056  0.0814  0.0275
  112loPI    C1 1777   5.632   2.406   9.577 -0.0477 -0.0974  0.0043
  112loPI    C2 1778   5.279   2.300   9.730 -0.1089 -0.1208 -0.1513
  112loPI    C3 1779   5.353   2.683   9.645  0.0583 -0.0536  0.2723
  112loPI   PO4 1780   5.679   2.329   9.340 -0.0378 -0.2698 -0.1007
  112loPI   GL1 1781   5.852   2.016   9.027 -0.1060  0.0061 -0.2845
  112loPI   GL2 1782   5.999   2.273   8.963  0.0849 -0.0498 -0.0690
  112loPI   C1A 1783   6.017   1.727   8.661 -0.0755 -0.1296 -0.0491
  112loPI   C2A 1784   6.134   1.661   8.208 -0.2633  0.0378  0.1386
  112loPI   C3A 1785   6.317   1.570   7.835 -0.2161  0.2137  0.0691
  112loPI   C4A 1786   6.561   1.751   7.474 -0.2905 -0.0115  0.0284
  112loPI   C5A 1787   6.552   2.160   7.254 -0.0432 -0.1310 -0.1499
  112loPI   C6A 1788   6.845   2.636   7.118 -0.1971 -0.1303  0.0881
  112loPI   C1B 1789   5.953   2.465   8.587 -0.1503  0.0568  0.3356
  112loPI   C2B 1790   5.713   2.537   8.306 -0.0570 -0.0059  0.0490
  112loPI   C3B 1791   5.626   2.374   8.007 -0.4435 -0.0115  0.3028
  112loPI   C4B 1792   5.729   2.462   7.582 -0.4191 -0.0565 -0.1944
  113loPI    C1 1793   1.473  15.506   9.861  0.0839 -0.0676  0.0969
  113loPI    C2 1794   1.590  15.695  10.193 -0.1583  0.4041 -0.0768
  113loPI    C3 1795   1.204  15.604  10.140 -0.0679 -0.0028 -0.0695
  113loPI   PO4 1796   1.532  15.561   9.614 -0.0005 -0.0997  0.0184
  113loPI   GL1 1797   1.776  15.275   9.317 -0.2892  0.3229  0.3107
  113loPI   GL2 1798   1.987  15.384   9.167 -0.0516  0.1632 -0.0665
  113loPI   C1A 1799   1.821  14.887   9.112  0.3234 -0.2221 -0.1380
  113loPI   C2A 1800   1.770  14.650   8.704 -0.0941  0.0619 -0.1547
  113loPI   C3A 1801   1.930  14.558   8.279  0.1469 -0.2347 -0.1149
  113loPI   C4A 1802   1.854  14.466   7.921  0.2007  0.1856 -0.0877
  113loPI   C5A 1803   1.902  14.255   7.563 -0.3246  0.1111 -0.1616
  113loPI   C6A 1804   1.865  14.020   7.124  0.1249 -0.1136  0.0093
  113loPI   C1B 1805   2.197  15.079   8.871  0.1604  0.0225  0.2100
  113loPI   C2B 1806   2.503  15.007   8.559  0.1570 -0.0688  0.3561
  113loPI   C3B 1807   2.708  14.916   8.199  0.4874  0.0453  0.0743
  113loPI   C4B 1808   2.761  14.776   7.839 -0.5564 -0.1683 -0.0069
  114loPI    C1 1809   4.148   1.545   9.832  0.3397  0.0215  0.0415
  114loPI    C2 1810   3.832   1.300   9.831  0.2450  0.1408  0.2025
  114loPI    C3 1811   3.827   1.631  10.055  0.3642  0.3014 -0.0276
  114loPI   PO4 1812   4.247   1.533   9.558  0.1106 -0.0200  0.0677
  114loPI   GL1 1813   4.485   1.763   9.286  0.0781 -0.0010  0.2396
  114loPI   GL2 1814   4.185   1.759   9.056 -0.2000 -0.0997  0.0615
  114loPI   C1A 1815   4.758   1.700   8.930  0.3165 -0.1626 -0.1241
  114loPI   C2A 1816   4.700   1.749   8.575  0.3267 -0.2916  0.0933
  114loPI   C3A 1817   4.665   1.870   8.157  0.0189  0.1587 -0.0459
  114loPI   C4A 1818   4.609   2.170   7.906 -0.3322 -0.0335  0.1305
  114loPI   C5A 1819   4.502   2.152   7.549  0.1067 -0.1300 -0.1329
  114loPI   C6A 1820   4.251   2.445   7.226  0.3037 -0.2118 -0.3857
  114loPI   C1B 1821   4.098   1.672   8.658 -0.2717  0.2030 -0.1932
  114loPI   C2B 1822   4.217   1.696   8.327 -0.1909  0.0390 -0.0017
  114loPI   C3B 1823   4.221   1.756   7.888  0.2217 -0.1850  0.3741
  114loPI   C4B 1824   4.344   1.648   7.532 -0.2071 -0.1860 -0.1198
  115loPI    C1 1825   6.992  16.296   9.803 -0.0188  0.2712 -0.2018
  115loPI    C2 1826   7.205  16.587   9.976  0.2580  0.1712 -0.3662
  115loPI    C3 1827   7.329  16.208  10.001 -0.2296  0.0269  0.0582
  115loPI   PO4 1828   6.906  16.304   9.549  0.1310 -0.3075  0.2357
  115loPI   GL1 1829   6.885  16.156   9.137 -0.1725 -0.3918  0.1575
  115loPI   GL2 1830   6.898  15.876   9.306  0.0002 -0.2702  0.0975
  115loPI   C1A 1831   6.865  16.129   8.664  0.2867  0.0502 -0.1806
  115loPI   C2A 1832   6.714  16.083   8.344 -0.2388  0.1316 -0.3430
  115loPI   C3A 1833   6.504  16.031   8.004  0.1671  0.2873  0.3335
  115loPI   C4A 1834   6.595  15.866   7.638  0.1253  0.2455  0.0663
  115loPI   C5A 1835   6.736  15.599   7.333  0.0995 -0.1925  0.1394
  115loPI   C6A 1836   7.004  15.139   7.224  0.2091  0.1521  0.4223
  115loPI   C1B 1837   7.038  15.570   9.163 -0.0843  0.2799  0.2604
  115loPI   C2B 1838   7.257  15.246   8.913 -0.1158  0.0651 -0.2190
  115loPI   C3B 1839   7.174  15.289   8.443 -0.2105  0.1122 -0.2037
  115loPI   C4B 1840   7.055  15.107   8.043 -0.3309 -0.1207 -0.2887
  116loPI    C1 1841   5.617   0.085   9.416 -0.0125  0.1819  0.1965
  116loPI    C2 1842   5.908   0.132   9.687 -0.1000  0.0366  0.3170
  116loPI    C3 1843   5.527   0.208   9.786 -0.1231  0.0612  0.2105
  116loPI   PO4 1844   5.748   0.208   9.144 -0.1631 -0.0973 -0.0292
  116loPI   GL1 1845   5.898   0.133   8.775  0.0664 -0.1778  0.0493
  116loPI   GL2 1846   5.614  -0.086   8.754 -0.0268 -0.2564 -0.1326
  116loPI   C1A 1847   5.788   0.086   8.239 -0.1111 -0.1099 -0.0076
  116loPI   C2A 1848   5.794   0.304   7.827 -0.0742  0.1983  0.1883
  116loPI   C3A 1849   5.723   0.470   7.371  0.1176  0.0688  0.2914
  116loPI   C4A 1850   5.563   0.777   7.061 -0.1029  0.1758  0.2817
  116loPI   C5A 1851   5.445   1.010   6.664  0.0168  0.0805  0.0899
  116loPI   C6A 1852   5.312   1.273   6.378 -0.1045  0.0353 -0.0072
  116loPI   C1B 1853   5.603  -0.377   8.280 -0.0699  0.2583 -0.0556
  116loPI   C2B 1854   5.610  -0.339   7.899  0.0415  0.0239 -0.1256
  116loPI   C3B 1855   5.392  -0.356   7.524  0.0479  0.0624 -0.0796
  116loPI   C4B 1856   5.390  -0.570   7.169 -0.2563  0.1475  0.0839
  117loPI    C1 1857  18.361  11.061  10.387  0.0019  0.0255  0.0323
  117loPI    C2 1858  18.168  11.264  10.672 -0.1323 -0.1070  0.0371
  117loPI    C3 1859  18.272  10.883  10.734  0.1243 -0.0401  0.0306
  117loPI   PO4 1860  18.210  11.109  10.147 -0.0641  0.1688 -0.0796
  117loPI   GL1 1861  18.265  11.093   9.622  0.1430  0.4162 -0.1767
  117loPI   GL2 1862  18.283  11.306   9.379 -0.1665 -0.3037  0.0820
  117loPI   C1A 1863  18.487  10.785   9.337  0.1442 -0.0012  0.2508
  117loPI   C2A 1864  18.641  10.553   8.956 -0.1014  0.3170 -0.1640
  117loPI   C3A 1865  18.618  10.540   8.514  0.1899  0.1833 -0.1208
  117loPI   C4A 1866  18.595  10.392   8.222 -0.0332  0.1625  0.0600
  117loPI   C5A 1867  18.497  10.238   7.891 -0.2204  0.0077  0.0573
  117loPI   C6A 1868  18.547  10.105   7.444 -0.0489  0.0320 -0.1628
  117loPI   C1B 1869  18.151  11.424   8.887 -0.0782  0.0153  0.1896
  117loPI   C2B 1870  18.244  11.320   8.410 -0.2536 -0.1124 -0.0062
  117loPI   C3B 1871  18.300  11.332   7.952 -0.2648  0.2314 -0.1028
  117loPI   C4B 1872  18.210  11.508   7.546 -0.1554 -0.1327  0.1848
  118loPI    C1 1873   9.161   9.534   9.618  0.0041  0.5422 -0.1873
  118loPI    C2 1874   9.000   9.268   9.869  0.2727  0.3364 -0.2289
  118loPI    C3 1875   8.783   9.414   9.566  0.1935 -0.0152 -0.3466
  118loPI   PO4 1876   9.425   9.396   9.538  0.2707 -0.1919  0.0581
  118loPI   GL1 1877   9.583   9.287   9.195  0.0052  0.1746 -0.2854
  118loPI   GL2 1878   9.438   9.542   8.953 -0.1532  0.5377  0.0478
  118loPI   C1A 1879   9.730   8.995   8.905 -0.1069  0.2081  0.3023
  118loPI   C2A 1880   9.608   8.894   8.503 -0.0200 -0.1441 -0.0289
  118loPI   C3A 1881   9.555   8.670   8.101  0.0631  0.2564  0.4572
  118loPI   C4A 1882   9.643   8.482   7.693 -0.1023  0.0957 -0.0184
  118loPI   C5A 1883   9.628   8.255   7.352  0.2024  0.1458 -0.2284
  118loPI   C6A 1884   9.400   8.164   7.011  0.2625 -0.3097 -0.0484
  118loPI   C1B 1885   9.762   9.359   8.574 -0.1427  0.2750 -0.0009
  118loPI   C2B 1886  10.074   9.463   8.344  0.1680 -0.2744 -0.1571
  118loPI   C3B 1887  10.138   9.417   7.938 -0.1148  0.1113  0.0945
  118loPI   C4B 1888  10.086   9.396   7.621 -0.0948 -0.3400 -0.1030
  119loPI    C1 1889  16.407  10.473   9.153 -0.1587 -0.3460  0.0320
  119loPI    C2 1890  16.567  10.384   9.509 -0.0759 -0.0929  0.0601
  119loPI    C3 1891  16.776  10.598   9.244 -0.2106 -0.1169 -0.0664
  119loPI   PO4 1892  16.133  10.569   9.205 -0.2008 -0.0020 -0.0726
  119loPI   GL1 1893  15.889  10.659   8.968 -0.2435  0.0989 -0.0287
  119loPI   GL2 1894  16.065  10.441   8.759 -0.1075  0.1236 -0.3308
  119loPI   C1A 1895  16.036  10.920   8.591 -0.0018 -0.1303 -0.3053
  119loPI   C2A 1896  15.939  10.838   8.220 -0.0207  0.2010 -0.2454
  119loPI   C3A 1897  15.774  11.084   7.839 -0.3020  0.1048 -0.1441
  119loPI   C4A 1898  15.720  11.096   7.437 -0.0729 -0.1835 -0.3838
  119loPI   C5A 1899  15.648  11.113   7.030 -0.2866 -0.0620 -0.1017
  119loPI   C6A 1900  15.266  10.960   6.814 -0.3533  0.1361  0.1444
  119loPI   C1B 1901  16.276  10.422   8.344  0.2485 -0.0050 -0.2859
  119loPI   C2B 1902  16.456  10.540   7.913  0.0096  0.0147  0.0580
  119loPI   C3B 1903  16.545  10.553   7.425  0.0446  0.0219 -0.0226
  119loPI   C4B 1904  16.710  10.417   7.007 -0.0639  0.0505 -0.4821
  120loPI    C1 1905  18.733  15.433   9.590 -0.1630 -0.0909  0.1104
  120loPI    C2 1906  18.808  15.653   9.915  0.1002 -0.1684  0.1047
  120loPI    C3 1907  18.834  15.254   9.933  0.0741 -0.1752 -0.0014
  120loPI   PO4 1908  18.824  15.622   9.372 -0.3987  0.0578  0.0269
  120loPI   GL1 1909  18.762  15.493   8.954  0.0535 -0.5223  0.0884
  120loPI   GL2 1910  19.047  15.312   8.759  0.0389 -0.2852  0.0577
  120loPI   C1A 1911  18.557  15.378   8.575 -0.1765  0.1722  0.2431
  120loPI   C2A 1912  18.455  15.656   8.274  0.4780 -0.0269 -0.1442
  120loPI   C3A 1913  18.514  15.691   7.853 -0.2025  0.3285 -0.2502
  120loPI   C4A 1914  18.327  15.944   7.447 -0.2386  0.2142 -0.3368
  120loPI   C5A 1915  18.227  15.966   7.130  0.0653  0.3476  0.0740
  120loPI   C6A 1916  17.918  15.661   6.950  0.1234 -0.2847 -0.0400
  120loPI   C1B 1917  18.911  14.939   8.681  0.0123  0.0508 -0.1278
  120loPI   C2B 1918  18.868  14.666   8.422  0.1241 -0.1148 -0.0724
  120loPI   C3B 1919  18.844  14.451   7.932  0.4509  0.2100 -0.2284
  120loPI   C4B 1920  18.916  14.350   7.518 -0.1482 -0.0487  0.1830
  121loPI    C1 1921  19.285  13.691   9.700  0.0276 -0.1001 -0.0072
  121loPI    C2 1922  19.360  14.051   9.858 -0.1735 -0.0362 -0.0554
  121loPI    C3 1923  19.556  13.729   9.993  0.0226  0.0936 -0.0266
  121loPI   PO4 1924  19.148  13.883   9.399 -0.2842  0.0741  0.1544
  121loPI   GL1 1925  19.263  14.062   9.006  0.2517  0.3118 -0.0497
  121loPI   GL2 1926  18.930  14.085   8.834  0.2922 -0.1711 -0.3738
  121loPI   C1A 1927  19.308  13.783   8.673  0.3703 -0.1377  0.0879
  121loPI   C2A 1928  19.215  13.608   8.170 -0.1381  0.1325 -0.0475
  121loPI   C3A 1929  19.272  13.336   7.777 -0.2392 -0.1279  0.0635
  121loPI   C4A 1930  19.277  13.018   7.560 -0.1621  0.3980 -0.0235
  121loPI   C5A 1931  19.127  12.672   7.229  0.0990 -0.1912  0.3594
  121loPI   C6A 1932  19.217  12.395   7.068  0.0945 -0.2226  0.3281
  121loPI   C1B 1933  18.956  14.078   8.338 -0.1692  0.1818  0.1504
  121loPI   C2B 1934  19.089  14.067   7.910  0.0303  0.0355 -0.0051
  121loPI   C3B 1935  19.358  14.147   7.496 -0.0002 -0.0397  0.1158
  121loPI   C4B 1936  19.456  13.958   7.099  0.0933  0.1647  0.1572
  122loPI    C1 1937  14.193   7.392   9.613  0.1081  0.0146  0.0406
  122loPI    C2 1938  13.906   7.626   9.461  0.0471 -0.1859 -0.1583
  122loPI    C3 1939  14.032   7.682   9.836  0.0217  0.1528 -0.1975
  122loPI   PO4 1940  14.363   7.428   9.484  0.0888  0.2528 -0.2158
  122loPI   GL1 1941  14.335   7.632   9.157 -0.2697 -0.1340 -0.2058
  122loPI   GL2 1942  14.347   7.988   9.090  0.0539  0.3050 -0.0446
  122loPI   C1A 1943  14.363   7.446   8.723 -0.3135 -0.1118  0.1471
  122loPI   C2A 1944  14.506   7.372   8.291  0.1223  0.1023  0.2403
  122loPI   C3A 1945  14.425   7.410   7.887 -0.2032 -0.0251 -0.3178
  122loPI   C4A 1946  14.370   7.320   7.493 -0.0944  0.1073  0.3691
  122loPI   C5A 1947  14.332   7.455   7.083  0.2368 -0.0929 -0.0294
  122loPI   C6A 1948  14.485   7.492   6.738 -0.0229 -0.0491 -0.4690
  122loPI   C1B 1949  14.393   8.000   8.685  0.1486 -0.0791 -0.1707
  122loPI   C2B 1950  14.623   8.234   8.299 -0.1978  0.0643  0.0008
  122loPI   C3B 1951  14.600   8.333   7.843 -0.0383 -0.0777  0.1295
  122loPI   C4B 1952  14.680   8.178   7.396  0.2115 -0.1527 -0.1387
  123loPI    C1 1953   3.322  15.231   9.968 -0.0906 -0.1542 -0.0655
  123loPI    C2 1954   3.246  14.977  10.267 -0.0934  0.0674  0.1242
  123loPI    C3 1955   3.094  15.347  10.276 -0.0804  0.0806 -0.1446
  123loPI   PO4 1956   3.270  15.106   9.756  0.0921 -0.1344  0.0257
  123loPI   GL1 1957   3.600  14.985   9.524  0.0995 -0.0577  0.0874
  123loPI   GL2 1958   3.917  15.179   9.409  0.2077 -0.2447  0.1728
  123loPI   C1A 1959   3.698  14.985   9.003 -0.2031 -0.2101 -0.1650
  123loPI   C2A 1960   3.865  14.919   8.527  0.2867  0.0170 -0.0325
  123loPI   C3A 1961   3.699  14.958   8.069 -0.0442  0.0384 -0.0889
  123loPI   C4A 1962   3.730  15.087   7.605  0.0122 -0.0431 -0.2163
  123loPI   C5A 1963   4.101  15.110   7.445 -0.1665 -0.0571 -0.2460
  123loPI   C6A 1964   4.300  15.331   7.029 -0.0705 -0.1535  0.0961
  123loPI   C1B 1965   3.980  15.337   8.943 -0.3857 -0.2510  0.3879
  123loPI   C2B 1966   4.239  15.477   8.570 -0.2934 -0.0264 -0.2799
  123loPI   C3B 1967   4.380  15.534   8.184  0.1065  0.2720  0.0381
  123loPI   C4B 1968   4.547  15.578   7.833  0.0748  0.0081 -0.1398
  124loPI    C1 1969   9.837  10.878   9.967  0.0499 -0.1295  0.0830
  124loPI    C2 1970  10.186  10.730  10.095  0.0776 -0.0343  0.1186
  124loPI    C3 1971   9.945  10.920  10.350 -0.0507 -0.1954  0.1190
  124loPI   PO4 1972   9.714  10.630   9.725 -0.1629 -0.1957  0.3211
  124loPI   GL1 1973   9.592  10.473   9.327 -0.3481 -0.1612  0.1828
  124loPI   GL2 1974   9.206  10.639   9.216 -0.2210  0.3167  0.0210
  124loPI   C1A 1975   9.503  10.432   8.933 -0.0372  0.0292 -0.0298
  124loPI   C2A 1976   9.301  10.227   8.641 -0.1976 -0.1982  0.0264
  124loPI   C3A 1977   9.351  10.125   8.212 -0.0249 -0.1116 -0.2888
  124loPI   C4A 1978   9.196   9.811   7.928  0.0098  0.3600 -0.0791
  124loPI   C5A 1979   8.934   9.913   7.584 -0.3680  0.1252  0.1088
  124loPI   C6A 1980   8.852   9.889   7.099 -0.2500  0.4119 -0.3229
  124loPI   C1B 1981   8.919  10.461   8.910  0.0618  0.1598  0.2980
  124loPI   C2B 1982   8.951  10.517   8.476  0.0769 -0.1405  0.6081
  124loPI   C3B 1983   9.314  10.636   8.212  0.0829  0.1290 -0.0009
  124loPI   C4B 1984   9.710  10.438   8.347 -0.1620 -0.1592 -0.0350
  125loPI    C1 1985   6.770  10.392   9.703  0.0418  0.1754 -0.0880
  125loPI    C2 1986   6.881  10.190  10.030 -0.0058 -0.0248 -0.1938
  125loPI    C3 1987   6.969  10.578   9.996 -0.0457  0.0104  0.0786
  125loPI   PO4 1988   6.858  10.269   9.526  0.1218  0.1352 -0.1143
  125loPI   GL1 1989   6.872  10.075   8.983 -0.0307  0.1672  0.1348
  125loPI   GL2 1990   7.180   9.897   8.962 -0.1449  0.0414 -0.1754
  125loPI   C1A 1991   6.741  10.098   8.657 -0.1973  0.1134 -0.2928
  125loPI   C2A 1992   6.679  10.088   8.213  0.3249 -0.0367  0.1117
  125loPI   C3A 1993   6.739   9.777   7.778 -0.0319  0.3844 -0.1372
  125loPI   C4A 1994   6.973   9.637   7.478 -0.1770  0.0986  0.0120
  125loPI   C5A 1995   7.048   9.543   7.050  0.3302 -0.0121  0.1888
  125loPI   C6A 1996   7.172   9.417   6.657  0.0993  0.0889 -0.0935
  125loPI   C1B 1997   7.160   9.898   8.421 -0.2158  0.2396 -0.1260
  125loPI   C2B 1998   6.999   9.657   8.212 -0.3947 -0.2236 -0.1075
  125loPI   C3B 1999   7.197   9.386   7.947  0.1041 -0.0969  0.2353
  125loPI   C4B 2000   7.548   9.285   7.813 -0.0484  0.0180  0.3539
  126loPI    C1 2001   4.374  11.064   9.855 -0.0739 -0.1510  0.0572
  126loPI    C2 2002   4.261  11.050  10.238  0.1506  0.0909  0.1359
  126loPI    C3 2003   4.539  10.797  10.102 -0.1218 -0.1760  0.0624
  126loPI   PO4 2004   4.178  11.251   9.812  0.2985 -0.0514 -0.0361
  126loPI   GL1 2005   4.024  11.154   9.433 -0.0330 -0.0029  0.0018
  126loPI   GL2 2006   3.874  10.860   9.480  0.0649 -0.0117  0.1237
  126loPI   C1A 2007   4.328  11.147   9.052  0.1431 -0.1171 -0.0663
  126loPI   C2A 2008   4.269  11.234   8.689  0.2579  0.0443 -0.2990
  126loPI   C3A 2009   4.156  11.343   8.299  0.0083  0.0464 -0.0384
  126loPI   C4A 2010   4.273  11.463   7.811 -0.1482  0.1359  0.0989
  126loPI   C5A 2011   4.137  11.258   7.367  0.0759 -0.3244  0.2083
  126loPI   C6A 2012   3.897  10.917   7.259  0.1216 -0.0630 -0.0574
  126loPI   C1B 2013   3.980  10.781   9.026  0.0419 -0.0022  0.2287
  126loPI   C2B 2014   4.017  10.867   8.552  0.0996  0.3215 -0.1997
  126loPI   C3B 2015   3.875  10.951   8.102 -0.1531 -0.1365  0.3786
  126loPI   C4B 2016   4.024  10.962   7.755  0.1442  0.0928  0.2413
  127loPI    C1 2017   4.899  14.929   9.267 -0.3823 -0.0616  0.1330
  127loPI    C2 2018   5.198  15.068   9.493 -0.0914 -0.1409 -0.1955
  127loPI    C3 2019   4.848  14.975   9.661 -0.0709  0.3390  0.1333
  127loPI   PO4 2020   4.877  15.151   9.127  0.1630 -0.0917  0.0521
  127loPI   GL1 2021   5.206  15.394   9.061 -0.0341 -0.1771  0.4342
  127loPI   GL2 2022   5.278  15.131   8.866  0.1807  0.2137  0.1720
  127loPI   C1A 2023   5.307  15.574   8.578 -0.1903 -0.1562  0.3030
  127loPI   C2A 2024   5.426  15.683   8.136  0.1579 -0.2892  0.2022
  127loPI   C3A 2025   5.568  15.839   7.737  0.1303 -0.2263  0.4806
  127loPI   C4A 2026   5.623  15.917   7.361  0.0846 -0.4085  0.3015
  127loPI   C5A 2027   5.929  16.005   6.909  0.0303 -0.0890  0.2076
  127loPI   C6A 2028   5.651  15.847   6.693 -0.1071 -0.1687  0.3675
  127loPI   C1B 2029   5.044  14.889   8.519 -0.4135 -0.0655  0.0889
  127loPI   C2B 2030   4.787  14.807   8.233  0.0269 -0.0994 -0.2932
  127loPI   C3B 2031   4.661  15.086   7.806  0.2555  0.0219 -0.1866
  127loPI   C4B 2032   4.619  15.218   7.353 -0.2818  0.2350 -0.1287
  128loPI    C1 2033  18.658  12.144  10.099  0.1102  0.0921 -0.1865
  128loPI    C2 2034  18.357  11.926   9.951  0.1301  0.0715 -0.1968
  128loPI    C3 2035  18.305  12.137  10.287  0.0978  0.0842 -0.2097
  128loPI   PO4 2036  18.754  12.215   9.784 -0.0780 -0.3252  0.0347
  128loPI   GL1 2037  18.993  12.337   9.413 -0.1276 -0.0216 -0.0753
  128loPI   GL2 2038  18.749  12.137   9.239 -0.0792 -0.1407  0.1380
  128loPI   C1A 2039  19.154  12.447   9.026  0.1050  0.1503  0.1446
  128loPI   C2A 2040  19.377  12.389   8.753 -0.0651 -0.0844  0.0984
  128loPI   C3A 2041  19.733  12.443   8.458 -0.1834  0.1512  0.0225
  128loPI   C4A 2042  19.909  12.334   8.031  0.0865  0.2124  0.1109
  128loPI   C5A 2043  19.795  12.175   7.612 -0.0034  0.2287 -0.1970
  128loPI   C6A 2044  19.733  12.210   7.161 -0.4298 -0.0618 -0.0153
  128loPI   C1B 2045  18.715  12.042   8.756  0.1370  0.1272  0.0587
  128loPI   C2B 2046  18.459  12.234   8.395  0.0092  0.1789  0.3702
  128loPI   C3B 2047  18.454  12.362   7.923  0.0068 -0.2979  0.0016
  128loPI   C4B 2048  18.341  12.519   7.573  0.1205 -0.0352 -0.2201
  129loPI    C1 2049  12.235   1.055   9.750 -0.0276  0.0758  0.0085
  129loPI    C2 2050  12.145   0.702   9.915 -0.1322  0.0051 -0.1960
  129loPI    C3 2051  12.417   0.940  10.087 -0.2302 -0.0712  0.0696
  129loPI   PO4 2052  12.295   1.009   9.538  0.0078 -0.1378  0.2176
  129loPI   GL1 2053  12.447   1.096   9.168 -0.1944 -0.1764 -0.0190
  129loPI   GL2 2054  12.807   1.173   9.217 -0.1672 -0.2927 -0.1348
  129loPI   C1A 2055  12.478   0.909   8.825  0.0718 -0.1626  0.2469
  129loPI   C2A 2056  12.502   1.043   8.402  0.0512 -0.2360 -0.0839
  129loPI   C3A 2057  12.359   1.169   7.947  0.2901 -0.1300 -0.0415
  129loPI   C4A 2058  12.568   0.986   7.622 -0.2531 -0.0377 -0.1672
  129loPI   C5A 2059  12.928   1.080   7.383  0.2828 -0.0746  0.2214
  129loPI   C6A 2060  13.306   0.852   7.401  0.3377  0.0311  0.0696
  129loPI   C1B 2061  13.085   1.125   8.815  0.1964  0.3749  0.0301
  129loPI   C2B 2062  12.994   0.798   8.462 -0.0541 -0.4573  0.2345
  129loPI   C3B 2063  12.761   0.583   8.146  0.0230 -0.3252 -0.2593
  129loPI   C4B 2064  12.420   0.641   7.941  0.1978  0.0900  0.0915
  130loPI    C1 2065   4.329  15.152   9.704 -0.0337 -0.2833  0.1433
  130loPI    C2 2066   4.322  14.801   9.896 -0.1710 -0.2426  0.2146
  130loPI    C3 2067   4.003  15.041   9.908 -0.0958 -0.1370  0.1250
  130loPI   PO4 2068   4.400  15.033   9.415 -0.2558 -0.2317  0.1887
  130loPI   GL1 2069   4.336  14.815   9.056 -0.1352 -0.0902  0.3135
  130loPI   GL2 2070   4.454  15.065   8.920 -0.5995 -0.2965 -0.1151
  130loPI   C1A 2071   4.246  14.539   8.762  0.1441 -0.2464 -0.0068
  130loPI   C2A 2072   3.862  14.494   8.824 -0.1251  0.0011  0.2665
  130loPI   C3A 2073   3.548  14.418   8.475 -0.1855 -0.1412  0.0249
  130loPI   C4A 2074   3.465  14.337   8.174  0.3517 -0.0710  0.2697
  130loPI   C5A 2075   3.674  14.087   7.871  0.1086  0.1233 -0.0140
  130loPI   C6A 2076   3.910  14.038   7.453 -0.0807  0.1516  0.1988
  130loPI   C1B 2077   4.391  14.983   8.455 -0.2943  0.1306  0.3223
  130loPI   C2B 2078   4.261  15.040   8.032  0.0823  0.0671 -0.2750
  130loPI   C3B 2079   4.238  14.701   7.764 -0.4939 -0.1852 -0.1299
  130loPI   C4B 2080   3.941  14.487   7.622  0.0030 -0.1971  0.0609
  131loPI    C1 2081  15.844  10.704   9.706 -0.1358  0.1757 -0.0734
  131loPI    C2 2082  16.076  10.582  10.008 -0.1180 -0.1040 -0.1970
  131loPI    C3 2083  16.241  10.749   9.684 -0.1331  0.1496 -0.0758
  131loPI   PO4 2084  15.654  10.608   9.695 -0.1336 -0.1421  0.2960
  131loPI   GL1 2085  15.495  10.546   9.247  0.0587  0.1985 -0.1295
  131loPI   GL2 2086  15.417  10.822   9.147  0.1170  0.1244  0.0719
  131loPI   C1A 2087  15.502  10.384   8.822  0.1491  0.1187 -0.0054
  131loPI   C2A 2088  15.660  10.453   8.438  0.0847 -0.1036  0.0116
  131loPI   C3A 2089  15.720  10.420   7.989  0.3688  0.0152 -0.1523
  131loPI   C4A 2090  15.877  10.574   7.668  0.1111 -0.1749 -0.1220
  131loPI   C5A 2091  16.138  10.788   7.317 -0.0958  0.3816 -0.0980
  131loPI   C6A 2092  16.541  11.046   7.374  0.0816 -0.0503  0.0152
  131loPI   C1B 2093  15.431  10.879   8.686  0.0030 -0.0988 -0.4278
  131loPI   C2B 2094  15.325  10.788   8.298 -0.2268  0.0168  0.4118
  131loPI   C3B 2095  15.363  10.718   7.810  0.1588  0.2135  0.0535
  131loPI   C4B 2096  15.284  10.900   7.377  0.0460  0.0213  0.2545
  132loPI    C1 2097   5.618  18.160   9.292  0.2007 -0.1698  0.0356
  132loPI    C2 2098   5.249  18.310   9.330  0.3190  0.1087  0.1056
  132loPI    C3 2099   5.317  17.924   9.409  0.0217  0.0286 -0.0192
  132loPI   PO4 2100   5.723  18.331   9.252  0.1803 -0.2357 -0.1500
  132loPI   GL1 2101   5.800  18.518   8.949  0.0816  0.0332 -0.2279
  132loPI   GL2 2102   5.423  18.507   8.890  0.0392 -0.1098  0.0220
  132loPI   C1A 2103   5.834  18.688   8.539 -0.1330 -0.3238 -0.1472
  132loPI   C2A 2104   5.929  18.906   8.174 -0.1664 -0.3425  0.0815
  132loPI   C3A 2105   6.082  18.978   7.728 -0.1198 -0.1155 -0.2030
  132loPI   C4A 2106   6.306  19.282   7.412  0.1804 -0.1741  0.1516
  132loPI   C5A 2107   6.156  19.449   7.005  0.1913 -0.0110 -0.0019
  132loPI   C6A 2108   6.050  19.808   7.110 -0.0793  0.1151 -0.1997
  132loPI   C1B 2109   5.265  18.444   8.472  0.3523 -0.0126  0.0096
  132loPI   C2B 2110   5.197  18.281   8.037  0.3095  0.0432 -0.1467
  132loPI   C3B 2111   5.274  18.450   7.600  0.0950  0.0689 -0.0520
  132loPI   C4B 2112   5.554  18.481   7.254  0.0905  0.2435  0.2185
  133loPI    C1 2113  13.742   8.516   9.757 -0.0687 -0.0855 -0.0619
  133loPI    C2 2114  14.078   8.711   9.849 -0.0148 -0.1336 -0.1552
  133loPI    C3 2115  13.725   8.857   9.966  0.0550 -0.2332  0.1937
  133loPI   PO4 2116  13.966   8.371   9.463 -0.1536  0.1313 -0.1205
  133loPI   GL1 2117  13.918   8.524   8.995  0.2476 -0.1069  0.1304
  133loPI   GL2 2118  14.010   8.333   8.823 -0.1325  0.0471 -0.0759
  133loPI   C1A 2119  13.610   8.692   8.784  0.1224  0.3215  0.1476
  133loPI   C2A 2120  13.365   8.780   8.474  0.2111 -0.0996  0.1328
  133loPI   C3A 2121  13.030   8.770   8.186  0.1507 -0.0853 -0.1175
  133loPI   C4A 2122  12.802   8.831   7.792 -0.0771  0.0808 -0.0023
  133loPI   C5A 2123  12.762   8.972   7.439 -0.1392 -0.1490 -0.0567
  133loPI   C6A 2124  12.723   9.391   7.227 -0.0174  0.3832 -0.1788
  133loPI   C1B 2125  13.986   8.337   8.346 -0.1862  0.0712 -0.1437
  133loPI   C2B 2126  13.702   8.526   8.140 -0.1460  0.1707  0.1476
  133loPI   C3B 2127  13.353   8.518   7.796  0.0538  0.2040 -0.0887
  133loPI   C4B 2128  13.088   8.485   7.508 -0.2274  0.4447 -0.0368
  134loPI    C1 2129  14.877  14.090   9.614  0.0982 -0.1508 -0.1988
  134loPI    C2 2130  14.865  14.216   9.994 -0.2840 -0.0580 -0.2380
  134loPI    C3 2131  15.133  14.371   9.740 -0.1703  0.0365 -0.0620
  134loPI   PO4 2132  14.693  14.121   9.468 -0.1213 -0.0196 -0.1442
  134loPI   GL1 2133  14.457  14.092   9.028  0.0448  0.1541 -0.2110
  134loPI   GL2 2134  14.516  14.363   8.990  0.0702  0.0628  0.0425
  134loPI   C1A 2135  14.565  13.813   8.586 -0.0507  0.0549 -0.0050
  134loPI   C2A 2136  14.742  14.033   8.174 -0.1683 -0.3344 -0.4036
  134loPI   C3A 2137  15.021  14.339   7.812 -0.2804  0.0771 -0.4157
  134loPI   C4A 2138  15.295  14.501   7.766  0.1431 -0.0345 -0.0755
  134loPI   C5A 2139  15.521  14.940   7.571 -0.0184 -0.0091 -0.2758
  134loPI   C6A 2140  15.835  15.131   7.433  0.2449 -0.0166  0.3418
  134loPI   C1B 2141  14.594  14.495   8.606 -0.2260  0.0976 -0.1830
  134loPI   C2B 2142  14.588  14.569   8.172 -0.4656 -0.1608  0.1147
  134loPI   C3B 2143  14.371  14.781   7.788 -0.0710 -0.0088 -0.0014
  134loPI   C4B 2144  14.447  15.091   7.686 -0.0541  0.0761 -0.0437
  135loPI    C1 2145  18.337  13.196   9.549 -0.0153  0.2147  0.3015
  135loPI    C2 2146  18.214  12.968   9.854 -0.2813 -0.1215 -0.0472
  135loPI    C3 2147  18.005  13.293   9.750 -0.1058  0.0807  0.2190
  135loPI   PO4 2148  18.519  13.176   9.540 -0.0631  0.0720 -0.0889
  135loPI   GL1 2149  18.727  13.142   9.170  0.1532 -0.2856 -0.1345
  135loPI   GL2 2150  19.016  12.991   9.028 -0.1416 -0.0948 -0.4070
  135loPI   C1A 2151  18.558  13.178   8.736  0.1559 -0.3878 -0.0358
  135loPI   C2A 2152  18.285  13.075   8.422  0.2123 -0.1356  0.1959
  135loPI   C3A 2153  17.951  13.037   8.121 -0.2341  0.1191  0.0958
  135loPI   C4A 2154  17.909  12.703   7.785  0.1797  0.0443  0.0652
  135loPI   C5A 2155  17.760  12.545   7.352  0.2692  0.3550 -0.0122
  135loPI   C6A 2156  17.809  12.295   6.970  0.2106  0.5603  0.4120
  135loPI   C1B 2157  19.306  12.864   8.728  0.0375  0.1155 -0.0537
  135loPI   C2B 2158  19.286  12.611   8.324  0.0091 -0.1858 -0.0577
  135loPI   C3B 2159  19.414  12.367   8.085  0.2409  0.0004 -0.0021
  135loPI   C4B 2160  19.349  12.421   7.665 -0.1850  0.1716  0.2224
  136loPI    C1 2161  14.877  18.303   9.673  0.2711 -0.0140  0.0390
  136loPI    C2 2162  14.629  18.176   9.960  0.1126 -0.2706 -0.2066
  136loPI    C3 2163  14.973  18.354  10.058 -0.1709  0.1044  0.1392
  136loPI   PO4 2164  14.747  18.427   9.468  0.0282  0.3465 -0.3034
  136loPI   GL1 2165  14.665  18.214   9.036  0.1551 -0.2080  0.1915
  136loPI   GL2 2166  14.756  18.254   8.803  0.0187 -0.4897 -0.0743
  136loPI   C1A 2167  14.219  18.391   9.118 -0.2983  0.4269  0.0162
  136loPI   C2A 2168  13.877  18.277   8.935 -0.2986 -0.4248  0.2128
  136loPI   C3A 2169  13.638  18.382   8.542  0.0786 -0.1152 -0.1743
  136loPI   C4A 2170  13.473  18.447   8.128  0.2587 -0.1487 -0.0127
  136loPI   C5A 2171  13.329  18.503   7.622 -0.0130 -0.0199 -0.0780
  136loPI   C6A 2172  13.592  18.795   7.301 -0.0848  0.1880  0.2733
  136loPI   C1B 2173  14.733  18.236   8.293  0.0709  0.0184  0.1440
  136loPI   C2B 2174  14.426  18.172   8.015 -0.0722  0.0593 -0.1436
  136loPI   C3B 2175  14.217  18.321   7.713  0.3222  0.1009 -0.2162
  136loPI   C4B 2176  13.833  18.533   7.696 -0.1233  0.0337 -0.0741
  137loPI    C1 2177   1.833  18.760   9.728 -0.0319 -0.1218  0.0808
  137loPI    C2 2178   2.103  18.995   9.549  0.1124 -0.4512 -0.1442
  137loPI    C3 2179   2.135  18.917   9.939  0.0936 -0.1453 -0.0786
  137loPI   PO4 2180   1.621  18.627   9.442 -0.1065 -0.0320 -0.0420
  137loPI   GL1 2181   1.574  18.495   9.090 -0.2047 -0.1552 -0.1054
  137loPI   GL2 2182   1.755  18.253   8.929  0.0603 -0.0361 -0.0301
  137loPI   C1A 2183   1.468  18.838   8.651  0.1684 -0.0608 -0.5920
  137loPI   C2A 2184   1.352  18.724   8.260  0.2266 -0.0284  0.4493
  137loPI   C3A 2185   1.516  18.857   7.835 -0.0198  0.0573 -0.2498
  137loPI   C4A 2186   1.565  18.743   7.426 -0.1308 -0.2673  0.2164
  137loPI   C5A 2187   1.535  19.018   7.025  0.1148 -0.1772  0.2181
  137loPI   C6A 2188   1.609  19.098   6.576 -0.1659 -0.0702  0.0731
  137loPI   C1B 2189   1.921  18.637   8.676  0.1832 -0.0435  0.2537
  137loPI   C2B 2190   1.875  18.868   8.219  0.2875  0.0892 -0.3224
  137loPI   C3B 2191   2.048  18.932   7.753 -0.1315 -0.1632 -0.1350
  137loPI   C4B 2192   2.111  18.754   7.354 -0.1104  0.0876 -0.3595
  138loPI    C1 2193  14.322  17.659   9.744  0.0861 -0.2987  0.0329
  138loPI    C2 2194  14.100  17.623  10.075 -0.2839 -0.3080 -0.2111
  138loPI    C3 2195  14.162  17.984   9.914  0.1097 -0.2734  0.0064
  138loPI   PO4 2196  14.219  17.478   9.585  0.2658 -0.2344  0.3082
  138loPI   GL1 2197  14.323  17.449   9.173  0.2475 -0.3623  0.3378
  138loPI   GL2 2198  14.570  17.593   9.189 -0.1512 -0.0526  0.1931
  138loPI   C1A 2199  14.335  17.427   8.791 -0.1331  0.0266  0.1345
  138loPI   C2A 2200  14.497  17.664   8.412 -0.1069 -0.2600  0.1263
  138loPI   C3A 2201  14.753  17.714   8.040  0.0380 -0.0684  0.0234
  138loPI   C4A 2202  14.795  18.009   7.692  0.4889  0.5186 -0.0592
  138loPI   C5A 2203  14.514  18.116   7.335  0.2636 -0.1484 -0.1745
  138loPI   C6A 2204  14.163  18.439   7.247 -0.0244  0.1190 -0.0191
  138loPI   C1B 2205  14.376  17.932   8.836 -0.0489 -0.1826  0.1710
  138loPI   C2B 2206  14.273  18.201   8.534  0.4213  0.2237  0.2397
  138loPI   C3B 2207  13.999  18.321   8.235  0.0326  0.0258 -0.2853
  138loPI   C4B 2208  14.020  18.769   8.064  0.0649  0.1967  0.1517
  139loPI    C1 2209   4.237   6.148   9.903 -0.0846  0.3014  0.1006
  139loPI    C2 2210   4.138   6.511  10.037  0.0349  0.2696  0.2778
  139loPI    C3 2211   4.498   6.358  10.121  0.0773  0.2099 -0.0029
  139loPI   PO4 2212   4.111   6.193   9.670 -0.2328  0.1221 -0.4880
  139loPI   GL1 2213   4.132   6.301   9.248 -0.0386  0.0757 -0.1402
  139loPI   GL2 2214   4.386   6.487   9.126  0.3581  0.0285 -0.1437
  139loPI   C1A 2215   3.883   6.250   8.930 -0.0329 -0.0110 -0.2298
  139loPI   C2A 2216   3.877   6.233   8.523 -0.2967 -0.1132 -0.0359
  139loPI   C3A 2217   3.993   6.368   8.091 -0.1549 -0.3731  0.0255
  139loPI   C4A 2218   3.931   6.506   7.656  0.0382  0.0798  0.2122
  139loPI   C5A 2219   3.657   6.470   7.327 -0.0454  0.4815  0.1812
  139loPI   C6A 2220   3.455   6.433   6.983  0.0850  0.0489 -0.1904
  139loPI   C1B 2221   4.312   6.572   8.749  0.0484  0.0863  0.1211
  139loPI   C2B 2222   4.077   6.703   8.484 -0.3834 -0.1103  0.2535
  139loPI   C3B 2223   4.096   6.928   8.104 -0.0364 -0.0273  0.1442
  139loPI   C4B 2224   4.180   7.267   7.885 -0.0598  0.4036  0.0916
  140loPI    C1 2225   2.515   1.137   9.578  0.0788 -0.2402 -0.1520
  140loPI    C2 2226   2.263   1.446   9.607  0.0111 -0.3000 -0.0985
  140loPI    C3 2227   2.199   1.115   9.822  0.2521 -0.2359  0.0773
  140loPI   PO4 2228   2.561   1.167   9.342  0.1118 -0.1074  0.0988
  140loPI   GL1 2229   2.353   1.324   9.054 -0.1070  0.2155 -0.0557
  140loPI   GL2 2230   2.397   1.741   9.083 -0.2456 -0.1318  0.2060
  140loPI   C1A 2231   2.324   1.340   8.649  0.1044 -0.1102 -0.0672
  140loPI   C2A 2232   2.245   1.530   8.288 -0.1343 -0.1563 -0.1367
  140loPI   C3A 2233   2.410   1.485   7.890 -0.0435 -0.0811 -0.2726
  140loPI   C4A 2234   2.265   1.252   7.665  0.1079 -0.1034 -0.1315
  140loPI   C5A 2235   2.128   1.106   7.363  0.2287 -0.2029  0.0508
  140loPI   C6A 2236   1.725   1.064   7.170 -0.0744  0.2762 -0.1480
  140loPI   C1B 2237   2.626   1.758   8.739  0.3347 -0.1461  0.0295
  140loPI   C2B 2238   2.699   1.777   8.280 -0.0127  0.3212 -0.0104
  140loPI   C3B 2239   2.761   2.029   7.888  0.0910 -0.0154 -0.0888
  140loPI   C4B 2240   2.751   2.135   7.389  0.2553 -0.2545 -0.0069
  141loPI    C1 2241  11.829  14.488  10.115 -0.0924  0.2908 -0.1154
  141loPI    C2 2242  11.723  14.636  10.472  0.1512 -0.0085  0.0862
  141loPI    C3 2243  12.029  14.380  10.444  0.0595 -0.0809 -0.3243
  141loPI   PO4 2244  11.576  14.543   9.865  0.0661 -0.2855  0.2090
  141loPI   GL1 2245  11.688  14.463   9.311  0.1178 -0.2533 -0.0099
  141loPI   GL2 2246  11.926  14.575   9.098 -0.1608 -0.0808  0.1000
  141loPI   C1A 2247  11.469  14.350   8.978 -0.1178 -0.1716 -0.0242
  141loPI   C2A 2248  11.166  14.366   8.669 -0.3194  0.1026  0.1296
  141loPI   C3A 2249  11.089  14.294   8.323 -0.4744  0.0762  0.1040
  141loPI   C4A 2250  10.797  14.112   8.054  0.1268 -0.0497  0.1754
  141loPI   C5A 2251  10.833  14.130   7.592 -0.1840 -0.2590  0.2598
  141loPI   C6A 2252  10.425  14.099   7.351 -0.0642  0.2359  0.2930
  141loPI   C1B 2253  11.777  14.614   8.689  0.1316 -0.4195 -0.4638
  141loPI   C2B 2254  11.474  14.581   8.247 -0.2275  0.2049  0.1899
  141loPI   C3B 2255  11.092  14.503   7.903 -0.0908 -0.1737 -0.1770
  141loPI   C4B 2256  10.751  14.609   7.612 -0.0893  0.2892  0.0844
  142loPI    C1 2257   9.227  15.963   9.783 -0.1084  0.0005 -0.0742
  142loPI    C2 2258   9.072  15.675  10.013 -0.2709 -0.0935 -0.2979
  142loPI    C3 2259   9.467  15.738  10.010 -0.2616 -0.1287 -0.0384
  142loPI   PO4 2260   9.020  15.959   9.571  0.0078  0.1405  0.2753
  142loPI   GL1 2261   8.915  15.705   9.231 -0.1406  0.0151  0.0428
  142loPI   GL2 2262   8.724  16.017   9.070  0.2330  0.0585 -0.1600
  142loPI   C1A 2263   8.954  15.650   8.804 -0.2895 -0.1435  0.1038
  142loPI   C2A 2264   9.032  15.682   8.440  0.2501 -0.1918  0.0012
  142loPI   C3A 2265   9.161  15.534   8.042  0.0846  0.2106 -0.2757
  142loPI   C4A 2266   8.980  15.503   7.576  0.1691 -0.0944 -0.4983
  142loPI   C5A 2267   8.989  15.818   7.315  0.0425  0.2068 -0.1023
  142loPI   C6A 2268   8.940  16.096   6.958  0.2355 -0.0330  0.0779
  142loPI   C1B 2269   8.595  16.074   8.694  0.1345  0.0597  0.3188
  142loPI   C2B 2270   8.710  16.053   8.187 -0.2128  0.0244  0.1010
  142loPI   C3B 2271   8.993  16.136   7.837  0.0847 -0.3496 -0.3074
  142loPI   C4B 2272   9.279  16.263   7.421  0.1118  0.0553  0.1634
  143loPI    C1 2273  17.175   8.848  10.007 -0.1503 -0.1292  0.0365
  143loPI    C2 2274  17.085   9.233  10.069 -0.0580 -0.0622 -0.2328
  143loPI    C3 2275  16.993   8.959  10.346  0.1711  0.1973  0.1081
  143loPI   PO4 2276  17.158   8.835   9.719  0.1309 -0.1090 -0.1494
  143loPI   GL1 2277  16.928   9.043   9.346  0.0788  0.1753 -0.0913
  143loPI   GL2 2278  17.063   9.325   9.501 -0.0395  0.2052 -0.0427
  143loPI   C1A 2279  17.287   8.958   9.058 -0.2265  0.0427 -0.3140
  143loPI   C2A 2280  17.239   8.723   8.605 -0.1206 -0.0383  0.0823
  143loPI   C3A 2281  17.283   8.745   8.196 -0.1453  0.0220  0.3508
  143loPI   C4A 2282  17.330   8.466   7.778  0.1084  0.0273  0.1662
  143loPI   C5A 2283  17.379   8.109   7.476 -0.2819 -0.0134 -0.3113
  143loPI   C6A 2284  17.096   7.858   7.215  0.0720  0.3238  0.0483
  143loPI   C1B 2285  17.028   9.498   9.045 -0.1404  0.1543 -0.1655
  143loPI   C2B 2286  17.013   9.713   8.663 -0.3076 -0.1708  0.2213
  143loPI   C3B 2287  17.198   9.660   8.223 -0.0570  0.2660 -0.2520
  143loPI   C4B 2288  17.155   9.646   7.785 -0.1038 -0.1269 -0.2197
  144loPI    C1 2289  14.847  17.018   9.598 -0.0451 -0.1582  0.1404
  144loPI    C2 2290  14.449  17.032   9.564 -0.0287  0.1651  0.0530
  144loPI    C3 2291  14.620  16.762   9.804 -0.2920 -0.0830 -0.0339
  144loPI   PO4 2292  14.860  17.295   9.468  0.1187 -0.1450 -0.0269
  144loPI   GL1 2293  15.055  17.434   9.099  0.0066 -0.2778  0.0124
  144loPI   GL2 2294  15.303  17.256   9.011  0.0560  0.0009  0.0802
  144loPI   C1A 2295  14.893  17.712   8.788 -0.0075  0.2432 -0.1147
  144loPI   C2A 2296  15.049  17.829   8.414  0.2494 -0.2803  0.0613
  144loPI   C3A 2297  15.241  17.977   8.056  0.1695 -0.0310  0.0305
  144loPI   C4A 2298  15.344  17.979   7.671 -0.0309 -0.4526  0.2619
  144loPI   C5A 2299  15.405  18.052   7.374 -0.0593  0.1971 -0.0692
  144loPI   C6A 2300  15.057  18.237   7.174 -0.1674  0.0242  0.5434
  144loPI   C1B 2301  15.290  17.352   8.540 -0.4447  0.0536  0.0717
  144loPI   C2B 2302  15.211  17.452   8.053 -0.3458 -0.2458 -0.1978
  144loPI   C3B 2303  15.077  17.568   7.623  0.0264  0.4255  0.1327
  144loPI   C4B 2304  14.963  17.765   7.217 -0.1025 -0.2182 -0.3812
  145loPI    C1 2305  12.858  10.022   9.700 -0.0408  0.0529  0.0638
  145loPI    C2 2306  13.256  10.026   9.665 -0.0529 -0.0063 -0.0889
  145loPI    C3 2307  13.087   9.938  10.017  0.0700  0.2209  0.0292
  145loPI   PO4 2308  12.778   9.934   9.489 -0.3529 -0.0725 -0.0881
  145loPI   GL1 2309  12.584   9.967   9.161 -0.0488 -0.1166  0.1391
  145loPI   GL2 2310  12.205  10.071   9.216  0.0028  0.0294 -0.1541
  145loPI   C1A 2311  12.717  10.145   8.742 -0.1543 -0.2652  0.0440
  145loPI   C2A 2312  12.937  10.342   8.389 -0.1754  0.3025  0.0495
  145loPI   C3A 2313  13.131  10.327   8.132  0.1021 -0.2136 -0.2356
  145loPI   C4A 2314  13.024  10.541   7.758  0.0120  0.0637  0.0607
  145loPI   C5A 2315  12.971  10.549   7.396 -0.2342 -0.0481 -0.0942
  145loPI   C6A 2316  12.979  10.852   7.024 -0.2962 -0.0438  0.2987
  145loPI   C1B 2317  12.204   9.998   8.791  0.1696  0.5182  0.0386
  145loPI   C2B 2318  12.410   9.614   8.536  0.0210  0.0461 -0.2985
  145loPI   C3B 2319  12.749   9.317   8.151  0.1616 -0.1552  0.3636
  145loPI   C4B 2320  12.829   9.393   7.722  0.0472  0.1120 -0.1364
  146loPI    C1 2321  18.108   1.700   9.813  0.1477 -0.1068 -0.0779
  146loPI    C2 2322  18.430   1.910   9.921  0.0823 -0.0270 -0.0370
  146loPI    C3 2323  18.366   1.548  10.078  0.0060  0.0740  0.1677
  146loPI   PO4 2324  18.082   1.793   9.570 -0.1934 -0.0045  0.0731
  146loPI   GL1 2325  18.069   1.993   9.190 -0.0577 -0.0257  0.1245
  146loPI   GL2 2326  17.818   2.088   8.848  0.0758 -0.1940  0.1930
  146loPI   C1A 2327  18.325   1.819   8.813  0.0180 -0.0617  0.0498
  146loPI   C2A 2328  18.485   2.006   8.284  0.1248 -0.2945  0.0936
  146loPI   C3A 2329  18.513   2.051   7.815 -0.2081  0.2666 -0.0422
  146loPI   C4A 2330  18.399   2.054   7.400 -0.1936  0.0516  0.1108
  146loPI   C5A 2331  18.275   1.815   7.129  0.4268  0.1311  0.1971
  146loPI   C6A 2332  17.937   1.811   6.755  0.0093  0.0980  0.1983
  146loPI   C1B 2333  18.044   2.169   8.522 -0.2421 -0.1039 -0.2114
  146loPI   C2B 2334  18.141   2.469   8.159 -0.1497  0.0920 -0.1552
  146loPI   C3B 2335  17.863   2.580   7.803 -0.0671  0.2145 -0.1249
  146loPI   C4B 2336  17.711   2.715   7.435  0.5561  0.0202 -0.0731
  147loPI    C1 2337   0.897   8.173   9.837  0.0184  0.0590  0.1227
  147loPI    C2 2338   1.136   8.450   9.998 -0.1314  0.2038  0.0983
  147loPI    C3 2339   0.788   8.359  10.174 -0.0473 -0.0267  0.1494
  147loPI   PO4 2340   0.877   8.227   9.580  0.1103 -0.3737 -0.1421
  147loPI   GL1 2341   1.139   8.317   9.290  0.1172  0.1614  0.2367
  147loPI   GL2 2342   1.152   8.059   9.121  0.1509  0.1892 -0.0161
  147loPI   C1A 2343   1.472   8.416   9.104  0.1569 -0.1366  0.1134
  147loPI   C2A 2344   1.681   8.374   8.833 -0.2747  0.1422  0.0757
  147loPI   C3A 2345   1.947   8.409   8.549 -0.1883 -0.2365 -0.1078
  147loPI   C4A 2346   2.104   8.321   8.140 -0.1079  0.0142  0.1106
  147loPI   C5A 2347   2.135   8.414   7.765  0.0844 -0.2512  0.2599
  147loPI   C6A 2348   2.275   8.650   7.415  0.1664 -0.1765 -0.0307
  147loPI   C1B 2349   1.020   7.930   8.743 -0.1247 -0.0993  0.0991
  147loPI   C2B 2350   1.055   8.114   8.301 -0.0244 -0.1233 -0.0179
  147loPI   C3B 2351   1.179   8.007   7.972 -0.0917 -0.1422 -0.1106
  147loPI   C4B 2352   1.250   7.928   7.550 -0.1015  0.1797  0.1804
  148loPI    C1 2353  12.619   8.846   9.488  0.0529 -0.0644  0.2271
  148loPI    C2 2354  12.604   8.956   9.872 -0.0200  0.1397  0.1667
  148loPI    C3 2355  12.952   8.967   9.675 -0.0333  0.3036  0.1506
  148loPI   PO4 2356  12.513   8.948   9.329  0.0337  0.0916 -0.2476
  148loPI   GL1 2357  12.192   8.818   8.868 -0.8406 -0.2708 -0.1652
  148loPI   GL2 2358  12.466   8.682   8.871 -0.2821 -0.0944  0.0822
  148loPI   C1A 2359  12.056   8.798   8.444  0.0514 -0.0680 -0.1097
  148loPI   C2A 2360  11.939   8.688   8.020 -0.0707  0.1050  0.1284
  148loPI   C3A 2361  11.926   8.750   7.489  0.0816 -0.1416  0.2075
  148loPI   C4A 2362  12.076   8.539   7.038 -0.0139  0.0492 -0.1125
  148loPI   C5A 2363  12.139   8.271   6.558 -0.3503 -0.1025  0.0493
  148loPI   C6A 2364  12.564   8.255   6.407  0.1966 -0.4216  0.0429
  148loPI   C1B 2365  12.505   8.473   8.426 -0.0145 -0.2749  0.0577
  148loPI   C2B 2366  12.590   8.041   8.215  0.0619 -0.0130 -0.0216
  148loPI   C3B 2367  12.505   7.696   7.868  0.1410 -0.1070 -0.1073
  148loPI   C4B 2368  12.307   7.652   7.558 -0.3207  0.0295 -0.0724
  149loPI    C1 2369  15.663   4.967   9.866  0.1222  0.1976 -0.0349
  149loPI    C2 2370  15.580   4.702  10.153  0.1203  0.0909 -0.1328
  149loPI    C3 2371  15.320   4.994  10.069 -0.0599 -0.1121 -0.2915
  149loPI   PO4 2372  15.733   4.819   9.615 -0.1975  0.0879 -0.2853
  149loPI   GL1 2373  15.896   5.159   9.235 -0.1565  0.0608 -0.1761
  149loPI   GL2 2374  15.938   4.785   9.192 -0.1960 -0.0533  0.2583
  149loPI   C1A 2375  15.962   5.499   8.919 -0.2405 -0.0029 -0.1727
  149loPI   C2A 2376  15.962   5.628   8.447 -0.1549 -0.1267  0.2061
  149loPI   C3A 2377  15.962   5.743   8.019 -0.2298  0.0182 -0.2983
  149loPI   C4A 2378  15.918   5.750   7.553  0.0581 -0.1156 -0.1350
  149loPI   C5A 2379  15.720   5.715   7.135 -0.1436 -0.2733  0.2163
  149loPI   C6A 2380  15.792   5.553   6.665 -0.3060  0.2440 -0.3057
  149loPI   C1B 2381  15.853   4.734   8.719 -0.2215 -0.3691 -0.0467
  149loPI   C2B 2382  15.779   4.737   8.273  0.4324 -0.0855 -0.3812
  149loPI   C3B 2383  15.833   4.896   7.821 -0.0238  0.0787 -0.3445
  149loPI   C4B 2384  15.978   4.494   7.514  0.1789 -0.0123 -0.0516
  150loPI    C1 2385  11.306   0.319   9.629  0.1066 -0.0571  0.0925
  150loPI    C2 2386  11.161   0.106   9.323  0.1117  0.0345  0.0259
  150loPI    C3 2387  10.965   0.114   9.672  0.1126 -0.0804  0.0293
  150loPI   PO4 2388  11.567   0.227   9.620 -0.0068  0.0415 -0.1428
  150loPI   GL1 2389  11.769   0.250   9.174  0.1526 -0.0373  0.0575
  150loPI   GL2 2390  11.558   0.487   9.128  0.0741  0.2153  0.0577
  150loPI   C1A 2391  11.799   0.185   8.771  0.1221 -0.2486 -0.1375
  150loPI   C2A 2392  11.920   0.017   8.229 -0.0254 -0.0761 -0.0533
  150loPI   C3A 2393  12.003  -0.031   7.720  0.1323 -0.1553 -0.1174
  150loPI   C4A 2394  12.293   0.027   7.412 -0.0005  0.1608  0.3438
  150loPI   C5A 2395  12.581   0.253   7.226  0.1697 -0.0330 -0.0155
  150loPI   C6A 2396  12.907   0.632   7.166 -0.2992  0.1219  0.0523
  150loPI   C1B 2397  11.518   0.587   8.655  0.1633 -0.1186 -0.0684
  150loPI   C2B 2398  11.731   0.493   8.267 -0.1336  0.1106 -0.1094
  150loPI   C3B 2399  11.610   0.266   7.798 -0.2739 -0.1702  0.0780
  150loPI   C4B 2400  11.693   0.159   7.399  0.0805 -0.1851 -0.0944
  151loPI    C1 2401  15.256  18.671   9.769  0.0008  0.0363  0.2096
  151loPI    C2 2402  15.267  19.060   9.862 -0.1466  0.1684 -0.2918
  151loPI    C3 2403  15.451  18.793  10.097  0.2251  0.5712 -0.1085
  151loPI   PO4 2404  15.271  18.666   9.532  0.0100  0.3508 -0.0058
  151loPI   GL1 2405  15.069  18.567   9.133 -0.3638 -0.0613  0.3289
  151loPI   GL2 2406  14.840  18.846   9.064  0.3394  0.0081  0.2155
  151loPI   C1A 2407  15.258  18.802   8.729  0.0275  0.3039  0.0044
  151loPI   C2A 2408  15.562  18.781   8.466 -0.2517 -0.0651 -0.0352
  151loPI   C3A 2409  15.720  18.938   7.995 -0.0944  0.1062 -0.1080
  151loPI   C4A 2410  15.495  18.977   7.656 -0.0889  0.1310  0.0289
  151loPI   C5A 2411  15.563  19.007   7.310 -0.3004  0.0472 -0.0019
  151loPI   C6A 2412  15.480  18.598   7.009  0.1734  0.2397 -0.1628
  151loPI   C1B 2413  14.791  18.652   8.595  0.1783  0.0294  0.1641
  151loPI   C2B 2414  14.919  18.791   8.241  0.3728  0.2455  0.3083
  151loPI   C3B 2415  15.029  18.905   7.769  0.2060 -0.0311  0.1540
  151loPI   C4B 2416  15.086  19.154   7.447 -0.1652 -0.0657  0.0209
  152loPI    C1 2417   2.962   1.336   9.789  0.2843 -0.1251 -0.1199
  152loPI    C2 2418   3.314   1.411   9.963  0.1195 -0.0371  0.1812
  152loPI    C3 2419   2.977   1.429  10.177 -0.0471 -0.3669 -0.0452
  152loPI   PO4 2420   3.075   1.124   9.498 -0.0077 -0.2635 -0.0615
  152loPI   GL1 2421   3.073   1.173   9.066 -0.0840 -0.1730 -0.1140
  152loPI   GL2 2422   3.121   0.813   9.016  0.2006 -0.0763  0.2342
  152loPI   C1A 2423   2.850   1.325   8.746  0.2250  0.1119  0.2232
  152loPI   C2A 2424   2.747   1.244   8.291  0.4056 -0.1772  0.3385
  152loPI   C3A 2425   2.858   0.993   7.848  0.2382 -0.0763  0.1384
  152loPI   C4A 2426   2.691   0.856   7.533 -0.2144 -0.0179 -0.0228
  152loPI   C5A 2427   2.498   0.884   7.088 -0.0663  0.1969  0.4014
  152loPI   C6A 2428   2.527   1.067   6.703  0.4263  0.0290 -0.2543
  152loPI   C1B 2429   3.236   1.018   8.631 -0.1990 -0.3291 -0.3477
  152loPI   C2B 2430   3.235   1.144   8.199 -0.2116  0.0989  0.1588
  152loPI   C3B 2431   3.291   1.110   7.709  0.1689  0.3161 -0.0836
  152loPI   C4B 2432   3.188   1.266   7.265 -0.2365 -0.0676  0.2337
  153loPI    C1 2433  12.675   6.956   9.449  0.1119  0.2509  0.3402
  153loPI    C2 2434  12.671   7.117   9.083  0.5136  0.0336  0.2345
  153loPI    C3 2435  12.372   7.192   9.337  0.1180  0.0140 -0.2101
  153loPI   PO4 2436  12.910   6.730   9.417  0.0821 -0.0176  0.1333
  153loPI   GL1 2437  13.118   6.474   9.123 -0.1272 -0.2724  0.1952
  153loPI   GL2 2438  12.785   6.294   9.141 -0.1079 -0.1783 -0.4379
  153loPI   C1A 2439  13.146   6.228   8.830  0.0252 -0.1545  0.0297
  153loPI   C2A 2440  13.047   5.940   8.599 -0.3396 -0.2937  0.1041
  153loPI   C3A 2441  12.732   5.614   8.375 -0.0562  0.2537  0.0398
  153loPI   C4A 2442  12.475   5.711   8.086  0.3398  0.1313  0.0369
  153loPI   C5A 2443  12.579   5.851   7.648 -0.1721 -0.0977 -0.1644
  153loPI   C6A 2444  12.346   5.794   7.319 -0.0537 -0.0865 -0.1427
  153loPI   C1B 2445  12.494   6.099   8.920  0.2904 -0.3131 -0.2773
  153loPI   C2B 2446  12.343   6.045   8.508 -0.0731  0.2293 -0.3970
  153loPI   C3B 2447  12.002   5.958   8.178  0.0094  0.0515  0.1266
  153loPI   C4B 2448  11.702   6.152   7.951 -0.3862 -0.3583 -0.2570
  154loPI    C1 2449   5.404  14.189   9.824 -0.0228 -0.1603  0.1794
  154loPI    C2 2450   5.718  14.248  10.065  0.0093  0.1564  0.0658
  154loPI    C3 2451   5.349  14.335  10.192 -0.0193 -0.0743  0.1461
  154loPI   PO4 2452   5.426  14.166   9.598  0.1239  0.2244  0.2372
  154loPI   GL1 2453   5.160  14.046   9.291 -0.1250 -0.2330  0.0695
  154loPI   GL2 2454   4.869  14.099   9.216  0.4674 -0.0584  0.0362
  154loPI   C1A 2455   5.157  13.871   8.855 -0.0218  0.0299  0.0312
  154loPI   C2A 2456   5.103  13.778   8.442  0.1955  0.2188 -0.0193
  154loPI   C3A 2457   4.887  13.572   8.102  0.0448  0.3436 -0.1663
  154loPI   C4A 2458   4.657  13.362   7.846  0.3157 -0.0699 -0.3165
  154loPI   C5A 2459   4.888  13.387   7.566 -0.4743  0.0529  0.0839
  154loPI   C6A 2460   4.751  12.960   7.356 -0.1850 -0.1313  0.2106
  154loPI   C1B 2461   4.587  13.947   8.919  0.0825  0.4481  0.2060
  154loPI   C2B 2462   4.601  13.943   8.520  0.2191  0.1496  0.1084
  154loPI   C3B 2463   4.807  14.134   8.145  0.3588  0.1511 -0.1962
  154loPI   C4B 2464   4.704  14.455   7.836 -0.0267 -0.1435 -0.1984
  155loPI    C1 2465   5.427  15.559   9.456 -0.1664  0.0243 -0.2186
  155loPI    C2 2466   5.601  15.919   9.459  0.1234 -0.1139 -0.0229
  155loPI    C3 2467   5.292  15.844   9.702  0.1586 -0.0432  0.0440
  155loPI   PO4 2468   5.625  15.389   9.473 -0.0881 -0.1074 -0.1344
  155loPI   GL1 2469   5.838  15.312   9.079  0.3599 -0.2771  0.2081
  155loPI   GL2 2470   6.137  15.285   9.043  0.0044 -0.1632 -0.0364
  155loPI   C1A 2471   5.813  15.656   8.800  0.1149  0.2669 -0.1208
  155loPI   C2A 2472   5.792  15.707   8.421  0.4289 -0.4183  0.2561
  155loPI   C3A 2473   5.901  16.137   8.169 -0.0027 -0.0171  0.2441
  155loPI   C4A 2474   6.034  16.074   7.740 -0.0006 -0.0126 -0.0527
  155loPI   C5A 2475   6.210  16.025   7.308  0.2588  0.2072  0.0914
  155loPI   C6A 2476   6.380  15.797   7.006  0.0301 -0.2241 -0.0489
  155loPI   C1B 2477   6.220  15.364   8.577  0.0749 -0.3299 -0.1872
  155loPI   C2B 2478   5.857  15.299   8.166 -0.0987 -0.0466  0.1105
  155loPI   C3B 2479   5.650  15.342   7.795 -0.2179 -0.0273  0.2981
  155loPI   C4B 2480   5.656  15.365   7.341  0.0668 -0.3295 -0.3054
  156loPI    C1 2481   0.654   0.839   9.534 -0.2616 -0.0380 -0.0006
  156loPI    C2 2482   0.811   0.848   9.902 -0.0507 -0.2404 -0.0834
  156loPI    C3 2483   0.564   1.139   9.783  0.1376  0.0005  0.1039
  156loPI   PO4 2484   0.934   0.759   9.391  0.0405 -0.2889  0.0047
  156loPI   GL1 2485   1.091   0.951   9.087 -0.1587 -0.1677  0.2536
  156loPI   GL2 2486   0.707   1.144   9.127  0.4550  0.2031 -0.3989
  156loPI   C1A 2487   1.340   1.006   8.752 -0.0955  0.1325  0.0441
  156loPI   C2A 2488   1.358   0.947   8.366 -0.0299 -0.1282  0.4424
  156loPI   C3A 2489   1.460   0.956   7.950  0.1115 -0.1706 -0.0798
  156loPI   C4A 2490   1.411   1.064   7.517  0.3230  0.1878  0.1525
  156loPI   C5A 2491   1.233   0.932   7.239 -0.0905 -0.0993  0.3319
  156loPI   C6A 2492   0.800   0.855   7.052 -0.2406 -0.0439 -0.2749
  156loPI   C1B 2493   0.670   1.012   8.723 -0.3767 -0.0344  0.1744
  156loPI   C2B 2494   0.849   0.899   8.456 -0.0323 -0.2671 -0.0140
  156loPI   C3B 2495   0.897   0.940   8.070 -0.0745  0.1114 -0.0137
  156loPI   C4B 2496   0.961   0.996   7.652 -0.1121  0.2290  0.2100
  157loPI    C1 2497  10.536  13.553  10.493  0.4068  0.1912  0.0128
  157loPI    C2 2498  10.647  13.179  10.581  0.2425  0.1651  0.1147
  157loPI    C3 2499  10.776  13.484  10.805  0.3868  0.1719  0.0238
  157loPI   PO4 2500  10.398  13.539  10.319  0.0678 -0.0346 -0.3280
  157loPI   GL1 2501  10.406  13.592   9.858  0.0336 -0.1897  0.1558
  157loPI   GL2 2502  10.290  13.533   9.523  0.0429 -0.2474 -0.0424
  157loPI   C1A 2503  10.622  13.158   9.557  0.0917  0.1357  0.2158
  157loPI   C2A 2504  10.750  12.940   9.194 -0.0116 -0.2389  0.1176
  157loPI   C3A 2505  10.946  12.846   8.766 -0.0335 -0.4282 -0.4983
  157loPI   C4A 2506  11.035  12.578   8.366  0.0111 -0.2218  0.2921
  157loPI   C5A 2507  10.878  12.795   8.039  0.0648  0.1393  0.3239
  157loPI   C6A 2508  10.559  13.065   7.847  0.0142  0.1392 -0.0595
  157loPI   C1B 2509  10.270  13.599   9.020 -0.0473 -0.0174 -0.5989
  157loPI   C2B 2510  10.336  13.510   8.655 -0.1558 -0.0210 -0.1641
  157loPI   C3B 2511  10.623  13.291   8.360  0.2638  0.1649 -0.2044
  157loPI   C4B 2512  10.955  13.285   8.048  0.3375 -0.0606  0.1706
  158loPI    C1 2513  13.659   1.431   9.796  0.0400 -0.1433  0.0619
  158loPI    C2 2514  13.420   1.398  10.115 -0.0733 -0.1512 -0.0234
  158loPI    C3 2515  13.470   1.754   9.938 -0.0977 -0.1678 -0.0638
  158loPI   PO4 2516  13.691   1.346   9.566  0.3260 -0.2302 -0.1252
  158loPI   GL1 2517  13.748   1.502   9.094  0.1550 -0.3399 -0.3404
  158loPI   GL2 2518  13.401   1.481   9.078  0.2882  0.0969  0.0172
  158loPI   C1A 2519  13.936   1.483   8.739 -0.1312 -0.3632 -0.0879
  158loPI   C2A 2520  13.861   1.364   8.267  0.2934  0.0928  0.0893
  158loPI   C3A 2521  13.798   1.050   8.011 -0.0017 -0.0696 -0.0926
  158loPI   C4A 2522  13.727   0.764   7.713 -0.0940 -0.0369  0.2575
  158loPI   C5A 2523  13.737   0.468   7.401  0.0393  0.2546  0.2062
  158loPI   C6A 2524  13.895   0.197   7.196  0.2412  0.2087  0.3386
  158loPI   C1B 2525  13.431   1.441   8.685 -0.3084  0.0139 -0.0925
  158loPI   C2B 2526  13.366   1.384   8.112 -0.1074  0.0272  0.2963
  158loPI   C3B 2527  13.430   1.241   7.715 -0.0573  0.4999  0.1623
  158loPI   C4B 2528  13.667   1.256   7.430  0.2388  0.1411 -0.0866
  159loPI    C1 2529   9.502  16.728   9.954  0.0518  0.1658 -0.1280
  159loPI    C2 2530   9.454  17.072  10.151 -0.0299  0.1725 -0.1590
  159loPI    C3 2531   9.378  16.725  10.334 -0.0013  0.1736 -0.1450
  159loPI   PO4 2532   9.465  16.939   9.635 -0.2319 -0.0912 -0.1720
  159loPI   GL1 2533   9.479  16.911   9.232  0.1859 -0.3443  0.1743
  159loPI   GL2 2534   9.724  16.588   9.188  0.2204  0.0918 -0.1107
  159loPI   C1A 2535   9.535  17.113   8.867  0.0439  0.0005 -0.2455
  159loPI   C2A 2536   9.651  17.211   8.489 -0.0979 -0.2042  0.4012
  159loPI   C3A 2537   9.857  17.397   8.065 -0.0067 -0.1457 -0.3602
  159loPI   C4A 2538   9.681  17.550   7.718  0.2132  0.0543 -0.1740
  159loPI   C5A 2539   9.645  17.704   7.273  0.0723  0.2331 -0.4384
  159loPI   C6A 2540   9.505  17.607   6.949 -0.0995  0.0424 -0.0296
  159loPI   C1B 2541   9.468  16.483   8.763  0.0797  0.3181  0.1611
  159loPI   C2B 2542   9.420  16.595   8.264  0.3312  0.2902  0.1563
  159loPI   C3B 2543   9.403  16.593   7.794 -0.3831 -0.1164 -0.0806
  159loPI   C4B 2544   9.450  16.769   7.373 -0.1978 -0.0772  0.2246
  160loPI    C1 2545  14.234   5.557   9.826  0.0532  0.0599 -0.0566
  160loPI    C2 2546  14.172   5.415  10.195 -0.0573  0.3598  0.0435
  160loPI    C3 2547  14.354   5.767  10.144  0.3891  0.1025 -0.2075
  160loPI   PO4 2548  14.065   5.475   9.650  0.0437 -0.0948  0.0029
  160loPI   GL1 2549  13.857   5.196   9.244  0.2095  0.1656 -0.3296
  160loPI   GL2 2550  13.670   5.392   9.153 -0.0740  0.1637 -0.0100
  160loPI   C1A 2551  13.536   4.945   9.019 -0.2297  0.2885 -0.0585
  160loPI   C2A 2552  13.407   4.822   8.643  0.0852  0.0749  0.1047
  160loPI   C3A 2553  13.368   4.982   8.168 -0.2708 -0.0181  0.1903
  160loPI   C4A 2554  13.437   4.770   7.738 -0.1368 -0.0545 -0.0442
  160loPI   C5A 2555  13.518   4.533   7.432 -0.1149 -0.1846  0.2464
  160loPI   C6A 2556  13.613   4.319   7.116 -0.0197  0.2299 -0.1408
  160loPI   C1B 2557  13.779   5.310   8.675 -0.2440  0.0209 -0.4143
  160loPI   C2B 2558  13.769   5.209   8.316 -0.1127  0.1147 -0.3691
  160loPI   C3B 2559  13.836   5.385   7.861 -0.4156  0.1996  0.1606
  160loPI   C4B 2560  14.191   5.284   7.643 -0.0651  0.2167 -0.0450
  161loPI    C1 2561   1.443   3.637   9.947  0.2278 -0.0604 -0.0831
  161loPI    C2 2562   1.316   3.877  10.241  0.2664 -0.0992 -0.0347
  161loPI    C3 2563   1.216   3.490  10.241  0.3193 -0.1130 -0.0384
  161loPI   PO4 2564   1.399   3.748   9.708 -0.1128 -0.0799 -0.0189
  161loPI   GL1 2565   1.266   3.655   9.259 -0.2043  0.2857  0.1507
  161loPI   GL2 2566   1.659   3.636   9.223  0.1642  0.1297 -0.1821
  161loPI   C1A 2567   1.440   3.883   8.822 -0.2255 -0.1609  0.4644
  161loPI   C2A 2568   1.601   4.222   8.567  0.0727  0.0499 -0.0064
  161loPI   C3A 2569   1.874   4.425   8.232 -0.0049  0.0120 -0.0024
  161loPI   C4A 2570   2.015   4.717   8.040  0.0317 -0.1891 -0.0184
  161loPI   C5A 2571   1.903   5.044   7.681  0.0039 -0.5270 -0.1303
  161loPI   C6A 2572   1.961   5.167   7.299 -0.3738 -0.0003 -0.0010
  161loPI   C1B 2573   1.852   3.447   8.883 -0.0928 -0.1185  0.4231
  161loPI   C2B 2574   1.700   3.218   8.550 -0.3205 -0.0726 -0.4125
  161loPI   C3B 2575   1.728   3.308   8.195 -0.0351 -0.0258  0.1745
  161loPI   C4B 2576   2.162   3.219   7.951  0.0935 -0.2357 -0.1112
  162loPI    C1 2577   1.502  19.557   9.743 -0.0241 -0.0101  0.0478
  162loPI    C2 2578   1.365  19.711  10.087 -0.1853 -0.0519  0.0032
  162loPI    C3 2579   1.231  19.357   9.958  0.0114 -0.1228 -0.0113
  162loPI   PO4 2580   1.468  19.765   9.570  0.0763  0.0723 -0.0387
  162loPI   GL1 2581   1.399  19.723   9.110  0.1905  0.2334  0.0132
  162loPI   GL2 2582   1.632  19.442   9.039  0.1454  0.2196 -0.0506
  162loPI   C1A 2583   1.379  19.781   8.664  0.6060 -0.1460  0.1852
  162loPI   C2A 2584   1.447  19.741   8.213  0.3079  0.0869  0.2705
  162loPI   C3A 2585   1.420  19.734   7.698 -0.1774  0.0528  0.1104
  162loPI   C4A 2586   1.437  19.607   7.277  0.0696  0.1413  0.1941
  162loPI   C5A 2587   1.255  19.427   7.017 -0.1298 -0.1133  0.0433
  162loPI   C6A 2588   1.090  19.103   6.777  0.1768 -0.0870  0.1301
  162loPI   C1B 2589   1.588  19.326   8.518  0.0989  0.3084  0.1028
  162loPI   C2B 2590   1.756  19.382   8.086  0.2588  0.0459  0.0044
  162loPI   C3B 2591   1.782  19.325   7.586  0.0712 -0.1660  0.2114
  162loPI   C4B 2592   1.906  19.227   7.293 -0.2377 -0.0905 -0.1607
  163loPI    C1 2593   4.724   5.350   9.842 -0.1455 -0.1001 -0.0936
  163loPI    C2 2594   4.858   5.226  10.197  0.0732  0.1345 -0.0917
  163loPI    C3 2595   4.465   5.244  10.127  0.0323 -0.1473  0.0519
  163loPI   PO4 2596   4.839   5.576   9.681  0.1821  0.2116 -0.0273
  163loPI   GL1 2597   4.942   5.573   9.265  0.1116  0.1645  0.2426
  163loPI   GL2 2598   4.625   5.373   9.207  0.2164 -0.0488 -0.1575
  163loPI   C1A 2599   5.000   5.963   8.868  0.1637 -0.1297 -0.1893
  163loPI   C2A 2600   4.865   6.244   8.625 -0.1282 -0.3933  0.1876
  163loPI   C3A 2601   4.600   6.487   8.292  0.0072 -0.1661 -0.1877
  163loPI   C4A 2602   4.510   6.469   7.877  0.1057 -0.1025  0.4188
  163loPI   C5A 2603   4.329   6.803   7.626  0.1383 -0.0086 -0.0410
  163loPI   C6A 2604   3.929   7.005   7.558  0.3241 -0.0278 -0.2671
  163loPI   C1B 2605   4.470   5.572   8.801  0.2112  0.0448  0.0282
  163loPI   C2B 2606   4.357   5.581   8.372  0.3487 -0.0461  0.0721
  163loPI   C3B 2607   4.454   5.445   7.982 -0.4044 -0.2161 -0.0090
  163loPI   C4B 2608   4.404   5.399   7.520 -0.0475  0.0043 -0.0841
  164loPI    C1 2609   8.956   8.734   9.847  0.0233  0.0012  0.0874
  164loPI    C2 2610   8.628   8.888   9.677  0.1111  0.0807 -0.0112
  164loPI    C3 2611   8.613   8.750  10.052 -0.0433  0.0532 -0.0271
  164loPI   PO4 2612   9.011   8.492   9.688  0.0021 -0.0615  0.0069
  164loPI   GL1 2613   9.363   8.514   9.499  0.1628  0.0661 -0.1788
  164loPI   GL2 2614   9.350   8.126   9.421  0.1607 -0.0379 -0.4019
  164loPI   C1A 2615   9.242   8.693   9.129 -0.3502  0.1039  0.0570
  164loPI   C2A 2616   9.236   9.096   8.817 -0.3617 -0.1265 -0.2660
  164loPI   C3A 2617   9.225   9.418   8.506 -0.2198 -0.1194  0.1039
  164loPI   C4A 2618   8.938   9.410   8.229 -0.0287  0.2618  0.1563
  164loPI   C5A 2619   8.989   9.237   7.795 -0.1328  0.1453  0.2562
  164loPI   C6A 2620   9.270   8.920   7.685  0.1191  0.0101  0.0963
  164loPI   C1B 2621   9.058   8.183   9.124 -0.0344 -0.0836 -0.0062
  164loPI   C2B 2622   8.858   8.352   8.810 -0.3458  0.1202 -0.2938
  164loPI   C3B 2623   9.060   8.704   8.627 -0.1506  0.1397 -0.1557
  164loPI   C4B 2624   9.151   8.910   8.242  0.0816  0.0464 -0.0407
  165loPI    C1 2625   6.204  12.952   9.789  0.1365  0.1948 -0.2581
  165loPI    C2 2626   6.450  13.253   9.882  0.0777  0.1131  0.1799
  165loPI    C3 2627   6.591  12.879   9.862  0.0878  0.1283 -0.0615
  165loPI   PO4 2628   6.053  13.050   9.543  0.0065  0.0814  0.1794
  165loPI   GL1 2629   5.980  12.867   9.093 -0.2534 -0.1859 -0.1022
  165loPI   GL2 2630   6.282  12.885   8.948  0.0050  0.2907 -0.1702
  165loPI   C1A 2631   5.783  13.128   8.790 -0.4314  0.1760  0.1739
  165loPI   C2A 2632   5.693  12.988   8.358 -0.3818 -0.1330 -0.1853
  165loPI   C3A 2633   5.586  12.805   7.917 -0.0529  0.1464 -0.2114
  165loPI   C4A 2634   5.688  12.693   7.528  0.4101 -0.0128 -0.2634
  165loPI   C5A 2635   5.550  12.358   7.279 -0.1220 -0.3462 -0.1857
  165loPI   C6A 2636   5.363  12.157   6.970 -0.2079  0.0086 -0.0737
  165loPI   C1B 2637   6.161  12.786   8.599  0.1938 -0.0791 -0.0028
  165loPI   C2B 2638   6.094  12.750   8.131  0.1737 -0.1008 -0.0703
  165loPI   C3B 2639   6.137  12.498   7.701  0.2282 -0.2400  0.1942
  165loPI   C4B 2640   6.326  12.210   7.419  0.3082  0.2575  0.1781
  166loPI    C1 2641   3.881  12.525   9.931  0.1202 -0.0793  0.0904
  166loPI    C2 2642   3.652  12.847   9.866  0.4590  0.0874 -0.3245
  166loPI    C3 2643   3.791  12.771  10.233  0.0051  0.1563 -0.1317
  166loPI   PO4 2644   4.011  12.521   9.799  0.0217 -0.1967 -0.0417
  166loPI   GL1 2645   3.944  12.647   9.407  0.0342  0.1960  0.1102
  166loPI   GL2 2646   3.882  12.928   9.419 -0.2312 -0.0924 -0.0366
  166loPI   C1A 2647   3.923  12.702   8.980 -0.1309 -0.2613  0.1161
  166loPI   C2A 2648   3.858  12.661   8.564  0.3365 -0.3810  0.1643
  166loPI   C3A 2649   3.469  12.639   8.296 -0.0108 -0.3851  0.0191
  166loPI   C4A 2650   3.395  12.539   7.938 -0.1433  0.2437 -0.0123
  166loPI   C5A 2651   3.312  12.200   7.619  0.3064  0.2002  0.1089
  166loPI   C6A 2652   3.200  11.817   7.490  0.1935 -0.0722 -0.0426
  166loPI   C1B 2653   4.167  13.079   9.050  0.3149 -0.1899 -0.0204
  166loPI   C2B 2654   4.259  13.030   8.647  0.0088 -0.2416 -0.0544
  166loPI   C3B 2655   4.219  12.906   8.261  0.1145 -0.0040  0.1649
  166loPI   C4B 2656   4.335  12.859   7.784 -0.1638  0.1193  0.1727
  167loPI    C1 2657  10.606   1.083   9.181  0.2134  0.0866 -0.0695
  167loPI    C2 2658  10.580   0.921   9.546  0.1837  0.2678  0.0100
  167loPI    C3 2659  10.593   1.318   9.504  0.0027  0.2539 -0.1970
  167loPI   PO4 2660  10.812   0.961   9.015  0.1219 -0.1533  0.4005
  167loPI   GL1 2661  10.828   0.999   8.627 -0.1659  0.0944 -0.4194
  167loPI   GL2 2662  10.735   1.335   8.728 -0.0323  0.1474  0.1729
  167loPI   C1A 2663  10.925   0.636   8.372 -0.5415  0.0497 -0.2507
  167loPI   C2A 2664  11.251   0.289   8.376  0.1632  0.0542 -0.0827
  167loPI   C3A 2665  11.351  -0.034   8.197  0.0818 -0.2653 -0.2855
  167loPI   C4A 2666  11.344  -0.158   7.761 -0.0737 -0.0534  0.3087
  167loPI   C5A 2667  11.254  -0.171   7.342  0.0581  0.1500 -0.2166
  167loPI   C6A 2668  10.883  -0.207   7.055 -0.0260 -0.1279 -0.2989
  167loPI   C1B 2669  10.595   1.741   8.521  0.3447 -0.0054 -0.0554
  167loPI   C2B 2670  10.475   1.890   8.188  0.0388  0.1529 -0.0873
  167loPI   C3B 2671  10.322   1.858   7.707 -0.1433  0.2112  0.0965
  167loPI   C4B 2672  10.226   1.846   7.249  0.1285 -0.0079  0.2250
  168loPI    C1 2673  11.617  13.946   9.748 -0.0992 -0.0004 -0.0046
  168loPI    C2 2674  11.721  13.579   9.628 -0.1101  0.0176 -0.0691
  168loPI    C3 2675  11.746  13.678  10.015 -0.1955 -0.0805 -0.0384
  168loPI   PO4 2676  11.701  14.113   9.606  0.0568 -0.1907 -0.0309
  168loPI   GL1 2677  11.894  14.038   9.243  0.2582  0.1685  0.0975
  168loPI   GL2 2678  11.990  13.752   9.190  0.3033 -0.0892 -0.0710
  168loPI   C1A 2679  11.901  14.162   8.780 -0.0836  0.0560 -0.3462
  168loPI   C2A 2680  11.735  14.222   8.419 -0.2128  0.1663  0.0786
  168loPI   C3A 2681  11.623  14.179   8.009 -0.0852  0.1168  0.3042
  168loPI   C4A 2682  11.351  14.102   7.629  0.0276 -0.1183  0.1814
  168loPI   C5A 2683  11.443  14.284   7.211  0.1213  0.3625  0.1831
  168loPI   C6A 2684  11.512  14.576   6.955  0.2224 -0.2358 -0.0748
  168loPI   C1B 2685  12.214  13.675   8.782  0.0658 -0.0840  0.2088
  168loPI   C2B 2686  12.224  13.485   8.419  0.1947  0.0504  0.0624
  168loPI   C3B 2687  12.231  13.540   8.027  0.2139  0.2208  0.0331
  168loPI   C4B 2688  12.264  13.532   7.574  0.2617  0.0501  0.2922
  169loPI    C1 2689  17.735  13.649   9.415 -0.4732 -0.2962 -0.0655
  169loPI    C2 2690  17.400  13.857   9.476 -0.1047  0.3669 -0.2089
  169loPI    C3 2691  17.698  13.875   9.742 -0.0127  0.1274 -0.2928
  169loPI   PO4 2692  17.860  13.846   9.083 -0.0830 -0.1941  0.1253
  169loPI   GL1 2693  17.990  13.829   8.618  0.3199 -0.2575 -0.0127
  169loPI   GL2 2694  18.139  13.588   8.778 -0.2273  0.1930 -0.1921
  169loPI   C1A 2695  17.859  13.927   8.250 -0.3028 -0.2137  0.1065
  169loPI   C2A 2696  17.719  13.989   7.796 -0.2102 -0.0651 -0.0819
  169loPI   C3A 2697  17.588  13.802   7.489  0.5585 -0.3110 -0.0199
  169loPI   C4A 2698  17.569  13.534   7.110 -0.1324  0.2079 -0.2134
  169loPI   C5A 2699  17.518  13.081   6.868 -0.1369 -0.0509  0.0201
  169loPI   C6A 2700  17.357  12.742   7.072 -0.2859  0.2208  0.0410
  169loPI   C1B 2701  18.349  13.563   8.450 -0.0808  0.0792  0.1341
  169loPI   C2B 2702  18.309  13.632   8.097 -0.0661  0.0302 -0.1538
  169loPI   C3B 2703  18.134  13.666   7.627  0.2492  0.0781 -0.4030
  169loPI   C4B 2704  17.967  13.805   7.238 -0.2528 -0.0029  0.3255
  170loPI    C1 2705   5.734  14.969   9.819  0.0817 -0.0731  0.1443
  170loPI    C2 2706   5.473  14.667   9.810  0.1381 -0.1203  0.0796
  170loPI    C3 2707   5.639  14.778  10.157  0.1308 -0.1753  0.1009
  170loPI   PO4 2708   5.932  14.856   9.570  0.0717  0.2127  0.2733
  170loPI   GL1 2709   5.684  14.752   9.324 -0.0843  0.4024 -0.2818
  170loPI   GL2 2710   5.936  14.812   9.024 -0.0576 -0.1748  0.0573
  170loPI   C1A 2711   5.300  14.698   9.050  0.1406  0.1873 -0.2033
  170loPI   C2A 2712   5.135  14.387   8.818  0.2627  0.3999  0.0082
  170loPI   C3A 2713   5.220  14.257   8.403  0.0907 -0.2462  0.2262
  170loPI   C4A 2714   5.170  14.499   8.032 -0.0894 -0.3597 -0.0094
  170loPI   C5A 2715   5.381  14.609   7.682 -0.2175 -0.0255 -0.1571
  170loPI   C6A 2716   5.644  14.462   7.309  0.1894  0.0258  0.2869
  170loPI   C1B 2717   5.768  15.041   8.681 -0.0909  0.0501 -0.2104
  170loPI   C2B 2718   5.434  15.166   8.327  0.0906  0.1575 -0.1244
  170loPI   C3B 2719   5.202  15.048   7.960 -0.2068 -0.0333  0.0067
  170loPI   C4B 2720   5.189  15.167   7.476 -0.1573 -0.0318  0.0790
  171loPI    C1 2721   8.243  13.964   9.736  0.0194 -0.1528 -0.1215
  171loPI    C2 2722   8.417  13.629   9.866  0.0079 -0.0797  0.0861
  171loPI    C3 2723   8.590  13.983   9.933  0.0324 -0.0447 -0.1539
  171loPI   PO4 2724   8.123  13.854   9.506 -0.0034  0.0771  0.1776
  171loPI   GL1 2725   8.036  13.911   9.127 -0.3241 -0.0324 -0.2554
  171loPI   GL2 2726   7.740  13.722   9.140 -0.2235 -0.2305  0.0224
  171loPI   C1A 2727   8.147  14.223   8.742 -0.0474  0.0720 -0.2896
  171loPI   C2A 2728   8.269  14.355   8.299 -0.0764 -0.0138  0.1492
  171loPI   C3A 2729   8.455  14.135   7.922  0.2453  0.0496  0.0689
  171loPI   C4A 2730   8.865  13.972   7.769  0.2509 -0.1127  0.1406
  171loPI   C5A 2731   9.114  13.667   7.387  0.0357  0.6820 -0.2550
  171loPI   C6A 2732   9.542  13.706   7.302 -0.1004 -0.1784  0.0173
  171loPI   C1B 2733   7.695  14.011   8.743  0.0903 -0.0196  0.0122
  171loPI   C2B 2734   7.791  14.002   8.354  0.2903  0.0834 -0.3338
  171loPI   C3B 2735   7.709  13.912   7.914  0.0516  0.0493 -0.1606
  171loPI   C4B 2736   7.978  14.012   7.558  0.0312  0.3554  0.1590
  172loPI    C1 2737  18.525   4.544   9.767 -0.0407  0.0052 -0.0482
  172loPI    C2 2738  18.719   4.851   9.934  0.1833 -0.2140  0.1016
  172loPI    C3 2739  18.320   4.831   9.955  0.1661  0.0695  0.0823
  172loPI   PO4 2740  18.568   4.553   9.549  0.0963 -0.0375  0.2036
  172loPI   GL1 2741  18.714   4.742   9.124 -0.2000  0.2000  0.1669
  172loPI   GL2 2742  18.398   4.793   8.948  0.1636 -0.2556 -0.0601
  172loPI   C1A 2743  18.968   5.037   8.872 -0.1129  0.0052 -0.2658
  172loPI   C2A 2744  19.058   5.020   8.470 -0.1335 -0.0628  0.0220
  172loPI   C3A 2745  19.071   4.913   7.970 -0.0327  0.1341 -0.3346
  172loPI   C4A 2746  19.050   4.812   7.637  0.1042 -0.0243  0.2691
  172loPI   C5A 2747  18.970   4.529   7.403 -0.1072  0.2423  0.1459
  172loPI   C6A 2748  18.986   4.058   7.493  0.2435 -0.0434 -0.2999
  172loPI   C1B 2749  18.599   4.760   8.455 -0.1605 -0.1298  0.0578
  172loPI   C2B 2750  18.572   4.667   7.999 -0.0446 -0.3360  0.1697
  172loPI   C3B 2751  18.568   4.845   7.629 -0.0317  0.0845  0.0595
  172loPI   C4B 2752  18.664   4.963   7.224 -0.0509 -0.1835 -0.1971
  173loPI    C1 2753   8.026   1.380   9.766  0.1124  0.1317  0.1326
  173loPI    C2 2754   7.728   1.123   9.839  0.1352  0.0467 -0.0690
  173loPI    C3 2755   7.738   1.475  10.027  0.0229 -0.0376  0.0972
  173loPI   PO4 2756   8.062   1.313   9.497  0.1084  0.1898  0.1469
  173loPI   GL1 2757   8.152   1.036   9.202  0.0315  0.0446  0.3729
  173loPI   GL2 2758   8.544   0.853   9.160  0.0269 -0.1503 -0.0720
  173loPI   C1A 2759   7.951   1.038   8.773  0.2891  0.4581 -0.1016
  173loPI   C2A 2760   7.984   1.012   8.327  0.2035  0.2271  0.2892
  173loPI   C3A 2761   8.167   1.063   7.934  0.1376  0.1190  0.0292
  173loPI   C4A 2762   8.207   0.797   7.657  0.1072  0.0674 -0.0909
  173loPI   C5A 2763   7.953   0.382   7.604 -0.0113 -0.1858  0.1867
  173loPI   C6A 2764   7.530   0.413   7.495  0.2724  0.3395 -0.0098
  173loPI   C1B 2765   8.481   0.840   8.789  0.1502 -0.0297  0.1431
  173loPI   C2B 2766   8.429   0.854   8.383  0.0182  0.0524 -0.0210
  173loPI   C3B 2767   8.125   0.572   8.122  0.0003  0.1727  0.0035
  173loPI   C4B 2768   7.721   0.772   7.905 -0.1350  0.2899  0.2428
  174loPI    C1 2769  11.421   1.501   9.381 -0.1344  0.1062  0.1889
  174loPI    C2 2770  11.396   1.313   9.733  0.0308  0.0366  0.1643
  174loPI    C3 2771  11.652   1.616   9.687 -0.1728  0.2132  0.1781
  174loPI   PO4 2772  11.485   1.420   9.109 -0.1161  0.0857 -0.0656
  174loPI   GL1 2773  11.295   1.167   8.729  0.3033 -0.0090 -0.2988
  174loPI   GL2 2774  11.554   1.034   8.784 -0.0646  0.4799 -0.0485
  174loPI   C1A 2775  11.312   0.978   8.358  0.0090 -0.0952  0.0196
  174loPI   C2A 2776  11.544   0.901   7.907 -0.0668  0.2167  0.1362
  174loPI   C3A 2777  11.453   0.640   7.538  0.1240  0.1651  0.1193
  174loPI   C4A 2778  11.098   0.553   7.291 -0.2958 -0.2087  0.2438
  174loPI   C5A 2779  10.852   0.661   6.859  0.0550  0.0250  0.0978
  174loPI   C6A 2780  10.455   0.727   6.641  0.1150 -0.0545  0.0922
  174loPI   C1B 2781  11.783   1.076   8.436  0.1791 -0.1847  0.0207
  174loPI   C2B 2782  12.020   0.908   8.098  0.4117  0.0662  0.0991
  174loPI   C3B 2783  11.974   0.644   7.783 -0.2725 -0.0527  0.3983
  174loPI   C4B 2784  12.154   0.427   7.573  0.0834 -0.0429 -0.1579
  175loPI    C1 2785   9.441  11.571   9.468 -0.3125 -0.1213  0.1165
  175loPI    C2 2786   9.501  11.716   9.836 -0.3125 -0.1472  0.1268
  175loPI    C3 2787   9.571  11.330   9.760 -0.1154 -0.0978  0.0500
  175loPI   PO4 2788   9.125  11.669   9.433 -0.1750  0.1342 -0.1805
  175loPI   GL1 2789   8.907  11.638   9.122 -0.0313 -0.0705  0.0748
  175loPI   GL2 2790   8.647  11.376   9.096 -0.1849  0.0075  0.2143
  175loPI   C1A 2791   9.060  11.429   8.689  0.2979  0.2004 -0.2377
  175loPI   C2A 2792   9.363  11.251   8.381  0.1598 -0.0123 -0.1853
  175loPI   C3A 2793   9.350  11.103   7.826 -0.1963  0.1806 -0.3740
  175loPI   C4A 2794   9.236  11.169   7.520 -0.4731  0.2703  0.0337
  175loPI   C5A 2795   9.577  11.314   7.119 -0.0247 -0.0557 -0.1852
  175loPI   C6A 2796   9.662  11.397   6.734  0.2967  0.0293 -0.1716
  175loPI   C1B 2797   8.587  11.391   8.592  0.1163 -0.1602  0.3217
  175loPI   C2B 2798   8.475  11.607   8.113 -0.0161  0.2309 -0.0740
  175loPI   C3B 2799   8.377  11.799   7.677 -0.0363 -0.2210  0.0749
  175loPI   C4B 2800   8.030  11.786   7.458  0.1468 -0.0549 -0.3380
  176loPI    C1 2801  18.605   2.613   9.905 -0.0877 -0.1869  0.0081
  176loPI    C2 2802  18.934   2.655  10.129 -0.2030  0.1468  0.1211
  176loPI    C3 2803  18.740   2.306  10.123  0.0544  0.0001  0.1884
  176loPI   PO4 2804  18.667   2.666   9.669  0.2021 -0.1163  0.1099
  176loPI   GL1 2805  18.874   2.569   9.257  0.0121  0.0901 -0.2045
  176loPI   GL2 2806  18.577   2.305   9.183  0.0951 -0.1584 -0.1021
  176loPI   C1A 2807  18.758   2.854   8.919  0.2487 -0.1391  0.0417
  176loPI   C2A 2808  18.825   3.053   8.550  0.0569  0.0110 -0.0624
  176loPI   C3A 2809  18.837   2.959   8.098  0.0549  0.1597  0.1061
  176loPI   C4A 2810  18.647   3.204   7.751 -0.0947 -0.1508  0.1153
  176loPI   C5A 2811  18.615   3.233   7.370 -0.1325  0.0161 -0.1532
  176loPI   C6A 2812  18.514   3.114   6.922 -0.3170 -0.0874  0.0629
  176loPI   C1B 2813  18.612   2.281   8.790 -0.0295 -0.0682  0.0677
  176loPI   C2B 2814  18.569   2.499   8.365 -0.1705 -0.0238 -0.2204
  176loPI   C3B 2815  18.536   2.553   7.874  0.1334 -0.2693  0.1451
  176loPI   C4B 2816  18.239   2.546   7.458  0.0537 -0.1499 -0.0093
  177loPI    C1 2817  10.955   3.010   9.620  0.1726 -0.0139  0.0177
  177loPI    C2 2818  10.797   2.709   9.832  0.0507  0.0317 -0.0077
  177loPI    C3 2819  10.823   3.075   9.992 -0.0447  0.0670 -0.0719
  177loPI   PO4 2820  10.969   2.877   9.331 -0.0904  0.0482  0.0442
  177loPI   GL1 2821  11.140   2.802   8.999 -0.1103  0.1452  0.4686
  177loPI   GL2 2822  11.222   3.114   8.893 -0.4775 -0.0395  0.0531
  177loPI   C1A 2823  11.337   2.774   8.520  0.1216  0.4852  0.6136
  177loPI   C2A 2824  11.332   2.525   8.098  0.0168 -0.0153  0.2616
  177loPI   C3A 2825  11.584   2.478   7.650 -0.0234 -0.1994 -0.1332
  177loPI   C4A 2826  11.983   2.272   7.417  0.1522 -0.1427 -0.2439
  177loPI   C5A 2827  12.223   1.873   7.292  0.4956 -0.0670 -0.0247
  177loPI   C6A 2828  12.231   1.490   7.425  0.3877 -0.1196 -0.2309
  177loPI   C1B 2829  11.334   3.324   8.409 -0.0112  0.0679  0.1607
  177loPI   C2B 2830  11.316   3.476   7.942  0.1551  0.0280 -0.2167
  177loPI   C3B 2831  11.028   3.507   7.562 -0.0861  0.2546 -0.0771
  177loPI   C4B 2832  10.821   3.314   7.146  0.1068  0.2068  0.0936
  178loPI    C1 2833  12.205   0.235   9.655 -0.2760  0.1608 -0.0763
  178loPI    C2 2834  12.254  -0.137   9.793  0.1380  0.1787 -0.1620
  178loPI    C3 2835  12.008   0.116   9.982  0.0880 -0.0421  0.0743
  178loPI   PO4 2836  12.238   0.115   9.356 -0.0232  0.3324  0.3502
  178loPI   GL1 2837  12.256   0.273   8.874 -0.1078  0.1915  0.0146
  178loPI   GL2 2838  12.028   0.582   8.951 -0.1001 -0.0578  0.0719
  178loPI   C1A 2839  12.320  -0.097   8.637  0.0726 -0.1345 -0.1742
  178loPI   C2A 2840  12.054  -0.397   8.485 -0.0208  0.0444  0.0453
  178loPI   C3A 2841  11.981  -0.841   8.365  0.0142 -0.2338 -0.0288
  178loPI   C4A 2842  11.884  -1.072   8.255 -0.0921 -0.0253  0.0662
  178loPI   C5A 2843  11.809  -1.469   8.093 -0.2635  0.1597 -0.0279
  178loPI   C6A 2844  11.499  -1.456   7.910  0.0350 -0.1985  0.0942
  178loPI   C1B 2845  12.050   0.623   8.618 -0.0147 -0.2045 -0.1507
  178loPI   C2B 2846  12.275   0.380   8.305  0.4887  0.0544  0.0651
  178loPI   C3B 2847  12.448   0.157   7.882  0.2396  0.2071 -0.2693
  178loPI   C4B 2848  12.517  -0.289   7.751  0.0381  0.2269 -0.0095
  179loPI    C1 2849   9.108  16.438   9.400 -0.1062 -0.0468  0.2194
  179loPI    C2 2850   9.102  16.533   9.789  0.2007 -0.1886  0.2616
  179loPI    C3 2851   9.438  16.395   9.622  0.1130  0.0093 -0.0895
  179loPI   PO4 2852   8.804  16.437   9.357  0.1396  0.2215 -0.0871
  179loPI   GL1 2853   8.819  16.757   9.059 -0.2429 -0.0934 -0.0516
  179loPI   GL2 2854   9.123  16.770   8.919  0.1934  0.0007 -0.1171
  179loPI   C1A 2855   8.483  16.582   8.793 -0.0420  0.0434  0.2874
  179loPI   C2A 2856   8.402  16.612   8.361 -0.2507  0.2628 -0.1107
  179loPI   C3A 2857   8.435  16.457   8.010 -0.0125  0.1023  0.2360
  179loPI   C4A 2858   8.363  16.441   7.572  0.1331 -0.0018  0.2773
  179loPI   C5A 2859   8.272  16.432   7.110 -0.1437  0.0434 -0.1095
  179loPI   C6A 2860   7.994  16.608   6.927  0.1984 -0.2354  0.2131
  179loPI   C1B 2861   8.938  16.668   8.539  0.0026  0.3631  0.0591
  179loPI   C2B 2862   8.917  16.580   8.114 -0.1635 -0.2985 -0.0456
  179loPI   C3B 2863   8.935  16.612   7.685  0.1371 -0.1544 -0.2354
  179loPI   C4B 2864   8.796  16.282   7.403 -0.0136  0.0931  0.0639
  180loPI    C1 2865  16.190  16.269   9.622  0.0135  0.0915 -0.1118
  180loPI    C2 2866  16.273  15.995   9.342  0.1539  0.0156  0.0031
  180loPI    C3 2867  16.189  15.880   9.716 -0.2390  0.1041 -0.0531
  180loPI   PO4 2868  16.343  16.484   9.636  0.1924  0.1835  0.0310
  180loPI   GL1 2869  16.615  16.436   9.175  0.0210  0.2994 -0.1054
  180loPI   GL2 2870  16.318  16.401   9.011  0.1335 -0.0388 -0.1309
  180loPI   C1A 2871  16.887  16.222   8.826  0.0158 -0.0081  0.1795
  180loPI   C2A 2872  16.756  15.930   8.444  0.1106 -0.1364  0.0826
  180loPI   C3A 2873  16.438  15.840   8.043 -0.0299  0.0085  0.0401
  180loPI   C4A 2874  16.459  15.828   7.657 -0.4046  0.1684 -0.2383
  180loPI   C5A 2875  16.651  15.886   7.240  0.0803 -0.2881 -0.2412
  180loPI   C6A 2876  16.632  16.078   6.887 -0.0198 -0.2543  0.1829
  180loPI   C1B 2877  16.061  16.358   8.618  0.3462  0.0233  0.0486
  180loPI   C2B 2878  16.019  16.303   8.175 -0.1876 -0.0851  0.0898
  180loPI   C3B 2879  16.197  16.494   7.780  0.0967  0.1871  0.0004
  180loPI   C4B 2880  16.334  16.292   7.405 -0.0731  0.4516 -0.1592
  181loPI    C1 2881   8.563  12.463   9.626  0.1659 -0.0478  0.1351
  181loPI    C2 2882   8.422  12.737   9.882 -0.0980 -0.1279  0.0785
  181loPI    C3 2883   8.811  12.732   9.789 -0.0681  0.1457  0.1790
  181loPI   PO4 2884   8.397  12.515   9.261  0.0431  0.1168  0.0385
  181loPI   GL1 2885   8.271  12.473   8.978 -0.1820  0.1628  0.0510
  181loPI   GL2 2886   8.195  12.676   8.847 -0.1023  0.0284  0.0996
  181loPI   C1A 2887   8.448  12.295   8.476 -0.0039  0.3260  0.0651
  181loPI   C2A 2888   8.558  12.170   8.109  0.1693 -0.4009 -0.0514
  181loPI   C3A 2889   8.873  12.019   7.722 -0.1109  0.1646 -0.2390
  181loPI   C4A 2890   9.008  11.664   7.496  0.0663  0.0579 -0.0157
  181loPI   C5A 2891   9.059  11.511   7.118 -0.0257 -0.2912 -0.2314
  181loPI   C6A 2892   9.176  11.339   6.790 -0.0716  0.0577  0.0454
  181loPI   C1B 2893   8.415  12.772   8.527 -0.1552  0.2776 -0.5324
  181loPI   C2B 2894   8.805  12.676   8.305  0.3220 -0.1405  0.1893
  181loPI   C3B 2895   8.981  12.267   8.431 -0.2791  0.0002  0.2422
  181loPI   C4B 2896   8.927  11.811   8.222 -0.0671 -0.0970 -0.0605
  182loPI    C1 2897   8.235  10.343   9.831 -0.0288  0.1561  0.1034
  182loPI    C2 2898   8.417  10.088  10.080 -0.0209  0.1501  0.0915
  182loPI    C3 2899   8.226  10.408  10.226 -0.2093  0.0249  0.1221
  182loPI   PO4 2900   8.086  10.163   9.665 -0.0194 -0.1902  0.2504
  182loPI   GL1 2901   8.154   9.952   9.253  0.2197  0.0774 -0.0742
  182loPI   GL2 2902   8.525   9.750   9.174 -0.3254  0.2136 -0.0378
  182loPI   C1A 2903   8.421  10.144   8.953  0.1826  0.0495  0.4043
  182loPI   C2A 2904   8.503  10.088   8.455  0.0289 -0.0615  0.2377
  182loPI   C3A 2905   8.307  10.139   8.073 -0.2043 -0.0373 -0.2291
  182loPI   C4A 2906   8.536  10.364   7.730  0.0535  0.1249  0.3394
  182loPI   C5A 2907   8.652  10.340   7.379  0.0083 -0.0672  0.1710
  182loPI   C6A 2908   8.781  10.511   6.965 -0.0946  0.0805 -0.1903
  182loPI   C1B 2909   8.564   9.633   8.735 -0.2649  0.0100 -0.1188
  182loPI   C2B 2910   8.475   9.555   8.323 -0.0388  0.1658 -0.2686
  182loPI   C3B 2911   8.591   9.683   7.912  0.1451 -0.0467  0.0727
  182loPI   C4B 2912   8.430   9.880   7.451 -0.1275  0.1450 -0.0882
  183loPI    C1 2913   0.033   4.677   9.657 -0.0883  0.0530 -0.2132
  183loPI    C2 2914   0.237   4.372   9.815  0.1925  0.2463 -0.1942
  183loPI    C3 2915   0.168   4.700  10.033 -0.0759  0.2135 -0.2266
  183loPI   PO4 2916  -0.177   4.546   9.579 -0.4168 -0.1296 -0.0993
  183loPI   GL1 2917  -0.203   4.277   9.208 -0.0387 -0.1010 -0.2253
  183loPI   GL2 2918   0.033   4.063   9.127  0.1019  0.1323  0.1453
  183loPI   C1A 2919  -0.406   4.485   8.869  0.1497  0.1117 -0.0443
  183loPI   C2A 2920  -0.345   4.577   8.416 -0.1709  0.0207 -0.0925
  183loPI   C3A 2921  -0.254   4.532   8.049  0.2164  0.0121  0.2671
  183loPI   C4A 2922  -0.249   4.396   7.666  0.2789  0.0629 -0.0433
  183loPI   C5A 2923  -0.252   4.304   7.273  0.2390  0.0349  0.4688
  183loPI   C6A 2924  -0.238   4.506   6.740  0.1724  0.0310  0.1504
  183loPI   C1B 2925  -0.246   3.968   8.773  0.2562 -0.2387 -0.0629
  183loPI   C2B 2926  -0.459   4.132   8.470 -0.0961 -0.2541 -0.0513
  183loPI   C3B 2927  -0.426   4.047   8.009  0.0559  0.2976 -0.0428
  183loPI   C4B 2928  -0.142   3.915   7.657  0.1007  0.2953  0.0628
  184loPI    C1 2929  12.586  14.773   9.958 -0.1097 -0.1359 -0.0169
  184loPI    C2 2930  12.627  14.375   9.976  0.2705 -0.0923  0.2114
  184loPI    C3 2931  12.478  14.576  10.289  0.0057 -0.0590  0.0677
  184loPI   PO4 2932  12.456  14.776   9.714  0.0791 -0.0407 -0.0476
  184loPI   GL1 2933  12.353  14.889   9.250 -0.0831  0.1508 -0.0195
  184loPI   GL2 2934  12.568  14.491   9.241 -0.1590  0.0432  0.0100
  184loPI   C1A 2935  12.509  15.189   8.847  0.1300 -0.1313 -0.0877
  184loPI   C2A 2936  12.338  15.395   8.539  0.3139  0.0618  0.1703
  184loPI   C3A 2937  12.125  15.519   8.180  0.0023 -0.0901 -0.0867
  184loPI   C4A 2938  11.708  15.539   7.943 -0.1152 -0.0469  0.1647
  184loPI   C5A 2939  11.337  15.462   7.685 -0.0045 -0.1875  0.0145
  184loPI   C6A 2940  11.154  15.717   7.333 -0.2358 -0.0518 -0.2691
  184loPI   C1B 2941  12.323  14.537   8.871  0.1308  0.0134  0.0933
  184loPI   C2B 2942  12.278  14.487   8.527  0.3554 -0.1318 -0.2692
  184loPI   C3B 2943  12.180  14.148   8.171  0.2213  0.1119  0.0460
  184loPI   C4B 2944  12.150  14.024   7.768 -0.1218 -0.4422  0.0656
  185loPI    C1 2945  17.516  10.870  10.236  0.1214 -0.0922 -0.2909
  185loPI    C2 2946  17.668  11.213  10.374 -0.3721 -0.1582  0.4731
  185loPI    C3 2947  17.860  10.869  10.441  0.0619 -0.0646 -0.1906
  185loPI   PO4 2948  17.466  10.902   9.957 -0.0118 -0.0799 -0.1074
  185loPI   GL1 2949  17.464  10.810   9.503 -0.2067  0.3167 -0.0261
  185loPI   GL2 2950  17.684  10.822   9.477  0.2831 -0.0692 -0.0749
  185loPI   C1A 2951  17.416  10.863   9.086  0.3564 -0.0676 -0.0445
  185loPI   C2A 2952  17.541  11.338   8.924 -0.1102 -0.0721  0.0452
  185loPI   C3A 2953  17.793  11.368   8.550  0.3467  0.2275 -0.0559
  185loPI   C4A 2954  17.873  11.509   8.176 -0.2321  0.3750 -0.3367
  185loPI   C5A 2955  17.969  11.734   7.869 -0.4339 -0.0267  0.1257
  185loPI   C6A 2956  17.931  12.188   7.839 -0.4522  0.2457  0.1536
  185loPI   C1B 2957  17.933  10.874   9.211 -0.1634 -0.0153 -0.1236
  185loPI   C2B 2958  18.017  10.936   8.831  0.0470 -0.0449  0.0711
  185loPI   C3B 2959  18.095  10.803   8.505  0.0634  0.3357  0.0696
  185loPI   C4B 2960  18.170  10.866   8.084  0.1357  0.1752 -0.1026
  186loPI    C1 2961  15.537  12.126   9.220  0.1565 -0.0144 -0.2146
  186loPI    C2 2962  15.584  12.163   9.615 -0.0094  0.4102 -0.2298
  186loPI    C3 2963  15.853  11.959   9.400 -0.0115  0.0231  0.1224
  186loPI   PO4 2964  15.597  12.461   9.187 -0.0240  0.1374 -0.3201
  186loPI   GL1 2965  15.876  12.808   8.956 -0.0458  0.1733  0.3685
  186loPI   GL2 2966  15.651  12.798   8.712 -0.1769 -0.2037  0.0360
  186loPI   C1A 2967  16.108  12.922   8.469 -0.2258  0.1478 -0.1937
  186loPI   C2A 2968  16.282  13.009   8.045 -0.1363 -0.1863 -0.0757
  186loPI   C3A 2969  16.671  13.086   7.794  0.0192  0.1977 -0.0164
  186loPI   C4A 2970  16.685  13.226   7.426 -0.0648 -0.0925  0.6876
  186loPI   C5A 2971  16.634  13.573   7.128  0.0204  0.3161  0.0416
  186loPI   C6A 2972  16.574  13.437   6.737 -0.1217 -0.2384  0.0235
  186loPI   C1B 2973  15.568  13.081   8.455  0.1099  0.0892 -0.1585
  186loPI   C2B 2974  15.144  13.178   8.301  0.2427  0.3760  0.0144
  186loPI   C3B 2975  14.819  13.164   7.953 -0.0954 -0.2996 -0.1780
  186loPI   C4B 2976  14.886  12.896   7.620  0.0348  0.1704 -0.4475
  187loPI    C1 2977  12.040   5.584   9.891 -0.0505  0.0146 -0.2834
  187loPI    C2 2978  12.234   5.739  10.204 -0.0585 -0.0192 -0.2617
  187loPI    C3 2979  11.834   5.732  10.201 -0.0612  0.1460 -0.3526
  187loPI   PO4 2980  12.289   5.564   9.714  0.3791  0.1318 -0.1343
  187loPI   GL1 2981  12.113   5.455   9.344 -0.1670 -0.1743  0.0715
  187loPI   GL2 2982  12.367   5.279   9.163 -0.0156 -0.0499  0.1042
  187loPI   C1A 2983  11.737   5.424   8.994 -0.5327 -0.0353  0.4058
  187loPI   C2A 2984  11.674   5.289   8.577 -0.0800  0.3172  0.0970
  187loPI   C3A 2985  11.830   5.277   8.242 -0.3311 -0.3126  0.1509
  187loPI   C4A 2986  11.870   5.552   7.938  0.3248 -0.0311  0.1158
  187loPI   C5A 2987  11.946   5.789   7.648  0.1944  0.0078 -0.1873
  187loPI   C6A 2988  11.916   5.979   7.239  0.0404 -0.0112  0.0012
  187loPI   C1B 2989  12.529   5.069   8.840 -0.2214  0.1514 -0.3027
  187loPI   C2B 2990  12.770   5.138   8.539 -0.0580 -0.3744 -0.0117
  187loPI   C3B 2991  12.883   5.260   8.041  0.0662 -0.0513 -0.0655
  187loPI   C4B 2992  13.280   5.302   7.743  0.0573 -0.0303  0.3858
  188loPI    C1 2993   6.502   8.162   9.993  0.0682 -0.0179 -0.1156
  188loPI    C2 2994   6.473   8.135  10.391  0.0921  0.1846 -0.0987
  188loPI    C3 2995   6.448   7.805  10.165 -0.2345  0.1042  0.0494
  188loPI   PO4 2996   6.749   8.252   9.964  0.1017 -0.2856 -0.0425
  188loPI   GL1 2997   6.950   8.150   9.588  0.2803 -0.0092 -0.1391
  188loPI   GL2 2998   6.921   8.437   9.439 -0.1958  0.2891  0.1458
  188loPI   C1A 2999   6.573   8.161   9.223  0.1173 -0.2028 -0.1385
  188loPI   C2A 3000   6.572   8.035   8.756  0.3850  0.0786  0.0683
  188loPI   C3A 3001   6.312   7.971   8.428 -0.3618 -0.2496 -0.1775
  188loPI   C4A 3002   6.032   8.007   8.198  0.0689  0.0153 -0.2573
  188loPI   C5A 3003   5.856   7.848   7.751 -0.2057 -0.0798 -0.1855
  188loPI   C6A 3004   6.023   7.497   7.406 -0.0887  0.0524 -0.4706
  188loPI   C1B 3005   6.849   8.550   9.006  0.3600 -0.0621  0.1079
  188loPI   C2B 3006   6.960   8.309   8.714 -0.1669 -0.0367 -0.0795
  188loPI   C3B 3007   7.236   8.383   8.256 -0.1935  0.1772 -0.0400
  188loPI   C4B 3008   7.680   8.256   8.216 -0.1986 -0.0782 -0.0443
  189loPI    C1 3009   6.758  10.878   9.344 -0.2066 -0.0301 -0.1804
  189loPI    C2 3010   6.857  11.157   9.074  0.0939 -0.0876 -0.1338
  189loPI    C3 3011   6.938  11.216   9.462 -0.2925 -0.0263 -0.0576
  189loPI   PO4 3012   6.786  10.571   9.150 -0.0770 -0.0210  0.1519
  189loPI   GL1 3013   6.476  10.453   8.920  0.1185  0.0910  0.1026
  189loPI   GL2 3014   6.266  10.309   8.755  0.0161  0.1126 -0.3221
  189loPI   C1A 3015   6.682  10.530   8.462 -0.0960 -0.1936  0.0517
  189loPI   C2A 3016   7.067  10.410   8.259 -0.0971 -0.1105 -0.0270
  189loPI   C3A 3017   7.109  10.211   7.882  0.3189 -0.2074 -0.1639
  189loPI   C4A 3018   6.914  10.197   7.528  0.0510 -0.2836 -0.2481
  189loPI   C5A 3019   6.693  10.408   7.192 -0.0736 -0.1255 -0.1189
  189loPI   C6A 3020   6.519  10.872   7.033  0.0691  0.0887 -0.2185
  189loPI   C1B 3021   6.216  10.732   8.546 -0.3841  0.1556 -0.2389
  189loPI   C2B 3022   5.979  10.846   8.160  0.1945  0.0073 -0.0666
  189loPI   C3B 3023   6.001  10.712   7.762 -0.3391  0.1946  0.1458
  189loPI   C4B 3024   5.874  10.821   7.456  0.0063  0.2032 -0.0824
  190loPI    C1 3025  19.522   0.762   9.748 -0.0882  0.0093 -0.0309
  190loPI    C2 3026  19.917   0.707   9.775 -0.0608  0.1014 -0.2278
  190loPI    C3 3027  19.739   0.992   9.993 -0.0592 -0.1134  0.0593
  190loPI   PO4 3028  19.356   0.859   9.457 -0.2127  0.2524  0.0443
  190loPI   GL1 3029  19.370   1.063   8.988  0.3065 -0.0017  0.1205
  190loPI   GL2 3030  19.079   1.186   8.878  0.0473  0.1011 -0.0067
  190loPI   C1A 3031  19.518   1.328   8.626 -0.1740 -0.0987 -0.0222
  190loPI   C2A 3032  19.705   1.391   8.137  0.0534 -0.1605  0.0426
  190loPI   C3A 3033  19.632   1.346   7.716  0.1630  0.0635  0.0065
  190loPI   C4A 3034  19.671   1.368   7.185  0.3960 -0.2563 -0.1881
  190loPI   C5A 3035  19.695   1.262   6.806  0.1451 -0.1960  0.3617
  190loPI   C6A 3036  19.772   0.913   6.525  0.0321 -0.0081  0.2083
  190loPI   C1B 3037  19.102   1.192   8.456 -0.1984 -0.0340 -0.0827
  190loPI   C2B 3038  19.235   1.307   8.090  0.2677 -0.2110 -0.0281
  190loPI   C3B 3039  19.198   1.553   7.644 -0.1119  0.1660  0.3233
  190loPI   C4B 3040  18.794   1.729   7.464  0.0556  0.0093  0.1008
  191loPI    C1 3041  15.285   6.401   9.959  0.0548 -0.1389  0.1329
  191loPI    C2 3042  15.205   6.526  10.331 -0.1376 -0.1587  0.0992
  191loPI    C3 3043  14.918   6.355  10.111 -0.0517 -0.0565 -0.0951
  191loPI   PO4 3044  15.461   6.581   9.896 -0.1283 -0.1963 -0.4491
  191loPI   GL1 3045  15.469   6.688   9.500  0.1663 -0.1325 -0.3071
  191loPI   GL2 3046  15.356   6.439   9.335 -0.2577 -0.1601  0.1600
  191loPI   C1A 3047  15.385   6.887   9.116  0.2173  0.1593 -0.0128
  191loPI   C2A 3048  15.527   6.858   8.743  0.0551 -0.1298  0.3161
  191loPI   C3A 3049  15.641   6.765   8.306  0.0752  0.1417  0.6746
  191loPI   C4A 3050  16.052   6.694   8.111  0.0796 -0.1244 -0.0531
  191loPI   C5A 3051  16.259   6.721   7.749 -0.2939  0.2501 -0.0484
  191loPI   C6A 3052  16.573   6.596   7.482 -0.1993  0.3309 -0.0396
  191loPI   C1B 3053  15.337   6.310   8.943  0.0109 -0.0238  0.2752
  191loPI   C2B 3054  15.592   6.378   8.646  0.2605 -0.1694  0.2435
  191loPI   C3B 3055  15.913   6.240   8.250  0.1328  0.0400 -0.2354
  191loPI   C4B 3056  16.259   6.124   7.828  0.2088 -0.1515 -0.1541
  192loPI    C1 3057  18.639   7.961   9.796 -0.0138 -0.0216 -0.2179
  192loPI    C2 3058  18.415   8.222   9.593 -0.0825  0.0423 -0.0616
  192loPI    C3 3059  18.335   8.147   9.977  0.0935 -0.0204 -0.0364
  192loPI   PO4 3060  18.929   8.053   9.720 -0.0373  0.0431 -0.1738
  192loPI   GL1 3061  19.191   8.080   9.329  0.0449 -0.0392 -0.1770
  192loPI   GL2 3062  18.885   8.169   9.232  0.1051  0.1542 -0.1254
  192loPI   C1A 3063  19.158   7.703   9.047  0.0469 -0.0196  0.1831
  192loPI   C2A 3064  19.196   7.757   8.654 -0.0378 -0.2273 -0.1573
  192loPI   C3A 3065  19.029   7.831   8.275 -0.1513  0.0039 -0.1713
  192loPI   C4A 3066  18.649   7.837   8.111 -0.0290  0.0289 -0.2503
  192loPI   C5A 3067  18.383   8.139   8.016  0.1651 -0.0073 -0.3051
  192loPI   C6A 3068  18.345   8.276   7.691  0.2059  0.0663 -0.1036
  192loPI   C1B 3069  18.826   8.032   8.816 -0.2796  0.0492 -0.1731
  192loPI   C2B 3070  18.714   8.234   8.448 -0.0719 -0.0091 -0.1668
  192loPI   C3B 3071  18.820   8.403   8.102  0.0930 -0.2009 -0.1661
  192loPI   C4B 3072  18.955   8.097   7.826 -0.1894  0.2435  0.0009
  193loPI    C1 3073  15.489  16.347   9.639 -0.1186  0.2059  0.1031
  193loPI    C2 3074  15.415  16.031   9.872 -0.1635  0.1294 -0.0147
  193loPI    C3 3075  15.785  16.180   9.850 -0.1565  0.1290  0.0954
  193loPI   PO4 3076  15.364  16.216   9.366  0.0481  0.2090 -0.1320
  193loPI   GL1 3077  15.327  16.262   9.049  0.1560 -0.0355  0.2013
  193loPI   GL2 3078  15.209  16.586   8.913  0.2081 -0.2092  0.1717
  193loPI   C1A 3079  15.550  16.320   8.664  0.1091 -0.1612 -0.3199
  193loPI   C2A 3080  15.548  16.312   8.256 -0.0727 -0.1749 -0.0900
  193loPI   C3A 3081  15.620  16.208   7.811 -0.0893 -0.3733 -0.1247
  193loPI   C4A 3082  15.438  16.116   7.465 -0.0354  0.1354 -0.2810
  193loPI   C5A 3083  15.279  16.165   6.981 -0.0897 -0.4343 -0.0426
  193loPI   C6A 3084  14.935  16.091   6.897 -0.1018  0.0197 -0.0184
  193loPI   C1B 3085  15.216  16.829   8.595 -0.0762  0.1626  0.1149
  193loPI   C2B 3086  15.373  16.998   8.225 -0.1389 -0.2381  0.2294
  193loPI   C3B 3087  15.362  17.076   7.676 -0.0525 -0.1866 -0.1350
  193loPI   C4B 3088  15.132  17.059   7.471  0.2499  0.4127  0.1884
  194loPI    C1 3089   4.317   1.123  10.221  0.2790  0.3191 -0.2876
  194loPI    C2 3090   3.941   1.233  10.304  0.2605 -0.0112  0.0920
  194loPI    C3 3091   4.248   1.409  10.491  0.2743 -0.0118  0.0700
  194loPI   PO4 3092   4.322   1.031   9.882  0.1798 -0.1073  0.4808
  194loPI   GL1 3093   4.496   1.182   9.311  0.1210 -0.1518  0.2908
  194loPI   GL2 3094   4.822   1.355   9.225  0.0992  0.1753 -0.0950
  194loPI   C1A 3095   4.413   1.283   8.826 -0.2469 -0.0893  0.0769
  194loPI   C2A 3096   4.571   1.349   8.330  0.1596  0.0703  0.0772
  194loPI   C3A 3097   4.782   1.477   7.853 -0.4758 -0.0133  0.0481
  194loPI   C4A 3098   4.828   1.398   7.404  0.2366  0.0671  0.1077
  194loPI   C5A 3099   4.786   1.371   6.956  0.1698 -0.1308 -0.2291
  194loPI   C6A 3100   4.824   1.398   6.522 -0.0348 -0.1506 -0.1581
  194loPI   C1B 3101   4.972   1.201   8.756  0.0429  0.0800 -0.0745
  194loPI   C2B 3102   5.058   0.950   8.401 -0.2185  0.0206 -0.0495
  194loPI   C3B 3103   5.126   1.012   8.038  0.1859 -0.2336 -0.3432
  194loPI   C4B 3104   4.916   1.019   7.676  0.1088  0.0371 -0.3299
  195loPI    C1 3105   9.407   9.910   9.690  0.0528  0.0460 -0.1311
  195loPI    C2 3106   9.708   9.811   9.934 -0.0800 -0.0252  0.0055
  195loPI    C3 3107   9.552  10.179   9.949 -0.0592 -0.0160 -0.0024
  195loPI   PO4 3108   9.516   9.866   9.424  0.0071 -0.1420  0.0439
  195loPI   GL1 3109   9.627   9.982   9.041 -0.4052  0.2547 -0.0184
  195loPI   GL2 3110   9.897   9.724   9.080 -0.2261 -0.0012  0.2376
  195loPI   C1A 3111   9.604   9.850   8.601 -0.1848 -0.3431 -0.1895
  195loPI   C2A 3112   9.603   9.640   8.171  0.0469 -0.2376 -0.1138
  195loPI   C3A 3113   9.479   9.252   8.078  0.0190 -0.2833  0.0680
  195loPI   C4A 3114   9.520   9.334   7.728  0.2418  0.0220  0.0143
  195loPI   C5A 3115   9.592   9.664   7.477 -0.3008  0.1810  0.1941
  195loPI   C6A 3116   9.397   9.812   7.111 -0.4612 -0.1195  0.1678
  195loPI   C1B 3117  10.231   9.767   8.728  0.3474 -0.0914 -0.1180
  195loPI   C2B 3118  10.502   9.593   8.595 -0.0413 -0.0017  0.4433
  195loPI   C3B 3119  10.628   9.593   8.181 -0.0864  0.1041 -0.0432
  195loPI   C4B 3120  10.633   9.141   8.238  0.0039 -0.1391  0.1109
  196loPI    C1 3121   3.817  18.331   9.430 -0.1310  0.1168 -0.0293
  196loPI    C2 3122   3.488  18.149   9.565  0.0007 -0.2306 -0.1655
  196loPI    C3 3123   3.794  18.218   9.813 -0.0502 -0.1916 -0.1130
  196loPI   PO4 3124   3.831  18.230   9.237  0.0282  0.3092 -0.1818
  196loPI   GL1 3125   3.940  18.020   8.876  0.0947  0.1724 -0.0806
  196loPI   GL2 3126   3.939  18.249   8.694 -0.0836  0.0389  0.2169
  196loPI   C1A 3127   3.673  17.832   8.624 -0.0981  0.0495 -0.1856
  196loPI   C2A 3128   3.518  17.723   8.174  0.1699  0.1589 -0.3998
  196loPI   C3A 3129   3.437  17.613   7.693 -0.3226  0.1048  0.0273
  196loPI   C4A 3130   3.556  17.772   7.420  0.0545 -0.0082 -0.2514
  196loPI   C5A 3131   3.917  17.840   7.186 -0.0792 -0.1685  0.1751
  196loPI   C6A 3132   3.940  17.678   6.865 -0.0450  0.1499 -0.1666
  196loPI   C1B 3133   4.298  18.450   8.410 -0.0857 -0.0462 -0.1255
  196loPI   C2B 3134   4.307  18.235   7.874  0.0361 -0.2612  0.0043
  196loPI   C3B 3135   4.211  18.291   7.428  0.2262  0.0209  0.0536
  196loPI   C4B 3136   4.018  18.348   7.092 -0.2434  0.2176 -0.1252
  197loPI    C1 3137  13.847  13.395   9.611 -0.1455  0.2100  0.2100
  197loPI    C2 3138  13.455  13.475   9.620 -0.2265 -0.1495  0.0550
  197loPI    C3 3139  13.605  13.186   9.853 -0.0361  0.0477  0.1808
  197loPI   PO4 3140  13.903  13.307   9.443  0.1676 -0.0859  0.2967
  197loPI   GL1 3141  13.887  13.159   9.063 -0.0102 -0.1212  0.2992
  197loPI   GL2 3142  14.058  13.069   8.816 -0.3599 -0.1250  0.3149
  197loPI   C1A 3143  13.658  13.340   8.596  0.2732  0.0746  0.0129
  197loPI   C2A 3144  13.555  13.357   8.192 -0.0627  0.2163 -0.0820
  197loPI   C3A 3145  13.588  13.604   7.781 -0.1104 -0.1691  0.1231
  197loPI   C4A 3146  13.497  13.768   7.404  0.2732 -0.0727 -0.3989
  197loPI   C5A 3147  13.361  13.997   7.150 -0.1116  0.2281 -0.0299
  197loPI   C6A 3148  13.174  14.290   6.906 -0.1347 -0.0375 -0.1555
  197loPI   C1B 3149  14.164  13.108   8.448  0.0331  0.0541 -0.1650
  197loPI   C2B 3150  14.024  13.342   8.043  0.0397  0.0892  0.1883
  197loPI   C3B 3151  13.753  13.134   7.755  0.0570  0.4297  0.0437
  197loPI   C4B 3152  13.854  13.194   7.298 -0.1214 -0.0736  0.1654
  198loPI    C1 3153   9.040  12.259   9.656 -0.2641  0.2283 -0.0316
  198loPI    C2 3154   9.086  12.549   9.385  0.0143  0.2047 -0.0126
  198loPI    C3 3155   9.256  12.584   9.745  0.3346 -0.1274 -0.1244
  198loPI   PO4 3156   8.909  12.082   9.438  0.2885  0.1866 -0.1364
  198loPI   GL1 3157   9.008  12.242   9.020 -0.1617  0.0534  0.0959
  198loPI   GL2 3158   8.748  12.488   8.847 -0.2302 -0.0570 -0.0724
  198loPI   C1A 3159   8.808  11.928   8.706 -0.0576  0.1512 -0.1624
  198loPI   C2A 3160   8.332  11.810   8.638 -0.1424 -0.2710  0.0535
  198loPI   C3A 3161   8.091  11.924   8.258 -0.3001 -0.2299  0.0532
  198loPI   C4A 3162   8.026  12.092   7.949  0.0064  0.0789 -0.2454
  198loPI   C5A 3163   8.332  12.297   7.677  0.0634 -0.0941 -0.1179
  198loPI   C6A 3164   8.657  12.267   7.313 -0.0092 -0.4607  0.2639
  198loPI   C1B 3165   8.864  12.857   8.774 -0.0201 -0.1559  0.1528
  198loPI   C2B 3166   9.057  13.149   8.450 -0.1928 -0.1547 -0.2630
  198loPI   C3B 3167   9.043  13.590   8.556 -0.1801 -0.1214  0.1659
  198loPI   C4B 3168   8.856  13.958   8.442  0.3912  0.0984  0.0159
  199loPI    C1 3169  13.814   2.416   9.155 -0.0118  0.0762  0.0898
  199loPI    C2 3170  13.579   2.357   9.473 -0.0139  0.2176  0.1149
  199loPI    C3 3171  13.914   2.571   9.510  0.1684 -0.0610  0.1004
  199loPI   PO4 3172  13.811   2.104   9.076 -0.1293 -0.1191  0.2788
  199loPI   GL1 3173  13.820   1.958   8.744  0.1274 -0.2505 -0.0314
  199loPI   GL2 3174  13.539   2.038   8.693  0.0882  0.1622 -0.0062
  199loPI   C1A 3175  14.162   1.894   8.485  0.0614 -0.1570  0.3558
  199loPI   C2A 3176  14.176   1.796   8.121 -0.0761 -0.0624 -0.1677
  199loPI   C3A 3177  14.056   1.487   7.811  0.0672 -0.2914 -0.1896
  199loPI   C4A 3178  14.106   1.523   7.404 -0.3056 -0.0657 -0.3750
  199loPI   C5A 3179  14.247   1.632   6.995  0.3222  0.0180  0.1450
  199loPI   C6A 3180  14.606   1.431   6.725  0.2145 -0.1182  0.0304
  199loPI   C1B 3181  13.606   1.805   8.349  0.2431  0.0092 -0.1940
  199loPI   C2B 3182  13.598   1.791   7.940 -0.1394  0.2341 -0.2608
  199loPI   C3B 3183  13.646   1.733   7.494 -0.2752  0.1025  0.1733
  199loPI   C4B 3184  13.957   1.964   7.254 -0.0001 -0.0935  0.3424
  200loPI    C1 3185  18.735  18.790   9.306  0.0762 -0.0309 -0.1442
  200loPI    C2 3186  18.936  18.775   9.652 -0.0710 -0.0278 -0.0577
  200loPI    C3 3187  18.846  18.437   9.457 -0.1036 -0.0381 -0.0249
  200loPI   PO4 3188  18.876  18.965   9.131  0.0875 -0.1757  0.1276
  200loPI   GL1 3189  19.225  19.092   8.868 -0.1848 -0.4295  0.2416
  200loPI   GL2 3190  19.158  19.369   8.656  0.2747  0.0200 -0.1697
  200loPI   C1A 3191  19.255  18.937   8.411 -0.3068 -0.2330 -0.2645
  200loPI   C2A 3192  19.411  18.801   8.010 -0.1402 -0.2470  0.0279
  200loPI   C3A 3193  19.329  18.695   7.648 -0.2263  0.0017 -0.1275
  200loPI   C4A 3194  19.053  18.699   7.312  0.2933  0.0935  0.0941
  200loPI   C5A 3195  18.695  18.665   6.977 -0.0941  0.0107 -0.3412
  200loPI   C6A 3196  18.575  18.400   6.750  0.4155 -0.4328  0.0090
  200loPI   C1B 3197  18.951  19.327   8.238  0.1471 -0.0728  0.0422
  200loPI   C2B 3198  18.835  19.576   7.878 -0.1256  0.1149 -0.0091
  200loPI   C3B 3199  18.715  19.732   7.346  0.0520 -0.3218 -0.3966
  200loPI   C4B 3200  18.806  19.738   7.005 -0.1167 -0.3146  0.0892
  201loPI    C1 3201   4.818   6.526   9.811 -0.0454 -0.1606 -0.0547
  201loPI    C2 3202   4.486   6.451   9.601 -0.0846 -0.0301 -0.0397
  201loPI    C3 3203   4.554   6.818   9.745  0.0407 -0.0692  0.0024
  201loPI   PO4 3204   5.007   6.579   9.643  0.1136  0.0307  0.1323
  201loPI   GL1 3205   5.069   6.733   9.195 -0.0478 -0.0809 -0.1427
  201loPI   GL2 3206   4.896   6.512   9.069  0.0076 -0.1839 -0.2057
  201loPI   C1A 3207   5.370   6.411   9.087 -0.0809  0.0087  0.2233
  201loPI   C2A 3208   5.641   6.087   8.865 -0.3044  0.1850  0.1709
  201loPI   C3A 3209   5.846   6.098   8.430 -0.1659 -0.1215 -0.0327
  201loPI   C4A 3210   5.829   5.915   8.026 -0.0155 -0.0600 -0.0769
  201loPI   C5A 3211   5.700   5.894   7.577  0.0144 -0.0493  0.0464
  201loPI   C6A 3212   5.990   6.057   7.314 -0.0329  0.3668 -0.0705
  201loPI   C1B 3213   4.883   6.710   8.688 -0.1714  0.1514 -0.2543
  201loPI   C2B 3214   5.075   6.695   8.311  0.3652  0.0256  0.0714
  201loPI   C3B 3215   5.568   6.656   8.137  0.1562 -0.1371 -0.1562
  201loPI   C4B 3216   5.970   6.401   8.047  0.0586 -0.0105  0.2956
  202loPI    C1 3217  14.984  14.866   9.175 -0.2052  0.1875  0.2086
  202loPI    C2 3218  15.034  14.471   9.210 -0.3646  0.1594  0.1321
  202loPI    C3 3219  15.303  14.722   9.368 -0.2355  0.0204  0.1354
  202loPI   PO4 3220  14.962  14.940   8.942 -0.3351 -0.3077 -0.2593
  202loPI   GL1 3221  14.930  15.322   8.691  0.1620  0.1130 -0.2973
  202loPI   GL2 3222  14.793  15.671   8.770 -0.0810  0.2808 -0.1079
  202loPI   C1A 3223  15.161  15.351   8.326 -0.0763  0.2200 -0.1649
  202loPI   C2A 3224  15.121  15.242   7.924  0.2483  0.0421  0.1161
  202loPI   C3A 3225  15.105  15.230   7.515 -0.2298  0.1042  0.5081
  202loPI   C4A 3226  15.139  15.374   7.176 -0.3099 -0.1402 -0.0888
  202loPI   C5A 3227  15.255  15.647   6.827  0.7206 -0.0320 -0.2111
  202loPI   C6A 3228  15.142  15.803   6.503 -0.0210 -0.0410 -0.0407
  202loPI   C1B 3229  14.684  15.720   8.260 -0.2736 -0.0274 -0.0088
  202loPI   C2B 3230  14.769  15.726   7.782  0.2439 -0.0611 -0.1598
  202loPI   C3B 3231  14.543  15.554   7.427  0.4579 -0.1883 -0.0368
  202loPI   C4B 3232  14.748  15.610   7.009  0.1866 -0.0763 -0.2828
  203loPI    C1 3233   1.394  11.637  10.503 -0.3241 -0.1961 -0.2340
  203loPI    C2 3234   1.243  11.673  10.872  0.1671 -0.0664 -0.0370
  203loPI    C3 3235   1.510  11.386  10.793  0.1490 -0.0227 -0.2645
  203loPI   PO4 3236   1.170  11.643  10.275  0.2205 -0.2071  0.0770
  203loPI   GL1 3237   1.186  11.481   9.906  0.1300 -0.1435  0.2870
  203loPI   GL2 3238   1.309  11.384   9.679 -0.5443 -0.0620  0.2486
  203loPI   C1A 3239   1.102  11.792   9.516  0.1597 -0.0168  0.2081
  203loPI   C2A 3240   0.915  12.014   9.233  0.3154  0.1050  0.1563
  203loPI   C3A 3241   0.936  11.809   8.673  0.0467 -0.2178  0.1801
  203loPI   C4A 3242   1.155  11.788   8.298  0.4211  0.3087 -0.1220
  203loPI   C5A 3243   1.223  11.667   7.759 -0.1308  0.1509 -0.0863
  203loPI   C6A 3244   1.415  11.558   7.436  0.0837  0.0943 -0.1506
  203loPI   C1B 3245   1.407  11.021   9.397 -0.1513  0.2515 -0.0242
  203loPI   C2B 3246   1.326  11.033   8.979 -0.1594  0.2039  0.0423
  203loPI   C3B 3247   1.435  11.317   8.693  0.1781 -0.2806 -0.1833
  203loPI   C4B 3248   1.589  11.512   8.411  0.0134 -0.0151 -0.1745
  204loPI    C1 3249   9.115  19.455   9.788  0.0674 -0.0656 -0.0098
  204loPI    C2 3250   9.209  19.749  10.042  0.2346 -0.1689  0.0497
  204loPI    C3 3251   8.910  19.498  10.128  0.0896 -0.0159 -0.0025
  204loPI   PO4 3252   9.111  19.554   9.551 -0.0287  0.2750 -0.0809
  204loPI   GL1 3253   9.145  19.755   9.217 -0.0265 -0.2963  0.0206
  204loPI   GL2 3254   8.868  19.507   9.143  0.3235  0.1001  0.0486
  204loPI   C1A 3255   9.156  20.015   8.837 -0.1427  0.2043  0.1036
  204loPI   C2A 3256   9.035  20.071   8.446  0.1532 -0.1379  0.1605
  204loPI   C3A 3257   9.326  19.955   8.137 -0.0172 -0.0355  0.0248
  204loPI   C4A 3258   9.330  20.009   7.791 -0.2712  0.0662  0.0348
  204loPI   C5A 3259   9.214  19.902   7.387 -0.0626  0.0913 -0.0277
  204loPI   C6A 3260   9.391  19.688   7.092  0.1302 -0.1760 -0.2418
  204loPI   C1B 3261   8.838  19.539   8.631 -0.1124  0.0129 -0.0942
  204loPI   C2B 3262   8.972  19.595   8.191  0.1788 -0.1291 -0.0876
  204loPI   C3B 3263   8.922  19.694   7.721  0.1909  0.1213 -0.0359
  204loPI   C4B 3264   8.818  19.649   7.192  0.0064 -0.4917  0.1653
  205loPI    C1 3265  12.085  11.066   9.658  0.1943  0.1410  0.0767
  205loPI    C2 3266  12.336  10.852   9.431  0.0350 -0.0883  0.1124
  205loPI    C3 3267  12.155  10.682   9.745  0.1418  0.1861  0.3277
  205loPI   PO4 3268  11.903  11.161   9.526 -0.0663  0.5474  0.1644
  205loPI   GL1 3269  11.826  11.116   9.160 -0.2124  0.3013  0.1897
  205loPI   GL2 3270  12.149  10.897   8.991  0.2009 -0.1132 -0.3975
  205loPI   C1A 3271  11.702  11.152   8.742  0.1644 -0.0147  0.3457
  205loPI   C2A 3272  11.623  11.143   8.360  0.1220 -0.1267  0.1098
  205loPI   C3A 3273  11.709  11.096   7.942 -0.0577 -0.2494  0.0168
  205loPI   C4A 3274  11.749  11.380   7.555  0.3337 -0.1038 -0.1406
  205loPI   C5A 3275  11.575  11.724   7.338 -0.0203 -0.0300  0.2494
  205loPI   C6A 3276  11.764  12.092   7.374  0.0746  0.3507  0.0218
  205loPI   C1B 3277  12.103  10.839   8.607 -0.2925 -0.3161 -0.0083
  205loPI   C2B 3278  11.947  10.753   8.192  0.1740 -0.4423  0.0193
  205loPI   C3B 3279  12.221  10.466   7.973 -0.1505  0.0330 -0.1513
  205loPI   C4B 3280  12.645  10.296   7.955  0.2167 -0.0123  0.1365
  206loPI    C1 3281   4.521   8.381   9.498 -0.4902 -0.0746 -0.0300
  206loPI    C2 3282   4.704   8.043   9.607 -0.1328  0.0748 -0.1527
  206loPI    C3 3283   4.549   8.285   9.885  0.1177  0.0900 -0.0231
  206loPI   PO4 3284   4.458   8.333   9.298  0.1778  0.1138  0.2728
  206loPI   GL1 3285   4.613   8.378   8.894  0.0934 -0.3611  0.0013
  206loPI   GL2 3286   4.424   8.680   8.881 -0.1229 -0.0401  0.0239
  206loPI   C1A 3287   5.158   8.358   8.869 -0.2503  0.1569  0.0677
  206loPI   C2A 3288   5.408   8.560   8.652  0.3289 -0.0886 -0.2093
  206loPI   C3A 3289   5.637   8.878   8.397 -0.1134 -0.0386  0.1743
  206loPI   C4A 3290   5.883   8.994   7.963  0.0956  0.2447  0.1778
  206loPI   C5A 3291   6.049   8.953   7.517 -0.0623  0.1514 -0.2892
  206loPI   C6A 3292   6.244   9.006   7.057  0.1184  0.0091  0.1536
  206loPI   C1B 3293   4.130   8.557   8.603 -0.2074  0.1573 -0.1295
  206loPI   C2B 3294   4.197   8.475   8.169  0.3978 -0.2037  0.0827
  206loPI   C3B 3295   4.161   8.522   7.757  0.0696  0.0108 -0.1302
  206loPI   C4B 3296   3.878   8.242   7.563  0.1082  0.0617  0.0460
  207loPI    C1 3297   0.430  16.874   9.911 -0.2551 -0.0456  0.0230
  207loPI    C2 3298   0.525  17.022  10.270  0.0001  0.2960 -0.1788
  207loPI    C3 3299   0.169  16.848  10.213 -0.1006  0.3690  0.1992
  207loPI   PO4 3300   0.635  17.036   9.620 -0.2644  0.1236  0.0221
  207loPI   GL1 3301   0.769  17.383   9.180 -0.0443 -0.0566 -0.1964
  207loPI   GL2 3302   0.399  17.288   9.245 -0.2674 -0.3217  0.0836
  207loPI   C1A 3303   0.619  17.413   8.699 -0.2384 -0.1827  0.3121
  207loPI   C2A 3304   0.343  17.615   8.234 -0.0769 -0.1915 -0.0313
  207loPI   C3A 3305  -0.009  17.409   8.082  0.0076  0.2934  0.2027
  207loPI   C4A 3306  -0.120  17.197   7.787 -0.0178  0.0161  0.0458
  207loPI   C5A 3307   0.079  16.945   7.377 -0.1816  0.0764 -0.4305
  207loPI   C6A 3308   0.229  16.622   7.071 -0.4457 -0.2419  0.0856
  207loPI   C1B 3309   0.185  17.570   8.873  0.0476 -0.0690 -0.0900
  207loPI   C2B 3310  -0.106  17.641   8.587 -0.1770 -0.2661 -0.0058
  207loPI   C3B 3311  -0.490  17.555   8.347 -0.0630  0.0295  0.2702
  207loPI   C4B 3312  -0.596  17.566   7.893 -0.2138  0.0583  0.0537
  208loPI    C1 3313   5.925   3.324   9.858  0.0837 -0.0628  0.1700
  208loPI    C2 3314   6.062   3.662  10.023 -0.1497 -0.0319  0.3048
  208loPI    C3 3315   6.045   3.326  10.240  0.0672 -0.1279  0.1756
  208loPI   PO4 3316   5.848   3.411   9.617  0.0853  0.1471 -0.0837
  208loPI   GL1 3317   5.759   3.382   9.141  0.3136  0.3213  0.0955
  208loPI   GL2 3318   5.681   3.223   8.752  0.1695  0.1862 -0.0738
  208loPI   C1A 3319   5.593   3.694   8.819 -0.3992 -0.3856 -0.3878
  208loPI   C2A 3320   5.681   3.605   8.398  0.1601  0.0099  0.0291
  208loPI   C3A 3321   5.681   3.365   8.019  0.2164  0.3174  0.2128
  208loPI   C4A 3322   5.510   3.261   7.629 -0.1091 -0.1852 -0.0302
  208loPI   C5A 3323   5.672   3.245   7.221 -0.1234 -0.3623  0.0894
  208loPI   C6A 3324   6.110   3.236   6.990  0.0036 -0.0591 -0.0511
  208loPI   C1B 3325   5.590   3.005   8.392 -0.0113 -0.2209 -0.1488
  208loPI   C2B 3326   5.876   2.934   7.965  0.2599  0.2033  0.3384
  208loPI   C3B 3327   5.949   2.967   7.529  0.0311 -0.0528  0.1554
  208loPI   C4B 3328   6.177   2.739   7.356 -0.2244  0.1484  0.1905
  209loPI    C1 3329   0.268  11.795   9.861  0.2870 -0.2952 -0.0084
  209loPI    C2 3330   0.138  11.912  10.221  0.0542 -0.2670 -0.1000
  209loPI    C3 3331   0.522  11.963  10.121  0.0331  0.1000 -0.0076
  209loPI   PO4 3332   0.105  11.928   9.699  0.1916  0.2430  0.2160
  209loPI   GL1 3333  -0.156  11.704   9.445 -0.0055  0.1496  0.0983
  209loPI   GL2 3334  -0.334  12.009   9.339  0.0519  0.3346  0.0927
  209loPI   C1A 3335   0.090  11.669   9.066  0.2916 -0.0658  0.4643
  209loPI   C2A 3336  -0.008  11.508   8.622  0.1209 -0.4073 -0.1420
  209loPI   C3A 3337  -0.021  11.413   8.170  0.2202  0.0321 -0.4433
  209loPI   C4A 3338  -0.143  11.394   7.801  0.0271 -0.0381  0.0322
  209loPI   C5A 3339  -0.370  11.496   7.432  0.0499 -0.1024 -0.0898
  209loPI   C6A 3340  -0.847  11.522   7.303  0.2380  0.0200  0.0827
  209loPI   C1B 3341  -0.403  11.950   8.892 -0.0899 -0.4685 -0.1134
  209loPI   C2B 3342  -0.522  11.759   8.604  0.3027  0.1819 -0.0355
  209loPI   C3B 3343  -0.471  11.681   8.176 -0.1127 -0.1418 -0.1239
  209loPI   C4B 3344  -0.662  11.727   7.730 -0.1055 -0.0612  0.1259
  210loPI    C1 3345   0.959   4.021   9.169 -0.1632  0.1682 -0.1467
  210loPI    C2 3346   1.039   4.143   9.541 -0.3148  0.0721 -0.0817
  210loPI    C3 3347   1.330   4.133   9.267 -0.1573 -0.0482  0.0873
  210loPI   PO4 3348   0.692   4.125   9.097  0.1531  0.0635 -0.0335
  210loPI   GL1 3349   0.349   4.034   8.755 -0.2048  0.2701 -0.0052
  210loPI   GL2 3350   0.340   3.754   8.621 -0.3397  0.1337 -0.2380
  210loPI   C1A 3351   0.583   4.194   8.330  0.1805  0.2074 -0.1761
  210loPI   C2A 3352   0.776   4.259   7.924 -0.1711  0.0552 -0.1263
  210loPI   C3A 3353   0.795   4.298   7.420 -0.1614  0.1029  0.1252
  210loPI   C4A 3354   0.659   4.081   7.105 -0.2040  0.3679  0.0647
  210loPI   C5A 3355   0.497   3.839   6.792 -0.2530  0.0014  0.5337
  210loPI   C6A 3356   0.793   3.966   6.483 -0.1467  0.0447 -0.1731
  210loPI   C1B 3357   0.152   3.390   8.526 -0.1444  0.1654  0.0110
  210loPI   C2B 3358   0.275   3.073   8.302  0.2045  0.1070 -0.1727
  210loPI   C3B 3359   0.301   2.990   7.919 -0.1937  0.0389 -0.2301
  210loPI   C4B 3360   0.396   2.744   7.567  0.2120 -0.2275  0.1170
  211loPI    C1 3361   3.011  13.193   9.944  0.1603 -0.2677 -0.0742
  211loPI    C2 3362   3.060  13.415  10.273 -0.1624 -0.0400 -0.1747
  211loPI    C3 3363   3.373  13.229  10.109  0.0509  0.0677  0.1025
  211loPI   PO4 3364   2.852  13.322   9.801  0.3363 -0.2005 -0.1726
  211loPI   GL1 3365   2.753  13.474   9.489  0.2930  0.3164 -0.0230
  211loPI   GL2 3366   2.423  13.338   9.517 -0.1607 -0.3407 -0.2479
  211loPI   C1A 3367   2.733  13.276   9.058 -0.1228  0.3003  0.2323
  211loPI   C2A 3368   2.764  13.382   8.478  0.1202  0.3629  0.1077
  211loPI   C3A 3369   2.882  13.377   8.016  0.1792  0.4798 -0.0638
  211loPI   C4A 3370   2.842  13.297   7.559  0.1428 -0.1792  0.2659
  211loPI   C5A 3371   2.922  13.250   7.235  0.2477  0.1000  0.1280
  211loPI   C6A 3372   2.989  13.274   6.753  0.1855  0.3537  0.0015
  211loPI   C1B 3373   2.166  13.334   9.146 -0.0210 -0.1109  0.3887
  211loPI   C2B 3374   2.006  13.351   8.637  0.2231 -0.2316  0.1694
  211loPI   C3B 3375   1.914  13.090   8.336 -0.1263 -0.1096  0.0095
  211loPI   C4B 3376   2.089  12.830   7.940  0.0587 -0.3306 -0.0556
  212loPI    C1 3377  17.215   9.696  10.135  0.1748  0.2201  0.0261
  212loPI    C2 3378  17.533   9.926  10.214 -0.0136  0.4262  0.1983
  212loPI    C3 3379  17.214   9.936  10.455  0.0184 -0.1032  0.2740
  212loPI   PO4 3380  17.229   9.732   9.820 -0.1516 -0.0102 -0.1197
  212loPI   GL1 3381  17.156   9.862   9.498  0.1694  0.0629 -0.0543
  212loPI   GL2 3382  16.817   9.908   9.301  0.3855  0.1777  0.0074
  212loPI   C1A 3383  17.455   9.747   9.171 -0.2911 -0.1167 -0.1736
  212loPI   C2A 3384  17.548   9.589   8.688  0.0406  0.0552  0.0748
  212loPI   C3A 3385  17.864   9.499   8.384 -0.2742  0.2072 -0.0853
  212loPI   C4A 3386  18.124   9.853   8.153 -0.1858  0.1577 -0.1254
  212loPI   C5A 3387  18.404   9.717   7.717 -0.1430 -0.2099  0.1062
  212loPI   C6A 3388  18.474   9.644   7.248 -0.0116  0.0147 -0.1304
  212loPI   C1B 3389  16.819  10.110   8.902 -0.0765 -0.0322  0.1551
  212loPI   C2B 3390  16.657  10.071   8.467 -0.1052 -0.2620  0.0189
  212loPI   C3B 3391  16.705  10.037   8.049  0.1624 -0.2327 -0.3161
  212loPI   C4B 3392  16.774  10.145   7.689 -0.1560 -0.0546 -0.1019
  213loPI    C1 3393   1.348   2.778   9.487 -0.1880  0.3807  0.0326
  213loPI    C2 3394   1.151   2.804   9.834 -0.1675  0.1647  0.0616
  213loPI    C3 3395   1.530   2.675   9.827 -0.2012  0.0702 -0.0516
  213loPI   PO4 3396   1.244   2.596   9.330 -0.1071 -0.2189  0.0485
  213loPI   GL1 3397   1.396   2.463   9.009 -0.1195 -0.0132  0.2154
  213loPI   GL2 3398   1.222   2.798   8.865  0.2562  0.2062 -0.0511
  213loPI   C1A 3399   1.237   2.278   8.670 -0.0171  0.2292  0.0543
  213loPI   C2A 3400   0.969   2.413   8.336  0.0382 -0.3468 -0.0714
  213loPI   C3A 3401   0.732   2.189   8.074 -0.1062  0.2063 -0.0670
  213loPI   C4A 3402   0.515   2.181   7.675  0.2352 -0.3542 -0.2776
  213loPI   C5A 3403   0.463   2.248   7.295  0.0654 -0.2266  0.0923
  213loPI   C6A 3404   0.843   2.317   6.886 -0.2439 -0.2699 -0.3424
  213loPI   C1B 3405   1.288   2.934   8.440 -0.1668  0.1257  0.6242
  213loPI   C2B 3406   1.264   2.819   7.937  0.1139 -0.0473  0.0437
  213loPI   C3B 3407   0.982   3.036   7.569 -0.0826  0.1042 -0.3899
  213loPI   C4B 3408   0.625   3.185   7.449  0.0928 -0.0701  0.0139
  214loPI    C1 3409  14.105  18.725  10.079 -0.0015 -0.3176 -0.2063
  214loPI    C2 3410  13.777  18.552  10.227 -0.0965 -0.1047 -0.1633
  214loPI    C3 3411  14.136  18.387  10.291 -0.1437 -0.0678  0.2256
  214loPI   PO4 3412  14.035  19.022  10.038 -0.1404 -0.1582 -0.2745
  214loPI   GL1 3413  14.095  19.023   9.617 -0.0513 -0.1302 -0.0172
  214loPI   GL2 3414  14.381  18.821   9.472 -0.2960  0.0047  0.2680
  214loPI   C1A 3415  13.999  19.297   9.180 -0.0353  0.1958 -0.2442
  214loPI   C2A 3416  13.902  19.242   8.734  0.2477  0.1256  0.1846
  214loPI   C3A 3417  13.913  19.203   8.319  0.1251  0.1024  0.2776
  214loPI   C4A 3418  14.106  19.219   7.891 -0.0838 -0.5940  0.1074
  214loPI   C5A 3419  14.225  18.954   7.433 -0.0102 -0.0393 -0.2501
  214loPI   C6A 3420  14.636  18.660   7.424  0.0980  0.2080  0.4021
  214loPI   C1B 3421  14.299  18.960   9.019  0.4330  0.1843  0.3030
  214loPI   C2B 3422  14.127  18.762   8.560 -0.0151  0.1234  0.0373
  214loPI   C3B 3423  14.392  18.625   8.245 -0.1503 -0.0206  0.0038
  214loPI   C4B 3424  14.558  18.657   7.894 -0.0755 -0.0421 -0.3369
  215loPI    C1 3425  11.652  10.007   9.428  0.2074 -0.3261 -0.1742
  215loPI    C2 3426  11.964  10.076   9.669 -0.0233 -0.0194  0.0451
  215loPI    C3 3427  11.645   9.877   9.806 -0.0990  0.0355 -0.0500
  215loPI   PO4 3428  11.568  10.238   9.259  0.2085  0.1420  0.0294
  215loPI   GL1 3429  11.842  10.301   8.849 -0.0614 -0.1252  0.0995
  215loPI   GL2 3430  11.745   9.973   8.863  0.0412  0.3039  0.0557
  215loPI   C1A 3431  11.956  10.284   8.424 -0.1667  0.0642 -0.1936
  215loPI   C2A 3432  12.332  10.061   8.314 -0.1180 -0.0093  0.0928
  215loPI   C3A 3433  12.417   9.817   8.052 -0.1968  0.0565  0.0350
  215loPI   C4A 3434  12.324   9.552   7.765 -0.1475 -0.1941  0.0731
  215loPI   C5A 3435  12.003   9.369   7.506  0.1254 -0.0753 -0.1281
  215loPI   C6A 3436  11.706   9.207   7.460 -0.1237  0.1952 -0.0661
  215loPI   C1B 3437  11.949   9.778   8.457  0.0052 -0.1031  0.3426
  215loPI   C2B 3438  11.908   9.763   8.004 -0.0596  0.1564 -0.2089
  215loPI   C3B 3439  12.120   9.950   7.618  0.2082  0.0192 -0.1677
  215loPI   C4B 3440  12.425  10.197   7.470 -0.1052  0.0576  0.0945
  216loPI    C1 3441   1.787   7.703   9.759 -0.0918 -0.0445 -0.0146
  216loPI    C2 3442   1.405   7.585   9.753 -0.1392  0.1116 -0.1335
  216loPI    C3 3443   1.620   7.549  10.088 -0.1967 -0.1674 -0.1237
  216loPI   PO4 3444   1.899   7.559   9.574  0.2204 -0.0429 -0.0674
  216loPI   GL1 3445   1.957   7.816   9.218  0.1243  0.4286 -0.1031
  216loPI   GL2 3446   2.007   7.523   9.057 -0.4631 -0.0037 -0.1012
  216loPI   C1A 3447   1.602   7.926   8.926 -0.0330 -0.1739 -0.0858
  216loPI   C2A 3448   1.455   8.027   8.507 -0.1076 -0.2086 -0.2115
  216loPI   C3A 3449   1.729   7.993   8.136  0.0369  0.0691 -0.1613
  216loPI   C4A 3450   1.835   7.926   7.681  0.2295 -0.2615 -0.3170
  216loPI   C5A 3451   1.675   7.637   7.400  0.1228  0.0326  0.1839
  216loPI   C6A 3452   1.243   7.545   7.185 -0.1566  0.3083  0.1983
  216loPI   C1B 3453   2.187   7.246   8.768 -0.0659 -0.0678 -0.0717
  216loPI   C2B 3454   2.396   6.876   8.683  0.0751 -0.0688  0.0157
  216loPI   C3B 3455   2.692   6.587   8.663  0.1723  0.1594 -0.2584
  216loPI   C4B 3456   3.016   6.503   8.830  0.0493 -0.1517  0.0786
  217loPI    C1 3457  17.233  17.031   9.667 -0.1835 -0.0186 -0.0969
  217loPI    C2 3458  17.455  17.308   9.482  0.1597 -0.0142  0.3084
  217loPI    C3 3459  17.093  17.403   9.622  0.0588  0.0849 -0.0115
  217loPI   PO4 3460  17.223  16.866   9.472  0.0513 -0.0558  0.0870
  217loPI   GL1 3461  17.198  16.895   9.055  0.0135  0.1633  0.0100
  217loPI   GL2 3462  17.206  17.135   8.968 -0.0415 -0.0455 -0.1561
  217loPI   C1A 3463  17.117  16.627   8.673 -0.0788  0.0996  0.1546
  217loPI   C2A 3464  16.894  16.598   8.289 -0.1290  0.1448  0.0037
  217loPI   C3A 3465  16.770  16.709   7.952  0.3168 -0.3056 -0.0784
  217loPI   C4A 3466  16.593  16.822   7.524 -0.1651  0.4611 -0.3112
  217loPI   C5A 3467  16.826  17.050   7.170 -0.2203  0.2672 -0.1097
  217loPI   C6A 3468  17.036  17.018   6.803 -0.1526  0.0902 -0.1069
  217loPI   C1B 3469  17.397  17.032   8.637 -0.0467 -0.1757 -0.3088
  217loPI   C2B 3470  17.205  17.080   8.229  0.0329 -0.1961 -0.3074
  217loPI   C3B 3471  16.958  17.165   7.891 -0.1044 -0.2267  0.1100
  217loPI   C4B 3472  16.609  17.287   7.791 -0.0925  0.1838  0.1606
  218loPI    C1 3473  16.831   6.899  10.066  0.2582 -0.1454  0.1091
  218loPI    C2 3474  16.783   6.545   9.885 -0.0201  0.0672 -0.2469
  218loPI    C3 3475  16.463   6.754  10.005  0.1402  0.2192 -0.0763
  218loPI   PO4 3476  17.001   6.977   9.863  0.3048 -0.2847 -0.0044
  218loPI   GL1 3477  16.984   6.724   9.449 -0.0874  0.0800 -0.0771
  218loPI   GL2 3478  16.830   6.997   9.337 -0.0215 -0.1541 -0.2362
  218loPI   C1A 3479  17.244   6.642   9.074  0.0245  0.3278 -0.1512
  218loPI   C2A 3480  17.498   6.855   8.912 -0.0015 -0.2320 -0.4656
  218loPI   C3A 3481  17.497   6.869   8.472  0.0077  0.2123 -0.1537
  218loPI   C4A 3482  17.546   7.068   8.074 -0.1001  0.3964 -0.0439
  218loPI   C5A 3483  17.485   7.181   7.636  0.0244 -0.0334  0.2584
  218loPI   C6A 3484  17.621   6.871   7.332  0.0611  0.2470  0.4610
  218loPI   C1B 3485  16.576   6.935   8.895  0.2222 -0.3362  0.0568
  218loPI   C2B 3486  16.409   7.051   8.493 -0.2296 -0.3070 -0.0330
  218loPI   C3B 3487  16.553   6.967   8.103 -0.1000 -0.1919 -0.2664
  218loPI   C4B 3488  16.615   7.088   7.669  0.4719 -0.0889  0.1568
  219loPI    C1 3489   5.407   9.939   9.751 -0.1124 -0.0825  0.2582
  219loPI    C2 3490   5.502  10.186  10.051 -0.1866  0.0999  0.1336
  219loPI    C3 3491   5.789  10.038   9.816 -0.1400  0.0519  0.2202
  219loPI   PO4 3492   5.240  10.060   9.630  0.1087  0.1729  0.0974
  219loPI   GL1 3493   5.147  10.182   9.336  0.0773 -0.5268 -0.0734
  219loPI   GL2 3494   5.285  10.276   9.095 -0.0575  0.0551 -0.1088
  219loPI   C1A 3495   5.067   9.893   8.871 -0.2186 -0.1738  0.0529
  219loPI   C2A 3496   5.042   9.907   8.409  0.2675 -0.1612  0.2484
  219loPI   C3A 3497   4.802  10.049   8.087 -0.1835 -0.1837  0.3155
  219loPI   C4A 3498   4.861   9.918   7.636 -0.0209 -0.0983 -0.2506
  219loPI   C5A 3499   4.921   9.707   7.197  0.2343  0.2720  0.1707
  219loPI   C6A 3500   5.263   9.562   6.999  0.1796 -0.0612  0.1234
  219loPI   C1B 3501   5.264  10.291   8.632  0.1184  0.0243  0.1383
  219loPI   C2B 3502   5.208  10.315   8.218  0.0029 -0.1332 -0.2526
  219loPI   C3B 3503   5.280  10.144   7.780 -0.1795  0.0023 -0.1944
  219loPI   C4B 3504   5.256  10.086   7.336 -0.2005  0.1011  0.0101
  220loPI    C1 3505  18.316  13.704   9.514  0.1292  0.0630  0.0194
  220loPI    C2 3506  18.697  13.604   9.579  0.1580  0.0536 -0.1578
  220loPI    C3 3507  18.429  13.574   9.875  0.3012  0.0944 -0.0224
  220loPI   PO4 3508  18.322  13.616   9.225  0.2932 -0.1342 -0.0837
  220loPI   GL1 3509  18.670  13.585   9.001 -0.0443  0.0097 -0.0891
  220loPI   GL2 3510  18.950  13.580   9.032 -0.0490  0.2056 -0.1989
  220loPI   C1A 3511  18.738  13.720   8.623 -0.1650 -0.1849  0.0514
  220loPI   C2A 3512  18.720  13.413   8.258 -0.0922  0.0390  0.1304
  220loPI   C3A 3513  18.796  13.468   7.797  0.0018  0.3659 -0.0427
  220loPI   C4A 3514  19.046  13.770   7.521  0.0279  0.2450  0.0916
  220loPI   C5A 3515  18.968  13.840   7.272 -0.0662  0.1021  0.1860
  220loPI   C6A 3516  18.799  13.756   6.855  0.1806  0.0165 -0.1352
  220loPI   C1B 3517  19.016  13.331   8.647 -0.1135 -0.0910  0.1543
  220loPI   C2B 3518  18.834  12.954   8.380 -0.2292  0.0149 -0.0081
  220loPI   C3B 3519  18.929  12.858   7.922 -0.0895 -0.0335  0.3167
  220loPI   C4B 3520  18.681  12.780   7.500  0.2634 -0.1635 -0.4455
  221loPI    C1 3521   0.625  16.406   9.797  0.0170  0.5041 -0.0195
  221loPI    C2 3522   0.826  16.364  10.139  0.1562  0.2726 -0.1278
  221loPI    C3 3523   0.430  16.412  10.146  0.1046 -0.1295  0.0526
  221loPI   PO4 3524   0.851  16.512   9.583  0.3082  0.1979 -0.1131
  221loPI   GL1 3525   0.844  16.792   9.130 -0.0610 -0.1176 -0.2637
  221loPI   GL2 3526   0.952  16.830   8.819 -0.1161 -0.0009 -0.0856
  221loPI   C1A 3527   0.493  16.919   8.862  0.0383 -0.0760  0.1112
  221loPI   C2A 3528   0.604  16.670   8.469 -0.3296 -0.0116  0.2751
  221loPI   C3A 3529   0.646  16.672   8.068  0.0771 -0.1703 -0.1798
  221loPI   C4A 3530   0.880  16.583   7.745  0.1030 -0.4256  0.0968
  221loPI   C5A 3531   1.011  16.254   7.549 -0.4366  0.1680  0.2167
  221loPI   C6A 3532   0.912  15.845   7.348 -0.0050  0.0095 -0.2266
  221loPI   C1B 3533   0.983  16.942   8.444  0.1505  0.0392 -0.2331
  221loPI   C2B 3534   1.103  16.997   8.027 -0.1370 -0.2931  0.2764
  221loPI   C3B 3535   1.096  17.361   7.757 -0.0608  0.0240 -0.2634
  221loPI   C4B 3536   0.820  17.546   7.364 -0.1435 -0.0586  0.0786
  222loPI    C1 3537  18.950   3.703   9.844  0.0509  0.0120 -0.0978
  222loPI    C2 3538  19.102   3.367   9.689 -0.0603 -0.0102 -0.1599
  222loPI    C3 3539  19.207   3.483  10.057  0.1060 -0.0252 -0.2020
  222loPI   PO4 3540  18.887   3.841   9.637  0.0872  0.0798 -0.0031
  222loPI   GL1 3541  18.811   4.004   9.293 -0.0507 -0.1989 -0.0751
  222loPI   GL2 3542  18.952   4.289   9.312 -0.1172  0.3331  0.0390
  222loPI   C1A 3543  18.578   3.851   8.880  0.1249 -0.0273 -0.0018
  222loPI   C2A 3544  18.614   3.924   8.406  0.3373  0.0867  0.4325
  222loPI   C3A 3545  18.684   3.906   8.044  0.0866 -0.0459 -0.2825
  222loPI   C4A 3546  18.695   3.742   7.713  0.0782 -0.2598 -0.0133
  222loPI   C5A 3547  18.618   3.758   7.233  0.4537 -0.1072  0.2485
  222loPI   C6A 3548  18.811   3.634   6.894 -0.0797  0.0782  0.0416
  222loPI   C1B 3549  18.751   4.340   8.777 -0.1897 -0.1479  0.1115
  222loPI   C2B 3550  18.812   4.345   8.270 -0.0348 -0.2855  0.0791
  222loPI   C3B 3551  18.874   4.374   7.834  0.0841  0.0555  0.1926
  222loPI   C4B 3552  18.584   4.313   7.456  0.0355  0.3052 -0.0183
  223loPI    C1 3553  19.588  14.845   9.523 -0.1616  0.0582  0.0161
  223loPI    C2 3554  19.680  14.769   9.905  0.1165 -0.1128 -0.0818
  223loPI    C3 3555  19.650  15.147   9.778  0.1798 -0.0550  0.0723
  223loPI   PO4 3556  19.724  14.722   9.377  0.3498 -0.0344  0.1481
  223loPI   GL1 3557  19.966  14.835   8.984  0.1312 -0.0404 -0.0738
  223loPI   GL2 3558  20.191  14.706   9.178 -0.1917  0.0426 -0.1213
  223loPI   C1A 3559  19.878  14.612   8.624  0.1962 -0.0805 -0.1738
  223loPI   C2A 3560  19.769  14.658   8.249 -0.0968 -0.0952  0.1256
  223loPI   C3A 3561  19.846  14.456   7.893  0.0384 -0.3081 -0.3541
  223loPI   C4A 3562  19.999  14.467   7.527  0.0411 -0.0664 -0.2824
  223loPI   C5A 3563  19.922  14.062   7.319  0.3962  0.1232 -0.0399
  223loPI   C6A 3564  19.937  14.075   6.864  0.1037  0.3173 -0.0439
  223loPI   C1B 3565  20.252  14.281   9.004  0.1276 -0.1124  0.2041
  223loPI   C2B 3566  20.121  14.141   8.627  0.1111  0.0034  0.2730
  223loPI   C3B 3567  20.150  14.148   8.198 -0.4930  0.0535 -0.2056
  223loPI   C4B 3568  20.135  13.998   7.772  0.4259  0.0575 -0.3001
  224loPI    C1 3569   9.672  12.280   9.743  0.1645  0.1943  0.1846
  224loPI    C2 3570   9.649  12.464  10.098 -0.3178  0.1830  0.1658
  224loPI    C3 3571   9.394  12.169  10.009 -0.0563  0.0339 -0.1080
  224loPI   PO4 3572   9.683  12.448   9.542  0.1497 -0.0648  0.2226
  224loPI   GL1 3573   9.692  12.322   9.129 -0.0775 -0.2553  0.2757
  224loPI   GL2 3574  10.055  12.293   9.144 -0.2188  0.0535 -0.1197
  224loPI   C1A 3575   9.479  12.237   8.706 -0.1001 -0.0625 -0.0410
  224loPI   C2A 3576   9.522  12.218   8.265 -0.0688 -0.0527 -0.0414
  224loPI   C3A 3577   9.515  12.105   7.805 -0.2626  0.2854 -0.1442
  224loPI   C4A 3578   9.393  12.109   7.451  0.1807 -0.2255 -0.2552
  224loPI   C5A 3579   9.050  12.033   7.060 -0.1479 -0.0902 -0.0031
  224loPI   C6A 3580   8.826  11.700   6.697  0.0989  0.0688 -0.0648
  224loPI   C1B 3581  10.138  12.242   8.780  0.1465 -0.1935  0.0714
  224loPI   C2B 3582  10.149  12.254   8.411  0.0288  0.0933 -0.0754
  224loPI   C3B 3583   9.991  12.341   8.052 -0.0214  0.2791 -0.0251
  224loPI   C4B 3584   9.910  12.349   7.639 -0.2174 -0.0761  0.1848
  225loPI    C1 3585  16.509   1.589   9.593  0.2672  0.0342  0.0173
  225loPI    C2 3586  16.735   1.886   9.735  0.0309  0.2004  0.0521
  225loPI    C3 3587  16.572   1.622   9.986 -0.0945  0.2839  0.0598
  225loPI   PO4 3588  16.349   1.764   9.341 -0.0228  0.1534 -0.0647
  225loPI   GL1 3589  16.536   1.968   8.920 -0.1409  0.0346  0.0933
  225loPI   GL2 3590  16.435   1.618   8.845  0.0534  0.0494  0.2414
  225loPI   C1A 3591  16.678   2.347   8.846  0.2598  0.0930 -0.1357
  225loPI   C2A 3592  16.819   2.648   8.476 -0.3906 -0.3579  0.1835
  225loPI   C3A 3593  17.004   3.070   8.298 -0.0905  0.1595  0.0190
  225loPI   C4A 3594  17.197   3.167   8.005 -0.1927  0.0346  0.0786
  225loPI   C5A 3595  17.058   3.080   7.522 -0.0895  0.1313  0.0872
  225loPI   C6A 3596  16.929   3.060   7.060 -0.0723  0.1432 -0.2196
  225loPI   C1B 3597  16.525   1.800   8.357 -0.1749  0.1680  0.1097
  225loPI   C2B 3598  16.784   1.915   8.028 -0.0905 -0.0208 -0.1880
  225loPI   C3B 3599  16.661   1.805   7.625  0.2146  0.0694  0.0579
  225loPI   C4B 3600  16.630   1.861   7.238  0.1152 -0.0181  0.2601
  226loPI    C1 3601  16.247   9.811   9.738  0.2170  0.1882 -0.0381
  226loPI    C2 3602  16.257  10.170   9.914  0.1868  0.2140 -0.0885
  226loPI    C3 3603  16.225   9.839  10.136 -0.0097  0.2549 -0.0539
  226loPI   PO4 3604  16.321   9.927   9.500  0.2270 -0.1694 -0.3029
  226loPI   GL1 3605  15.989  10.081   9.077 -0.0122  0.2755 -0.1301
  226loPI   GL2 3606  16.254  10.038   8.944  0.2319 -0.0926  0.0084
  226loPI   C1A 3607  15.687   9.928   8.705 -0.0798  0.0068  0.1749
  226loPI   C2A 3608  15.633   9.944   8.256 -0.1110  0.0427  0.1877
  226loPI   C3A 3609  15.752  10.016   7.778 -0.1623 -0.0478  0.3133
  226loPI   C4A 3610  15.922  10.144   7.372 -0.0585  0.0974  0.0700
  226loPI   C5A 3611  16.151  10.306   7.019  0.3332  0.2971 -0.1723
  226loPI   C6A 3612  16.329  10.046   6.807 -0.2844 -0.0733 -0.1690
  226loPI   C1B 3613  16.148   9.885   8.506 -0.2088  0.0843  0.1086
  226loPI   C2B 3614  16.194   9.986   8.126  0.1345  0.2959  0.0679
  226loPI   C3B 3615  16.235  10.032   7.768  0.1344  0.1947  0.3487
  226loPI   C4B 3616  16.421  10.022   7.299 -0.2002 -0.0117  0.1959
  227loPI    C1 3617   1.500   8.834  10.220 -0.1802  0.0079 -0.0524
  227loPI    C2 3618   1.562   9.040  10.557 -0.0972 -0.1851  0.0518
  227loPI    C3 3619   1.358   8.696  10.568 -0.3476 -0.0461 -0.1409
  227loPI   PO4 3620   1.387   9.020   9.970 -0.0089  0.2467 -0.2844
  227loPI   GL1 3621   1.348   9.236   9.524  0.2565  0.1019  0.1093
  227loPI   GL2 3622   1.263   9.081   9.271 -0.1081  0.2105 -0.2808
  227loPI   C1A 3623   1.661   9.395   9.248 -0.1002 -0.1635 -0.0010
  227loPI   C2A 3624   1.658   9.544   8.831 -0.0300 -0.0639  0.0002
  227loPI   C3A 3625   1.712   9.758   8.430 -0.1662  0.0641 -0.0995
  227loPI   C4A 3626   1.660   9.849   8.018 -0.1028  0.0849 -0.1846
  227loPI   C5A 3627   1.479  10.134   7.754 -0.2099 -0.0124 -0.2614
  227loPI   C6A 3628   1.133  10.405   7.805 -0.2825 -0.2660  0.1557
  227loPI   C1B 3629   1.575   8.936   8.944 -0.1623 -0.0512 -0.1265
  227loPI   C2B 3630   1.658   8.767   8.553  0.0764 -0.1801 -0.0918
  227loPI   C3B 3631   1.883   8.806   8.059  0.0343 -0.3273 -0.1111
  227loPI   C4B 3632   1.802   8.907   7.625 -0.0212  0.0060  0.1728
  228loPI    C1 3633  15.473  18.200   9.550 -0.1749 -0.2889 -0.2072
  228loPI    C2 3634  15.481  18.303   9.936 -0.0798 -0.0688 -0.2662
  228loPI    C3 3635  15.226  18.022   9.809 -0.1037 -0.1506 -0.0422
  228loPI   PO4 3636  15.732  18.120   9.474  0.0910  0.0190  0.0834
  228loPI   GL1 3637  15.952  18.145   9.112  0.0671 -0.1459 -0.3315
  228loPI   GL2 3638  16.150  17.977   8.908  0.0931 -0.0282  0.1206
  228loPI   C1A 3639  15.777  18.215   8.668 -0.1748 -0.1016  0.2302
  228loPI   C2A 3640  15.629  18.267   8.245 -0.1151  0.0287 -0.0344
  228loPI   C3A 3641  15.581  18.536   7.830 -0.0262  0.0347  0.0495
  228loPI   C4A 3642  15.763  18.543   7.453 -0.2583 -0.1608 -0.1817
  228loPI   C5A 3643  16.115  18.601   7.160 -0.0741 -0.1253 -0.0754
  228loPI   C6A 3644  16.342  19.063   7.101 -0.0359 -0.1715  0.0678
  228loPI   C1B 3645  16.047  17.843   8.461  0.0641  0.2067  0.1945
  228loPI   C2B 3646  16.349  18.107   8.153 -0.0667  0.3528  0.0033
  228loPI   C3B 3647  16.505  18.030   7.732 -0.3319  0.4299  0.0662
  228loPI   C4B 3648  16.617  18.007   7.328 -0.0443 -0.0815  0.0341
  229loPI    C1 3649   7.340   9.463   9.824  0.2221  0.1125 -0.0346
  229loPI    C2 3650   7.599   9.721   9.988  0.1734  0.0236  0.1850
  229loPI    C3 3651   7.205   9.779  10.029  0.1618 -0.0478  0.1765
  229loPI   PO4 3652   7.418   9.436   9.602 -0.1520  0.0296  0.1067
  229loPI   GL1 3653   7.521   9.226   9.238  0.1960  0.0127  0.1725
  229loPI   GL2 3654   7.506   9.458   8.977 -0.0867  0.0480 -0.0219
  229loPI   C1A 3655   7.211   8.906   8.973 -0.1045 -0.0287 -0.0107
  229loPI   C2A 3656   6.975   8.802   8.614  0.3349  0.2407  0.1171
  229loPI   C3A 3657   6.791   8.804   8.223 -0.0250 -0.0248 -0.2205
  229loPI   C4A 3658   6.809   8.460   7.973 -0.0154 -0.0880 -0.3537
  229loPI   C5A 3659   6.847   8.221   7.683  0.1494 -0.0757 -0.0597
  229loPI   C6A 3660   6.782   7.709   7.568  0.1091 -0.1594 -0.0499
  229loPI   C1B 3661   7.590   9.690   8.626  0.3260 -0.1335  0.0659
  229loPI   C2B 3662   7.544   9.717   8.160 -0.0278 -0.1293 -0.1664
  229loPI   C3B 3663   7.483   9.863   7.758 -0.1331 -0.0410  0.1569
  229loPI   C4B 3664   7.396   9.918   7.319 -0.2076 -0.0385 -0.0107
  230loPI    C1 3665  15.966   8.345   9.801  0.1867 -0.0166  0.3559
  230loPI    C2 3666  16.305   8.541   9.720  0.1192  0.0961  0.3426
  230loPI    C3 3667  16.291   8.142   9.688  0.0976  0.1335 -0.2015
  230loPI   PO4 3668  15.768   8.445   9.612  0.0040 -0.1900  0.1551
  230loPI   GL1 3669  15.947   8.592   9.294 -0.1680  0.0100  0.1539
  230loPI   GL2 3670  16.044   8.280   9.262  0.3715 -0.2956 -0.0627
  230loPI   C1A 3671  15.777   8.665   8.888  0.1001  0.0959 -0.1203
  230loPI   C2A 3672  15.795   8.648   8.502  0.0707  0.2542  0.0394
  230loPI   C3A 3673  15.982   8.578   8.013  0.1447  0.2498  0.1483
  230loPI   C4A 3674  16.070   8.844   7.770  0.1338  0.1454 -0.0548
  230loPI   C5A 3675  15.819   9.225   7.693 -0.1769  0.1203 -0.0069
  230loPI   C6A 3676  15.624   9.228   7.362 -0.0755 -0.1276  0.1023
  230loPI   C1B 3677  15.978   8.139   8.858 -0.2469  0.0708  0.0043
  230loPI   C2B 3678  15.930   8.107   8.459 -0.0759  0.2353 -0.0183
  230loPI   C3B 3679  16.062   8.105   8.077  0.0887  0.0671 -0.0578
  230loPI   C4B 3680  16.044   8.143   7.642 -0.2462 -0.1961  0.1333
  231loPI    C1 3681  10.884  15.391  10.008 -0.0697  0.0232  0.0962
  231loPI    C2 3682  11.086  15.692  10.176 -0.0672  0.0772 -0.0030
  231loPI    C3 3683  11.152  15.316  10.295  0.0228  0.1037  0.0312
  231loPI   PO4 3684  10.885  15.477   9.761 -0.1635 -0.0338 -0.1787
  231loPI   GL1 3685  10.887  15.643   9.350 -0.0342 -0.0961 -0.2459
  231loPI   GL2 3686  11.240  15.627   9.289 -0.1690  0.0587 -0.1795
  231loPI   C1A 3687  10.718  15.565   8.963 -0.0133 -0.0815 -0.3203
  231loPI   C2A 3688  10.319  15.452   8.709  0.4154 -0.0665 -0.1062
  231loPI   C3A 3689  10.016  15.721   8.518 -0.0839  0.0968 -0.2210
  231loPI   C4A 3690  10.019  15.894   8.123  0.0275  0.0953 -0.0193
  231loPI   C5A 3691  10.316  15.731   7.703 -0.2745 -0.1017  0.1200
  231loPI   C6A 3692  10.711  15.505   7.764 -0.2052 -0.2219 -0.4281
  231loPI   C1B 3693  11.246  15.791   8.873  0.2986  0.2931  0.3382
  231loPI   C2B 3694  10.941  15.968   8.623  0.1837  0.1095  0.0372
  231loPI   C3B 3695  10.668  15.795   8.419 -0.0127  0.2991 -0.1643
  231loPI   C4B 3696  10.372  15.531   8.227 -0.2398  0.2103  0.1980
  232loPI    C1 3697  13.875  14.078   9.442 -0.0058 -0.1639  0.1014
  232loPI    C2 3698  13.732  13.748   9.267 -0.1724 -0.0695  0.0576
  232loPI    C3 3699  13.484  14.048   9.361  0.0306  0.1963 -0.2348
  232loPI   PO4 3700  14.023  14.240   9.232  0.0588  0.0394  0.1230
  232loPI   GL1 3701  13.894  14.465   8.971 -0.1287 -0.1221  0.0973
  232loPI   GL2 3702  13.667  14.261   8.960  0.2522  0.0373  0.3282
  232loPI   C1A 3703  14.106  14.631   8.634 -0.2145  0.0126 -0.2916
  232loPI   C2A 3704  14.008  14.818   8.259 -0.1838  0.2478 -0.0608
  232loPI   C3A 3705  14.024  15.164   7.966 -0.1109  0.1531 -0.1988
  232loPI   C4A 3706  14.083  15.419   7.586  0.0527 -0.0142  0.1151
  232loPI   C5A 3707  13.985  15.668   7.204 -0.2078 -0.0479  0.2154
  232loPI   C6A 3708  14.312  15.797   6.879  0.2750  0.0055 -0.2054
  232loPI   C1B 3709  13.619  14.505   8.507  0.2953  0.3156  0.0125
  232loPI   C2B 3710  13.700  14.458   8.067  0.2332  0.1550 -0.1114
  232loPI   C3B 3711  13.931  14.603   7.815 -0.2043  0.0712  0.1357
  232loPI   C4B 3712  14.086  14.575   7.435  0.2762 -0.1480  0.3208
  233loPI    C1 3713   9.139   3.836   9.480 -0.0910  0.1152 -0.0031
  233loPI    C2 3714   9.276   3.900   9.851  0.0108  0.0465 -0.0284
  233loPI    C3 3715   9.289   4.193   9.579 -0.0609  0.0959  0.0211
  233loPI   PO4 3716   9.258   3.629   9.342 -0.0552  0.4597 -0.1564
  233loPI   GL1 3717   9.511   3.668   9.047  0.2713  0.4018  0.1560
  233loPI   GL2 3718   9.289   3.988   8.972 -0.0105  0.3344 -0.1029
  233loPI   C1A 3719   9.372   3.570   8.637  0.3022 -0.0250 -0.1398
  233loPI   C2A 3720   9.491   3.520   8.141  0.3347 -0.1754  0.0157
  233loPI   C3A 3721   9.550   3.465   7.614 -0.1174 -0.0593 -0.0762
  233loPI   C4A 3722   9.854   3.536   7.203 -0.0305  0.3286  0.0359
  233loPI   C5A 3723  10.046   3.713   6.740 -0.0908  0.0692  0.0761
  233loPI   C6A 3724  10.365   3.694   6.430 -0.2404 -0.0271  0.0399
  233loPI   C1B 3725   9.347   4.168   8.622 -0.0056  0.0876  0.3476
  233loPI   C2B 3726   9.552   4.013   8.316 -0.3682 -0.1981 -0.1267
  233loPI   C3B 3727   9.692   3.984   7.915 -0.3542  0.1385 -0.2811
  233loPI   C4B 3728   9.604   3.968   7.547  0.0743 -0.1261 -0.0532
  234loPI    C1 3729   0.865  13.951   9.865  0.1095  0.1766  0.0512
  234loPI    C2 3730   0.993  14.325   9.801  0.1592  0.1409 -0.0607
  234loPI    C3 3731   1.062  14.148  10.153  0.0258  0.2815  0.0374
  234loPI   PO4 3732   0.931  13.804   9.636 -0.1313 -0.0041  0.2784
  234loPI   GL1 3733   1.354  13.586   9.495  0.1043  0.1599  0.1476
  234loPI   GL2 3734   1.062  13.497   9.207 -0.1792  0.1114 -0.3223
  234loPI   C1A 3735   1.630  13.351   9.059  0.0771  0.1082  0.2395
  234loPI   C2A 3736   1.624  13.020   8.786  0.1191 -0.0781  0.0061
  234loPI   C3A 3737   1.465  13.157   8.376  0.0839 -0.0590 -0.0485
  234loPI   C4A 3738   1.514  13.099   7.947  0.0813  0.1331  0.0339
  234loPI   C5A 3739   1.394  12.967   7.524 -0.1390  0.2099  0.0971
  234loPI   C6A 3740   1.408  12.705   7.173  0.0564  0.3193 -0.0020
  234loPI   C1B 3741   1.171  13.425   8.866 -0.0137 -0.2044  0.1713
  234loPI   C2B 3742   1.047  13.424   8.439 -0.3712 -0.0577  0.0228
  234loPI   C3B 3743   1.047  13.775   8.114 -0.5303  0.3281  0.0656
  234loPI   C4B 3744   0.998  13.837   7.734  0.1826  0.0847  0.0766
  235loPI    C1 3745  11.103   4.736   9.802 -0.1478  0.2427 -0.0487
  235loPI    C2 3746  11.427   4.508   9.856 -0.1321  0.1776 -0.3915
  235loPI    C3 3747  11.333   4.789  10.125  0.0607  0.0231 -0.1578
  235loPI   PO4 3748  11.132   4.781   9.544 -0.1768  0.1547  0.1510
  235loPI   GL1 3749  11.074   4.706   9.175 -0.0235 -0.2821 -0.0566
  235loPI   GL2 3750  11.366   4.888   9.133 -0.1383  0.1288  0.0323
  235loPI   C1A 3751  11.051   4.920   8.709 -0.0213 -0.1654  0.1498
  235loPI   C2A 3752  10.909   4.994   8.302  0.1258  0.1452  0.0383
  235loPI   C3A 3753  11.022   4.918   7.916 -0.1264 -0.1071 -0.1694
  235loPI   C4A 3754  11.034   4.695   7.517  0.1349 -0.2954 -0.0449
  235loPI   C5A 3755  11.128   4.311   7.395  0.1691  0.0339 -0.1017
  235loPI   C6A 3756  11.310   4.159   6.988 -0.0370 -0.0437 -0.1070
  235loPI   C1B 3757  11.546   4.887   8.753 -0.0344  0.1579 -0.2111
  235loPI   C2B 3758  11.415   4.848   8.276 -0.2424 -0.1084  0.3161
  235loPI   C3B 3759  11.534   4.640   7.983 -0.1945 -0.1060  0.3534
  235loPI   C4B 3760  11.445   4.368   7.797 -0.4468  0.1321 -0.0909
  236loPI    C1 3761   7.082  14.814   9.753  0.2266 -0.0888  0.0340
  236loPI    C2 3762   6.788  14.573   9.628  0.2736 -0.0633 -0.1296
  236loPI    C3 3763   7.016  14.467   9.939 -0.0386  0.0109  0.1309
  236loPI   PO4 3764   7.155  14.897   9.567  0.2076  0.2915 -0.1614
  236loPI   GL1 3765   7.289  14.806   9.171  0.1231  0.1328 -0.1816
  236loPI   GL2 3766   7.169  14.551   9.190  0.0693  0.2320  0.2531
  236loPI   C1A 3767   7.543  14.766   8.791  0.0293 -0.0011 -0.0365
  236loPI   C2A 3768   7.473  14.933   8.423 -0.0009  0.3087  0.0903
  236loPI   C3A 3769   7.397  14.782   7.987  0.0515  0.4485  0.0890
  236loPI   C4A 3770   7.484  14.393   7.781  0.1623 -0.2932 -0.0211
  236loPI   C5A 3771   7.491  14.131   7.490 -0.0647  0.1061  0.0493
  236loPI   C6A 3772   7.560  13.658   7.454  0.1002 -0.2722  0.3221
  236loPI   C1B 3773   7.235  14.335   8.828  0.0747 -0.1130  0.2076
  236loPI   C2B 3774   7.407  14.354   8.504 -0.2793 -0.4767  0.2390
  236loPI   C3B 3775   7.755  14.479   8.264  0.1749  0.1588  0.1657
  236loPI   C4B 3776   8.024  14.523   7.891  0.0931  0.1754  0.0316
  237loPI    C1 3777  12.714  16.252   9.710 -0.1151  0.0676  0.0624
  237loPI    C2 3778  13.065  16.123   9.570 -0.1109  0.1259  0.0188
  237loPI    C3 3779  12.931  15.993   9.924 -0.0578  0.0833  0.0234
  237loPI   PO4 3780  12.529  16.235   9.479  0.1354 -0.0604  0.1592
  237loPI   GL1 3781  12.238  16.470   9.197  0.0802 -0.0420  0.0965
  237loPI   GL2 3782  12.196  16.185   8.976 -0.0668 -0.0266 -0.1500
  237loPI   C1A 3783  12.491  16.453   8.760  0.0057  0.0217  0.1726
  237loPI   C2A 3784  12.519  16.440   8.316 -0.0719 -0.0002  0.1901
  237loPI   C3A 3785  12.439  16.379   7.916  0.0787  0.0648 -0.2799
  237loPI   C4A 3786  12.429  16.235   7.435 -0.0903  0.0918 -0.0175
  237loPI   C5A 3787  12.283  15.951   7.131 -0.0794 -0.0874  0.1125
  237loPI   C6A 3788  12.298  15.428   7.139 -0.3958 -0.5770 -0.0715
  237loPI   C1B 3789  12.264  16.004   8.580 -0.0292  0.0029 -0.0222
  237loPI   C2B 3790  12.386  15.929   8.182 -0.1125 -0.1334 -0.2402
  237loPI   C3B 3791  12.711  15.932   7.781  0.0080  0.2453 -0.0981
  237loPI   C4B 3792  12.833  15.819   7.298 -0.0590 -0.0360 -0.1051
  238loPI    C1 3793   4.865   2.573   9.666 -0.2039  0.1368  0.0701
  238loPI    C2 3794   4.728   2.726  10.009 -0.1084 -0.0909  0.2125
  238loPI    C3 3795   4.840   2.343   9.992 -0.2098 -0.1092 -0.1013
  238loPI   PO4 3796   4.764   2.650   9.453 -0.1179  0.0440  0.1835
  238loPI   GL1 3797   4.598   2.905   9.021  0.0367 -0.2542  0.1323
  238loPI   GL2 3798   4.732   2.658   8.938  0.1246  0.3218  0.0701
  238loPI   C1A 3799   4.566   3.071   8.589 -0.0368  0.2324 -0.1375
  238loPI   C2A 3800   4.444   3.046   8.192 -0.0542 -0.0309 -0.0544
  238loPI   C3A 3801   4.222   3.187   7.879  0.0509  0.4000  0.0219
  238loPI   C4A 3802   4.358   3.320   7.437  0.1742 -0.0673 -0.1375
  238loPI   C5A 3803   4.309   3.574   7.133 -0.0380 -0.3839 -0.3397
  238loPI   C6A 3804   4.044   3.589   6.730  0.1196  0.0913 -0.2388
  238loPI   C1B 3805   4.696   2.597   8.485 -0.4186 -0.2218  0.0911
  238loPI   C2B 3806   4.947   2.426   8.135 -0.3092 -0.2622  0.0002
  238loPI   C3B 3807   5.197   2.332   7.752 -0.1159 -0.1061 -0.1023
  238loPI   C4B 3808   5.377   2.347   7.308 -0.1431  0.1314  0.1146
  239loPI    C1 3809  10.044  17.454   9.806 -0.0664 -0.0377  0.0841
  239loPI    C2 3810   9.864  17.108   9.894 -0.0772 -0.1267 -0.2715
  239loPI    C3 3811  10.263  17.126   9.871 -0.0531 -0.0173  0.1433
  239loPI   PO4 3812  10.067  17.681   9.578 -0.1520 -0.1793 -0.0148
  239loPI   GL1 3813   9.985  17.718   9.183  0.2986 -0.0476 -0.4155
  239loPI   GL2 3814  10.040  18.005   9.111 -0.1788 -0.2047 -0.2955
  239loPI   C1A 3815   9.943  17.660   8.756  0.2098 -0.2682  0.1819
  239loPI   C2A 3816  10.065  17.697   8.383  0.0223  0.2541 -0.2426
  239loPI   C3A 3817  10.326  17.542   8.009  0.1395 -0.0189  0.1852
  239loPI   C4A 3818  10.572  17.430   7.631  0.0414 -0.0474 -0.1093
  239loPI   C5A 3819  11.001  17.427   7.316  0.2744 -0.0220  0.1256
  239loPI   C6A 3820  11.237  17.531   6.984 -0.1720  0.0875 -0.2074
  239loPI   C1B 3821  10.007  18.207   8.691 -0.2969  0.0668 -0.2648
  239loPI   C2B 3822   9.909  18.495   8.420  0.1491  0.3845  0.4048
  239loPI   C3B 3823   9.929  18.435   7.849  0.1294 -0.2467 -0.2071
  239loPI   C4B 3824  10.140  18.269   7.416 -0.2254 -0.0369  0.1441
  240loPI    C1 3825   8.230   7.928  10.068 -0.0773 -0.0021  0.1642
  240loPI    C2 3826   8.267   8.320  10.138  0.0832  0.0033  0.0534
  240loPI    C3 3827   8.427   8.055  10.392  0.0840  0.0117  0.0617
  240loPI   PO4 3828   8.322   7.898   9.858 -0.1598 -0.0821  0.3162
  240loPI   GL1 3829   8.317   7.876   9.482 -0.3018 -0.0024 -0.3736
  240loPI   GL2 3830   8.145   7.849   9.287  0.2297  0.1965 -0.0822
  240loPI   C1A 3831   8.605   7.891   9.113  0.1363 -0.0944 -0.0991
  240loPI   C2A 3832   8.805   7.871   8.788  0.0207  0.0028  0.1996
  240loPI   C3A 3833   8.771   8.055   8.349 -0.1740 -0.0872  0.1241
  240loPI   C4A 3834   8.700   8.155   7.965 -0.0713  0.2648 -0.1230
  240loPI   C5A 3835   8.603   7.852   7.653 -0.0803  0.1235  0.2936
  240loPI   C6A 3836   8.424   7.515   7.417 -0.1543  0.0658 -0.1278
  240loPI   C1B 3837   8.304   8.307   9.248  0.0203 -0.1181 -0.1603
  240loPI   C2B 3838   8.394   8.698   8.972 -0.0458 -0.3513  0.0479
  240loPI   C3B 3839   8.543   8.684   8.613  0.1014  0.0229  0.1251
  240loPI   C4B 3840   8.747   8.569   8.266 -0.0877  0.3063  0.0516
  241loPI    C1 3841  15.658   9.865   9.879 -0.1946  0.1235 -0.0241
  241loPI    C2 3842  15.420  10.184   9.840  0.0471  0.2914 -0.1548
  241loPI    C3 3843  15.745  10.205  10.072 -0.2644 -0.0558  0.3324
  241loPI   PO4 3844  15.756   9.740   9.621  0.0663  0.3609  0.0637
  241loPI   GL1 3845  15.776   9.654   9.124 -0.3119  0.0952 -0.1109
  241loPI   GL2 3846  15.522  10.006   9.191 -0.3982 -0.1762 -0.2063
  241loPI   C1A 3847  15.893   9.480   8.734  0.3961 -0.0312  0.2974
  241loPI   C2A 3848  16.075   9.464   8.330  0.0517 -0.2318  0.0667
  241loPI   C3A 3849  16.095   9.469   7.961 -0.0920 -0.0638  0.0787
  241loPI   C4A 3850  16.025   9.648   7.512 -0.1768  0.1939  0.0571
  241loPI   C5A 3851  15.824   9.663   7.220 -0.0556  0.0385  0.0056
  241loPI   C6A 3852  15.606   9.343   6.885 -0.2296  0.0198  0.0824
  241loPI   C1B 3853  15.248   9.907   8.851  0.0257  0.1314  0.2549
  241loPI   C2B 3854  15.273  10.131   8.478  0.1177 -0.2099  0.0630
  241loPI   C3B 3855  15.220  10.342   8.115  0.0953  0.0470  0.0669
  241loPI   C4B 3856  14.800  10.442   7.758 -0.4737  0.0833  0.2852
  242loPI    C1 3857   7.799   6.976   9.633  0.1732  0.2963  0.1573
  242loPI    C2 3858   7.580   7.232   9.848  0.0049  0.1735  0.1335
  242loPI    C3 3859   7.711   6.892  10.014 -0.2585  0.0033 -0.0001
  242loPI   PO4 3860   7.984   7.144   9.461 -0.0258  0.0723  0.0749
  242loPI   GL1 3861   7.969   7.090   9.040  0.0715  0.2502 -0.0512
  242loPI   GL2 3862   7.840   7.318   8.987  0.4373  0.0453  0.0979
  242loPI   C1A 3863   7.956   7.149   8.516 -0.1658  0.2222 -0.2816
  242loPI   C2A 3864   7.989   7.422   8.198 -0.1702 -0.1671 -0.1090
  242loPI   C3A 3865   7.738   7.662   7.931 -0.1700 -0.1890 -0.1810
  242loPI   C4A 3866   7.812   8.037   7.819 -0.0940  0.2276  0.2120
  242loPI   C5A 3867   8.197   8.268   7.778 -0.3837  0.0637 -0.2175
  242loPI   C6A 3868   8.567   8.503   7.619 -0.3390  0.0869 -0.1752
  242loPI   C1B 3869   8.123   7.625   8.791  0.1236  0.1927 -0.0673
  242loPI   C2B 3870   8.457   7.648   8.493  0.1554 -0.0630 -0.0598
  242loPI   C3B 3871   8.608   7.571   8.077 -0.1481 -0.1509  0.2699
  242loPI   C4B 3872   8.856   7.430   7.711  0.1527 -0.0622  0.0793
  243loPI    C1 3873   7.794  14.460   9.881 -0.0138  0.0061 -0.1823
  243loPI    C2 3874   7.429  14.404   9.728 -0.0469 -0.1088 -0.0639
  243loPI    C3 3875   7.529  14.758   9.885 -0.1152 -0.0845 -0.0749
  243loPI   PO4 3876   7.915  14.323   9.620  0.1790  0.0304 -0.0457
  243loPI   GL1 3877   8.194  14.334   9.398  0.2049 -0.1148  0.1823
  243loPI   GL2 3878   8.342  14.342   9.221  0.0418 -0.1445 -0.0305
  243loPI   C1A 3879   8.000  14.652   9.022 -0.1427  0.0183  0.0148
  243loPI   C2A 3880   8.054  14.792   8.584  0.0171 -0.1200 -0.0538
  243loPI   C3A 3881   7.936  14.980   8.179  0.0179  0.2542 -0.0920
  243loPI   C4A 3882   8.183  15.128   7.847  0.0677 -0.0792 -0.2205
  243loPI   C5A 3883   8.301  15.404   7.595  0.2240  0.0278 -0.0078
  243loPI   C6A 3884   8.533  15.502   7.202  0.1587  0.6552  0.0613
  243loPI   C1B 3885   8.714  14.290   8.875 -0.1947  0.0735 -0.0158
  243loPI   C2B 3886   9.129  14.242   8.797 -0.0205  0.0896  0.1018
  243loPI   C3B 3887   9.393  13.936   8.588 -0.1591 -0.4942  0.0329
  243loPI   C4B 3888   9.472  13.559   8.302 -0.0636 -0.2374 -0.2133
  244loPI    C1 3889  17.690   7.885   9.715 -0.0763 -0.0601  0.1931
  244loPI    C2 3890  17.755   7.490   9.729  0.2467 -0.0224 -0.0965
  244loPI    C3 3891  17.845   7.720  10.044 -0.0238 -0.1878  0.1052
  244loPI   PO4 3892  17.847   8.045   9.625 -0.0648 -0.2758 -0.0971
  244loPI   GL1 3893  17.943   8.165   9.245 -0.1728 -0.1282 -0.0438
  244loPI   GL2 3894  17.593   8.128   9.143  0.3743  0.0127 -0.2869
  244loPI   C1A 3895  17.935   8.515   9.058  0.0071 -0.2953  0.1262
  244loPI   C2A 3896  17.735   8.476   8.762  0.1438  0.1955  0.2781
  244loPI   C3A 3897  17.745   8.739   8.298  0.1105 -0.3418 -0.3992
  244loPI   C4A 3898  17.892   9.062   8.043 -0.2315 -0.1694 -0.1244
  244loPI   C5A 3899  17.950   9.242   7.730 -0.1149  0.2395 -0.0018
  244loPI   C6A 3900  17.981   9.569   7.426 -0.3258 -0.1137 -0.2094
  244loPI   C1B 3901  17.475   7.925   8.838  0.1139 -0.0595  0.2671
  244loPI   C2B 3902  17.496   7.796   8.425 -0.0764  0.2166 -0.1588
  244loPI   C3B 3903  17.646   7.561   8.055  0.1046  0.0467  0.1389
  244loPI   C4B 3904  17.955   7.287   7.784 -0.4297 -0.0536 -0.3096
  245loPI    C1 3905  11.402   6.637   9.830 -0.0341 -0.0409 -0.0379
  245loPI    C2 3906  11.164   6.567  10.144  0.2322  0.0616  0.1912
  245loPI    C3 3907  11.547   6.668  10.202  0.3325 -0.0952 -0.1724
  245loPI   PO4 3908  11.317   6.873   9.623  0.5027 -0.1068 -0.1258
  245loPI   GL1 3909  11.258   7.023   9.286  0.0800 -0.1964  0.1536
  245loPI   GL2 3910  11.465   6.955   9.001 -0.0876  0.1265 -0.2171
  245loPI   C1A 3911  10.880   7.222   9.161 -0.1676 -0.0057  0.0047
  245loPI   C2A 3912  10.584   7.237   8.849  0.0624 -0.1909  0.1596
  245loPI   C3A 3913  10.494   7.252   8.392 -0.1094 -0.6482  0.0634
  245loPI   C4A 3914  10.325   7.357   7.843  0.0879 -0.0600 -0.0222
  245loPI   C5A 3915   9.974   7.436   7.645 -0.1867  0.1622 -0.2162
  245loPI   C6A 3916   9.756   7.807   7.606 -0.2308  0.1963 -0.0979
  245loPI   C1B 3917  11.445   7.245   8.686  0.6034 -0.1336 -0.1678
  245loPI   C2B 3918  11.418   7.192   8.190 -0.1259 -0.1173 -0.1288
  245loPI   C3B 3919  11.241   6.975   7.832  0.1697 -0.2205  0.2527
  245loPI   C4B 3920  11.187   6.984   7.464  0.0209 -0.1807 -0.0192
  246loPI    C1 3921  18.837  14.486   9.491  0.1153  0.0127 -0.0314
  246loPI    C2 3922  18.862  14.170   9.734 -0.1877 -0.0203 -0.0403
  246loPI    C3 3923  18.506  14.333   9.653 -0.0419  0.2759 -0.0981
  246loPI   PO4 3924  18.934  14.459   9.305 -0.0279  0.4690 -0.0032
  246loPI   GL1 3925  19.168  14.573   8.909  0.1756 -0.1487 -0.1082
  246loPI   GL2 3926  19.346  14.911   8.894  0.1386  0.1565 -0.0846
  246loPI   C1A 3927  19.401  14.379   8.622 -0.2157 -0.2319  0.1843
  246loPI   C2A 3928  19.445  14.117   8.294 -0.1649  0.0224 -0.2787
  246loPI   C3A 3929  19.596  13.865   7.908  0.1073 -0.6407 -0.3071
  246loPI   C4A 3930  19.634  13.669   7.482  0.0216 -0.0604  0.0677
  246loPI   C5A 3931  19.436  13.454   7.218  0.1049  0.1605 -0.2842
  246loPI   C6A 3932  19.230  13.103   6.956 -0.1306  0.2310 -0.1209
  246loPI   C1B 3933  19.382  14.810   8.465  0.0317  0.1910  0.0479
  246loPI   C2B 3934  19.282  14.553   8.129  0.1395 -0.2847 -0.0724
  246loPI   C3B 3935  19.272  14.533   7.743 -0.1010  0.0055  0.2447
  246loPI   C4B 3936  19.353  14.717   7.348 -0.1374  0.3159 -0.2043
  247loPI    C1 3937   5.592   4.683   9.683 -0.1194  0.2582 -0.0679
  247loPI    C2 3938   5.585   4.887   9.339  0.0902  0.0957 -0.1714
  247loPI    C3 3939   5.297   4.621   9.420 -0.0676  0.2768 -0.1308
  247loPI   PO4 3940   5.904   4.586   9.685  0.2828  0.0805 -0.0483
  247loPI   GL1 3941   6.184   4.564   9.455  0.1339  0.1556 -0.2760
  247loPI   GL2 3942   6.263   4.262   9.349 -0.0734  0.0958 -0.1834
  247loPI   C1A 3943   6.124   4.812   9.032  0.0318  0.2628  0.0628
  247loPI   C2A 3944   6.126   4.791   8.631  0.0916  0.1883 -0.3904
  247loPI   C3A 3945   6.179   4.647   8.193  0.3346  0.0790  0.0319
  247loPI   C4A 3946   6.218   4.480   7.772  0.0822 -0.1695 -0.2355
  247loPI   C5A 3947   6.200   4.620   7.312 -0.1665  0.3704  0.2157
  247loPI   C6A 3948   5.864   4.632   6.958  0.3605 -0.1924 -0.3281
  247loPI   C1B 3949   6.239   4.282   8.893  0.1444 -0.2362  0.4003
  247loPI   C2B 3950   5.885   4.218   8.718  0.1699 -0.3106 -0.2275
  247loPI   C3B 3951   5.590   4.527   8.464  0.0968  0.3445 -0.2222
  247loPI   C4B 3952   5.585   4.896   8.243 -0.1654 -0.0205  0.0295
  248loPI    C1 3953   9.069  18.935   9.794 -0.0387 -0.1687  0.0466
  248loPI    C2 3954   8.799  18.964  10.087 -0.0214 -0.1417  0.0598
  248loPI    C3 3955   9.180  19.065  10.155 -0.0579  0.0607 -0.0286
  248loPI   PO4 3956   8.842  18.815   9.602  0.1773  0.3267 -0.0975
  248loPI   GL1 3957   8.856  18.539   9.163 -0.3646 -0.0197  0.1246
  248loPI   GL2 3958   9.069  18.620   8.902  0.0140 -0.3648  0.0385
  248loPI   C1A 3959   8.510  18.568   8.804 -0.0916  0.3401  0.1218
  248loPI   C2A 3960   8.144  18.409   8.633  0.1112  0.6238 -0.0002
  248loPI   C3A 3961   7.798  18.494   8.463  0.2717 -0.0781 -0.0137
  248loPI   C4A 3962   7.546  18.558   8.046  0.1640  0.1670  0.2718
  248loPI   C5A 3963   7.489  18.424   7.594 -0.0308 -0.3789 -0.0299
  248loPI   C6A 3964   7.231  18.100   7.347  0.0416  0.0676 -0.1772
  248loPI   C1B 3965   8.807  18.668   8.403  0.0218 -0.0566  0.2865
  248loPI   C2B 3966   8.472  18.518   8.215 -0.0412 -0.0497  0.1118
  248loPI   C3B 3967   8.158  18.371   7.917 -0.0727  0.1867  0.0010
  248loPI   C4B 3968   7.906  18.666   7.644  0.1138 -0.1894  0.1943
  249loPI    C1 3969   5.626   1.881   9.563  0.0457  0.1052 -0.0289
  249loPI    C2 3970   5.571   1.708   9.919  0.0515  0.0173 -0.0703
  249loPI    C3 3971   5.758   2.061   9.895 -0.0523  0.0799  0.0242
  249loPI   PO4 3972   5.688   1.689   9.422 -0.3081  0.1603  0.4897
  249loPI   GL1 3973   5.663   1.484   9.082 -0.0918  0.0817  0.0514
  249loPI   GL2 3974   5.313   1.400   9.121  0.1151  0.1716 -0.0465
  249loPI   C1A 3975   5.617   1.417   8.614  0.0150 -0.0363 -0.0139
  249loPI   C2A 3976   5.641   1.525   8.195  0.3111  0.1078 -0.0814
  249loPI   C3A 3977   5.787   1.478   7.710 -0.1595 -0.2602 -0.0286
  249loPI   C4A 3978   6.043   1.600   7.339 -0.0342 -0.0355  0.2241
  249loPI   C5A 3979   6.486   1.713   6.994 -0.0664  0.1651  0.1569
  249loPI   C6A 3980   6.864   1.794   7.006 -0.1706 -0.3092 -0.0624
  249loPI   C1B 3981   5.175   1.658   8.696  0.4453 -0.3470  0.0674
  249loPI   C2B 3982   5.067   1.499   8.262 -0.1095  0.1500 -0.0155
  249loPI   C3B 3983   5.297   1.448   7.862  0.1056 -0.2517 -0.2708
  249loPI   C4B 3984   5.280   1.456   7.475 -0.0471 -0.2377  0.3072
  250loPI    C1 3985  16.361  11.362   9.817 -0.2600  0.0160 -0.0375
  250loPI    C2 3986  16.455  11.022  10.005  0.1461 -0.0546 -0.3532
  250loPI    C3 3987  16.714  11.327  10.001 -0.1363  0.1923 -0.2367
  250loPI   PO4 3988  16.316  11.324   9.565  0.0461 -0.0359 -0.1231
  250loPI   GL1 3989  16.287  11.321   9.219 -0.1118 -0.2697 -0.1061
  250loPI   GL2 3990  16.444  11.016   9.102  0.0056 -0.2018  0.0441
  250loPI   C1A 3991  16.197  11.364   8.800 -0.3358 -0.4169 -0.2676
  250loPI   C2A 3992  16.172  11.303   8.360  0.1131  0.1916  0.2974
  250loPI   C3A 3993  15.783  11.559   8.112  0.2699  0.1378 -0.3122
  250loPI   C4A 3994  15.756  11.556   7.618  0.2932 -0.0804  0.0088
  250loPI   C5A 3995  15.617  11.620   7.171 -0.0758  0.2379 -0.1846
  250loPI   C6A 3996  15.862  11.779   6.789 -0.1532 -0.3259 -0.1003
  250loPI   C1B 3997  16.492  10.948   8.708 -0.1355  0.3003  0.1344
  250loPI   C2B 3998  16.453  10.871   8.306 -0.0637  0.4283  0.0283
  250loPI   C3B 3999  16.421  11.022   7.890  0.1791  0.0897  0.1139
  250loPI   C4B 4000  16.207  11.324   7.708 -0.2267 -0.0422 -0.1032
  251loPI    C1 4001  13.478   0.951   9.809  0.0675  0.1733  0.0276
  251loPI    C2 4002  13.671   0.835   9.478 -0.0540  0.0163  0.0106
  251loPI    C3 4003  13.829   0.763   9.839 -0.0707 -0.0938 -0.0039
  251loPI   PO4 4004  13.217   1.013   9.546  0.0515  0.2806  0.0908
  251loPI   GL1 4005  13.211   0.851   9.253  0.0831 -0.1519 -0.0179
  251loPI   GL2 4006  12.869   0.705   9.057  0.2159  0.0004  0.1524
  251loPI   C1A 4007  13.305   0.605   8.789  0.1960  0.0558  0.0161
  251loPI   C2A 4008  13.644   0.538   8.492  0.0805  0.0074 -0.0026
  251loPI   C3A 4009  14.018   0.665   8.268 -0.0367  0.2661  0.1437
  251loPI   C4A 4010  14.271   0.525   7.917  0.1089  0.0725  0.0654
  251loPI   C5A 4011  14.217   0.509   7.464  0.2163  0.3364  0.0989
  251loPI   C6A 4012  14.198   0.697   7.068 -0.0648  0.0771 -0.1899
  251loPI   C1B 4013  12.686   0.410   8.631  0.3893 -0.3225  0.1130
  251loPI   C2B 4014  12.685   0.013   8.289  0.1999 -0.1756 -0.2392
  251loPI   C3B 4015  12.934   0.027   7.963  0.2254 -0.2112 -0.1321
  251loPI   C4B 4016  12.934  -0.040   7.563  0.3760 -0.0300 -0.1992
  252loPI    C1 4017  12.430  10.254   9.684 -0.2812  0.0142  0.1247
  252loPI    C2 4018  12.677  10.334   9.988 -0.2221  0.2326  0.0210
  252loPI    C3 4019  12.284  10.300  10.054 -0.1654 -0.1463  0.1915
  252loPI   PO4 4020  12.599  10.441   9.538  0.0398 -0.0704  0.2765
  252loPI   GL1 4021  12.473  10.465   9.112 -0.0918  0.1532  0.1026
  252loPI   GL2 4022  12.643  10.657   9.062 -0.2522 -0.4959 -0.0986
  252loPI   C1A 4023  12.361  10.449   8.681  0.0367 -0.5569  0.1154
  252loPI   C2A 4024  12.569  10.708   8.363 -0.0910  0.4034  0.0045
  252loPI   C3A 4025  12.505  10.918   8.025  0.4258 -0.0312 -0.3847
  252loPI   C4A 4026  12.495  10.699   7.612  0.1928 -0.1433 -0.3315
  252loPI   C5A 4027  12.495  10.788   7.147 -0.1745 -0.0610 -0.0138
  252loPI   C6A 4028  12.557  11.004   6.834 -0.2409  0.2318  0.1009
  252loPI   C1B 4029  12.907  10.714   8.780  0.3043  0.1522  0.0295
  252loPI   C2B 4030  13.076  10.924   8.461  0.1409 -0.1994 -0.1583
  252loPI   C3B 4031  12.997  10.989   7.940 -0.2635  0.1315 -0.1795
  252loPI   C4B 4032  12.845  11.005   7.503 -0.1370  0.1141  0.0348
  253loPI    C1 4033  15.497  15.092   9.695 -0.0412 -0.2632 -0.0659
  253loPI    C2 4034  15.286  14.831   9.912 -0.1613  0.0433  0.1944
  253loPI    C3 4035  15.353  15.200  10.052  0.0027  0.1565 -0.1690
  253loPI   PO4 4036  15.433  15.185   9.342 -0.0372 -0.2254  0.1085
  253loPI   GL1 4037  15.428  15.217   8.948  0.0959  0.2498 -0.4090
  253loPI   GL2 4038  15.675  15.339   8.861  0.4355  0.3159 -0.0145
  253loPI   C1A 4039  15.413  14.950   8.540  0.1671  0.0861  0.1532
  253loPI   C2A 4040  15.609  14.981   8.074  0.1280 -0.0768 -0.1727
  253loPI   C3A 4041  15.663  15.351   7.830 -0.3046  0.4460  0.0845
  253loPI   C4A 4042  15.575  15.551   7.446  0.1015  0.1016 -0.1045
  253loPI   C5A 4043  15.708  15.708   7.072  0.1131  0.2320  0.2186
  253loPI   C6A 4044  16.188  15.893   7.093  0.1030 -0.1670 -0.0026
  253loPI   C1B 4045  15.715  15.367   8.382 -0.0097 -0.1295 -0.1365
  253loPI   C2B 4046  15.505  15.694   8.110 -0.3854  0.3913 -0.0791
  253loPI   C3B 4047  15.259  15.789   7.754  0.2161  0.2179  0.0777
  253loPI   C4B 4048  15.058  15.850   7.357 -0.1898 -0.0088  0.2566
  254loPI    C1 4049  13.532   5.146   9.644 -0.0245  0.0948 -0.0073
  254loPI    C2 4050  13.357   5.052   9.991 -0.2522  0.1641 -0.1015
  254loPI    C3 4051  13.736   5.179   9.987 -0.1833 -0.0273  0.1007
  254loPI   PO4 4052  13.318   5.345   9.512  0.0228 -0.0755 -0.2406
  254loPI   GL1 4053  13.143   5.347   9.035 -0.2044 -0.2585  0.0689
  254loPI   GL2 4054  12.936   5.118   9.169 -0.0327  0.1021 -0.0374
  254loPI   C1A 4055  13.230   5.315   8.595 -0.1290 -0.0150  0.0413
  254loPI   C2A 4056  13.256   5.596   8.290 -0.0098  0.2277  0.1079
  254loPI   C3A 4057  13.473   5.780   7.962 -0.0411  0.2976  0.0451
  254loPI   C4A 4058  13.801   5.945   7.835  0.0745  0.1439 -0.2865
  254loPI   C5A 4059  14.095   5.781   7.664  0.0142 -0.1226 -0.2583
  254loPI   C6A 4060  14.229   5.660   7.225 -0.1541  0.1643 -0.2926
  254loPI   C1B 4061  12.972   4.738   8.846 -0.1636 -0.1805  0.1884
  254loPI   C2B 4062  12.980   4.769   8.360  0.0506  0.2837  0.0732
  254loPI   C3B 4063  13.174   4.503   8.186 -0.1331  0.0397  0.0928
  254loPI   C4B 4064  13.072   4.070   7.973 -0.0232  0.0806  0.0103
  255loPI    C1 4065  15.077   6.089   9.609 -0.1857  0.1658  0.1270
  255loPI    C2 4066  15.461   5.993   9.666 -0.2090 -0.0403 -0.0515
  255loPI    C3 4067  15.188   5.902   9.945 -0.1421  0.0302  0.0377
  255loPI   PO4 4068  14.989   6.060   9.455 -0.0291  0.0798  0.2229
  255loPI   GL1 4069  14.882   6.356   9.178  0.3272  0.0682  0.0959
  255loPI   GL2 4070  14.957   6.664   9.140  0.0723 -0.1536 -0.1537
  255loPI   C1A 4071  14.663   6.372   8.718  0.0807  0.1965 -0.3831
  255loPI   C2A 4072  14.680   6.518   8.196 -0.0394  0.2843 -0.0530
  255loPI   C3A 4073  14.911   6.562   7.939  0.3378  0.1191 -0.3715
  255loPI   C4A 4074  15.328   6.720   7.774  0.1197  0.5855 -0.3542
  255loPI   C5A 4075  15.718   6.775   7.719 -0.0811 -0.1222 -0.0601
  255loPI   C6A 4076  15.943   6.625   7.351  0.1275 -0.2288 -0.2553
  255loPI   C1B 4077  15.047   6.737   8.755  0.2308  0.1947 -0.2203
  255loPI   C2B 4078  15.134   6.762   8.347  0.0667 -0.1095 -0.1514
  255loPI   C3B 4079  15.215   7.034   8.118 -0.1855  0.2288 -0.1549
  255loPI   C4B 4080  14.911   7.196   7.711  0.0273 -0.2297  0.0878
  256loPI    C1 4081  11.082   0.683   9.364  0.1288  0.1031  0.2888
  256loPI    C2 4082  11.059   1.054   9.513 -0.0704  0.0487  0.3964
  256loPI    C3 4083  11.288   0.981   9.193 -0.1509  0.2951  0.2806
  256loPI   PO4 4084  10.868   0.605   9.325  0.0964 -0.1340  0.0759
  256loPI   GL1 4085  10.737   0.521   8.893  0.0182 -0.1049  0.1109
  256loPI   GL2 4086  11.057   0.421   8.821 -0.4534  0.1263 -0.1035
  256loPI   C1A 4087  10.450   0.600   8.537  0.3911 -0.1395 -0.0613
  256loPI   C2A 4088  10.534   0.840   8.185  0.1542  0.1542 -0.3609
  256loPI   C3A 4089  10.543   1.013   7.764 -0.1733  0.1496 -0.2169
  256loPI   C4A 4090  10.931   1.002   7.492 -0.0165  0.2555  0.0136
  256loPI   C5A 4091  11.084   1.065   7.107  0.1905  0.0263  0.2134
  256loPI   C6A 4092  11.357   0.782   6.888  0.0217  0.1668 -0.0663
  256loPI   C1B 4093  11.255  -0.025   8.715  0.1407 -0.1417  0.0833
  256loPI   C2B 4094  11.611  -0.240   8.567  0.3833  0.1470 -0.3288
  256loPI   C3B 4095  11.554  -0.550   8.187 -0.1830  0.3453  0.1893
  256loPI   C4B 4096  11.767  -0.475   7.848  0.2096 -0.0713 -0.1279
  257loPI    C1 4097  12.267   2.038   9.526 -0.0985  0.0415 -0.0932
  257loPI    C2 4098  12.131   1.727   9.738  0.3789 -0.1453 -0.0481
  257loPI    C3 4099  12.033   2.100   9.845  0.1827 -0.2590  0.1795
  257loPI   PO4 4100  12.185   1.925   9.255 -0.0797  0.0076  0.0335
  257loPI   GL1 4101  12.237   1.839   8.847 -0.2189 -0.0340  0.1062
  257loPI   GL2 4102  12.515   2.033   8.764 -0.0868  0.3268  0.0186
  257loPI   C1A 4103  11.963   1.996   8.590 -0.0734  0.0624  0.1904
  257loPI   C2A 4104  11.940   1.984   8.216 -0.2229  0.0889 -0.1148
  257loPI   C3A 4105  11.823   1.961   7.810 -0.2765 -0.0984 -0.2116
  257loPI   C4A 4106  11.723   1.621   7.493 -0.1987  0.1347  0.2257
  257loPI   C5A 4107  11.869   1.346   7.115 -0.2215 -0.1660  0.3032
  257loPI   C6A 4108  11.779   1.060   6.892  0.2799  0.1394 -0.1166
  257loPI   C1B 4109  12.617   1.844   8.351 -0.0937  0.0154  0.1037
  257loPI   C2B 4110  12.534   1.632   7.946 -0.1220 -0.1334  0.0816
  257loPI   C3B 4111  12.706   1.547   7.498  0.0474 -0.1066 -0.0415
  257loPI   C4B 4112  12.888   1.728   7.126 -0.1555  0.0801  0.2258
  258loPI    C1 4113   3.827   2.915   9.438 -0.2075  0.2938  0.0061
  258loPI    C2 4114   3.595   2.731   9.707  0.1129 -0.0841  0.0340
  258loPI    C3 4115   3.916   2.936   9.828  0.2649 -0.2653 -0.0560
  258loPI   PO4 4116   3.672   3.101   9.206  0.1318 -0.2949 -0.2584
  258loPI   GL1 4117   3.306   3.097   8.971  0.0640  0.1831 -0.2380
  258loPI   GL2 4118   3.069   3.275   8.890  0.3496 -0.0151 -0.1848
  258loPI   C1A 4119   3.460   2.887   8.550 -0.2490  0.0243  0.0432
  258loPI   C2A 4120   3.283   2.719   8.170 -0.0468 -0.0278 -0.0828
  258loPI   C3A 4121   3.113   2.928   7.696  0.2547  0.0146 -0.0796
  258loPI   C4A 4122   2.989   3.123   7.324  0.1732 -0.1020  0.4062
  258loPI   C5A 4123   3.103   3.416   6.910  0.0405  0.1669  0.0623
  258loPI   C6A 4124   2.919   3.784   6.977 -0.0215  0.0696  0.4398
  258loPI   C1B 4125   3.086   3.180   8.546  0.1422 -0.2649 -0.0304
  258loPI   C2B 4126   3.301   3.332   8.111  0.1262  0.1601  0.0784
  258loPI   C3B 4127   3.260   3.508   7.727 -0.1392 -0.3938  0.3458
  258loPI   C4B 4128   3.253   3.691   7.337 -0.1115 -0.1856  0.0675
  259loPI    C1 4129   3.859  10.866  10.054 -0.0189 -0.1044  0.2677
  259loPI    C2 4130   3.493  10.842   9.894  0.0475  0.0817  0.0823
  259loPI    C3 4131   3.540  10.980  10.267 -0.0813 -0.0674  0.1551
  259loPI   PO4 4132   4.018  10.649   9.925 -0.1774  0.0237  0.1149
  259loPI   GL1 4133   3.797  10.329   9.725 -0.0656  0.1550  0.0472
  259loPI   GL2 4134   4.108  10.279   9.633  0.0417  0.0682  0.4453
  259loPI   C1A 4135   3.706  10.415   9.294  0.2576 -0.1623  0.5973
  259loPI   C2A 4136   3.381  10.502   9.016  0.0099 -0.2110  0.1424
  259loPI   C3A 4137   3.047  10.728   8.659 -0.1907  0.1031 -0.2701
  259loPI   C4A 4138   2.908  10.934   8.370 -0.0010  0.2821  0.0650
  259loPI   C5A 4139   3.068  11.157   7.993 -0.0979  0.0830  0.0887
  259loPI   C6A 4140   3.112  11.334   7.620 -0.0999 -0.0858  0.0175
  259loPI   C1B 4141   4.202  10.301   9.144  0.0703 -0.0588  0.1198
  259loPI   C2B 4142   3.985  10.322   8.728  0.4353  0.1719  0.0686
  259loPI   C3B 4143   3.821  10.295   8.261 -0.4769  0.2894 -0.0433
  259loPI   C4B 4144   3.490  10.261   8.033  0.0305  0.1783  0.0801
  260loPI    C1 4145   2.954   0.299   9.743 -0.0048  0.1772  0.1284
  260loPI    C2 4146   3.305   0.111   9.784 -0.0902 -0.0267 -0.0529
  260loPI    C3 4147   3.129   0.280  10.102  0.0343 -0.1703  0.0941
  260loPI   PO4 4148   2.817   0.099   9.644  0.2106 -0.1381  0.0283
  260loPI   GL1 4149   2.705  -0.163   9.231 -0.1279 -0.3171 -0.1503
  260loPI   GL2 4150   2.685   0.040   8.963 -0.2726  0.3724  0.2171
  260loPI   C1A 4151   2.801  -0.469   8.861  0.2878  0.0011 -0.0347
  260loPI   C2A 4152   2.786  -0.667   8.480  0.2483 -0.1288 -0.2618
  260loPI   C3A 4153   2.791  -0.996   8.106  0.0941 -0.2067  0.1774
  260loPI   C4A 4154   3.128  -1.221   7.873 -0.0716  0.0946 -0.2220
  260loPI   C5A 4155   3.468  -1.579   7.819  0.2419 -0.1825  0.2527
  260loPI   C6A 4156   3.880  -1.713   7.722 -0.4829 -0.2180  0.0358
  260loPI   C1B 4157   2.401   0.430   8.776 -0.2454  0.0518 -0.2140
  260loPI   C2B 4158   2.277   0.491   8.407 -0.1712  0.3158  0.0521
  260loPI   C3B 4159   2.386   0.159   8.022 -0.2269 -0.0466 -0.0086
  260loPI   C4B 4160   2.216  -0.182   7.834  0.2006 -0.0019 -0.2029
  261loPI    C1 4161   9.602  19.454  10.026 -0.2612 -0.3015  0.1187
  261loPI    C2 4162   9.953  19.564  10.184 -0.1402 -0.4551 -0.0389
  261loPI    C3 4163   9.616  19.608  10.395 -0.0900  0.1461 -0.0666
  261loPI   PO4 4164   9.609  19.622   9.672  0.1202  0.0973  0.2416
  261loPI   GL1 4165   9.719  19.488   9.282  0.5714  0.0502  0.1424
  261loPI   GL2 4166   9.765  19.313   9.022 -0.0923 -0.2035 -0.3313
  261loPI   C1A 4167   9.758  19.917   8.975 -0.1728 -0.0370  0.1525
  261loPI   C2A 4168   9.687  19.980   8.485  0.0233 -0.1520 -0.1531
  261loPI   C3A 4169   9.729  19.752   7.940 -0.1569 -0.1822 -0.2691
  261loPI   C4A 4170   9.633  19.578   7.494  0.0928  0.2280  0.1674
  261loPI   C5A 4171   9.519  19.213   7.148  0.1463  0.1240 -0.1832
  261loPI   C6A 4172   9.444  18.848   6.847  0.2206 -0.2893  0.0415
  261loPI   C1B 4173   9.931  19.392   8.676  0.4403  0.2113 -0.2064
  261loPI   C2B 4174   9.967  19.371   8.300 -0.2585  0.0501  0.2198
  261loPI   C3B 4175   9.968  19.281   7.934 -0.2387  0.1888 -0.2144
  261loPI   C4B 4176   9.952  19.184   7.365  0.0555  0.0659  0.0183
  262loPI    C1 4177  14.430  10.182   9.764 -0.1576 -0.0187 -0.0531
  262loPI    C2 4178  14.481   9.837   9.959 -0.1130 -0.1641 -0.3170
  262loPI    C3 4179  14.158  10.061  10.031  0.0735 -0.0406  0.1761
  262loPI   PO4 4180  14.508  10.047   9.526 -0.1607 -0.0916  0.0025
  262loPI   GL1 4181  14.760  10.040   9.155  0.3782 -0.2050  0.2250
  262loPI   GL2 4182  14.902   9.703   9.131 -0.0045  0.2334  0.1681
  262loPI   C1A 4183  14.636   9.845   8.652  0.2110 -0.1307 -0.3481
  262loPI   C2A 4184  14.324   9.794   8.242 -0.2208 -0.3633  0.3257
  262loPI   C3A 4185  14.076   9.675   7.975 -0.4080  0.3024  0.0474
  262loPI   C4A 4186  13.907   9.636   7.610  0.1064  0.2889 -0.1408
  262loPI   C5A 4187  13.666   9.724   7.315 -0.2572  0.0671 -0.0780
  262loPI   C6A 4188  13.503   9.517   6.901 -0.1854 -0.0080  0.2656
  262loPI   C1B 4189  14.890   9.450   8.755 -0.1159  0.0978  0.4148
  262loPI   C2B 4190  14.819   9.453   8.330 -0.1537 -0.2642 -0.1013
  262loPI   C3B 4191  15.044   9.545   7.945  0.0720  0.1323  0.5521
  262loPI   C4B 4192  14.913   9.570   7.488  0.0920 -0.1717  0.0408
  263loPI    C1 4193  13.222   3.495   9.773  0.0552 -0.1094  0.0995
  263loPI    C2 4194  12.990   3.499  10.099  0.0183  0.0117  0.0723
  263loPI    C3 4195  13.124   3.151   9.953 -0.3353 -0.0788 -0.0461
  263loPI   PO4 4196  13.160   3.599   9.586 -0.0366  0.0338  0.1658
  263loPI   GL1 4197  13.017   3.786   9.269 -0.1448 -0.0066  0.0868
  263loPI   GL2 4198  12.987   3.457   9.086  0.2207  0.1617  0.0339
  263loPI   C1A 4199  13.378   3.751   8.912 -0.1038  0.0034 -0.2363
  263loPI   C2A 4200  13.580   3.477   8.515 -0.1843  0.1210  0.1217
  263loPI   C3A 4201  13.715   3.535   8.154 -0.1288  0.0921 -0.1383
  263loPI   C4A 4202  13.859   3.380   7.675  0.0963 -0.1208  0.0217
  263loPI   C5A 4203  14.077   3.575   7.246 -0.0171  0.1616  0.2720
  263loPI   C6A 4204  14.330   3.338   7.122 -0.1246  0.0206  0.0116
  263loPI   C1B 4205  13.083   3.304   8.689 -0.0539 -0.0017 -0.4501
  263loPI   C2B 4206  13.087   3.235   8.291  0.2483 -0.0322  0.2000
  263loPI   C3B 4207  13.083   3.173   7.910  0.0263 -0.1682 -0.0526
  263loPI   C4B 4208  13.415   3.092   7.583 -0.1292  0.3239 -0.1318
  264loPI    C1 4209   1.006   5.961   9.786 -0.0403 -0.0938 -0.0993
  264loPI    C2 4210   0.682   5.768   9.918  0.0415 -0.0432  0.1830
  264loPI    C3 4211   1.040   5.590   9.932  0.0624 -0.0089  0.0956
  264loPI   PO4 4212   1.015   6.019   9.482 -0.4894  0.0816  0.1963
  264loPI   GL1 4213   0.814   5.844   9.042  0.0731 -0.1355  0.0537
  264loPI   GL2 4214   0.999   5.509   9.057 -0.2435  0.1920  0.0013
  264loPI   C1A 4215   0.450   5.988   8.764 -0.1419 -0.2906 -0.1731
  264loPI   C2A 4216   0.177   6.212   8.402 -0.0073  0.0749  0.2238
  264loPI   C3A 4217   0.254   6.278   7.963  0.0215 -0.2129 -0.0517
  264loPI   C4A 4218   0.199   6.000   7.546 -0.0483  0.2422 -0.1560
  264loPI   C5A 4219   0.204   5.598   7.301  0.0155 -0.0265 -0.1550
  264loPI   C6A 4220  -0.156   5.479   7.031 -0.0171 -0.0330 -0.1878
  264loPI   C1B 4221   0.888   5.611   8.625 -0.3866  0.3047 -0.2547
  264loPI   C2B 4222   0.581   5.493   8.368  0.4728 -0.1462  0.4807
  264loPI   C3B 4223   0.665   5.470   7.980 -0.0607  0.3567  0.2636
  264loPI   C4B 4224   0.735   5.479   7.588  0.0271  0.2195  0.2215
  265loPI    C1 4225  12.651   3.236   9.793 -0.1162  0.0128  0.1160
  265loPI    C2 4226  12.346   3.018   9.652 -0.1000  0.0894 -0.0389
  265loPI    C3 4227  12.643   2.840   9.853  0.0281 -0.0678 -0.3614
  265loPI   PO4 4228  12.689   3.404   9.525  0.1479 -0.1733 -0.3540
  265loPI   GL1 4229  12.514   3.740   9.235 -0.0528 -0.0871 -0.0391
  265loPI   GL2 4230  12.197   3.726   9.129  0.2523  0.1591  0.2099
  265loPI   C1A 4231  12.400   4.121   8.945  0.1796  0.1016  0.1901
  265loPI   C2A 4232  12.269   4.219   8.516  0.0381  0.0036  0.0704
  265loPI   C3A 4233  12.176   3.942   8.231  0.1922 -0.0998 -0.0702
  265loPI   C4A 4234  12.383   3.753   7.909  0.1834  0.1695 -0.1420
  265loPI   C5A 4235  12.030   3.652   7.592  0.0569  0.0093  0.0305
  265loPI   C6A 4236  11.633   3.634   7.571  0.0770 -0.2369 -0.2531
  265loPI   C1B 4237  12.519   3.612   8.678 -0.0390 -0.1385  0.1642
  265loPI   C2B 4238  12.648   3.602   8.328  0.0949 -0.1482 -0.2664
  265loPI   C3B 4239  12.882   3.633   8.068 -0.1395 -0.0523  0.0593
  265loPI   C4B 4240  13.304   3.615   7.792 -0.1746 -0.0000 -0.2296
  266loPI    C1 4241   9.326  18.551   9.564 -0.2673  0.1502 -0.1461
  266loPI    C2 4242   9.531  18.700   9.873 -0.0155  0.1372 -0.3040
  266loPI    C3 4243   9.205  18.476   9.938  0.1538 -0.0401 -0.0426
  266loPI   PO4 4244   9.286  18.720   9.401 -0.1047 -0.0658 -0.1642
  266loPI   GL1 4245   9.146  19.022   9.240  0.0330 -0.3811  0.1957
  266loPI   GL2 4246   9.295  19.315   9.132 -0.4834  0.1883  0.1396
  266loPI   C1A 4247   9.094  19.112   8.751 -0.1193  0.0672 -0.0030
  266loPI   C2A 4248   9.141  19.051   8.272  0.0556  0.1293 -0.1955
  266loPI   C3A 4249   8.928  18.990   7.887  0.0822 -0.0965  0.1121
  266loPI   C4A 4250   9.152  18.771   7.424 -0.0653  0.0587  0.2302
  266loPI   C5A 4251   9.324  18.467   7.214 -0.3249  0.1263  0.1809
  266loPI   C6A 4252   9.335  18.060   7.078 -0.1970  0.0870  0.1449
  266loPI   C1B 4253   9.394  19.584   8.789  0.1292  0.2722 -0.3888
  266loPI   C2B 4254   9.463  19.462   8.339 -0.2580 -0.2030 -0.0562
  266loPI   C3B 4255   9.373  19.290   7.918 -0.0760 -0.2976  0.0252
  266loPI   C4B 4256   9.197  19.266   7.549 -0.1709 -0.2387  0.0322
  267loPI    C1 4257   6.247   9.196   9.514 -0.0654  0.0043  0.0705
  267loPI    C2 4258   6.190   8.986   9.850 -0.0704 -0.1703 -0.0385
  267loPI    C3 4259   6.395   9.330   9.861 -0.2382 -0.0753  0.1759
  267loPI   PO4 4260   6.052   9.060   9.376  0.0167  0.1432  0.1171
  267loPI   GL1 4261   6.088   8.998   8.977 -0.2415  0.0758 -0.0311
  267loPI   GL2 4262   5.805   8.946   8.852 -0.0202  0.1838 -0.2767
  267loPI   C1A 4263   6.238   8.922   8.645 -0.0831  0.3902 -0.0484
  267loPI   C2A 4264   6.255   8.803   8.242  0.1478  0.2703  0.1298
  267loPI   C3A 4265   6.364   8.654   7.955 -0.0540 -0.0766 -0.3592
  267loPI   C4A 4266   6.483   8.743   7.542 -0.0545  0.2474  0.1686
  267loPI   C5A 4267   6.852   8.696   7.293  0.0894 -0.0414  0.3940
  267loPI   C6A 4268   7.336   8.622   7.292  0.1714  0.1506  0.0264
  267loPI   C1B 4269   5.389   9.082   8.719  0.0781  0.0004 -0.0626
  267loPI   C2B 4270   5.277   9.509   8.630  0.2079  0.2783 -0.1007
  267loPI   C3B 4271   5.275   9.625   8.103 -0.0990 -0.0987 -0.3323
  267loPI   C4B 4272   5.322   9.656   7.698  0.1460 -0.0784 -0.3061
  268loPI    C1 4273  18.033  10.238  10.218 -0.0976 -0.1012 -0.0718
  268loPI    C2 4274  17.960   9.895  10.409  0.0608 -0.1393 -0.0783
  268loPI    C3 4275  18.333  10.036  10.387  0.0291 -0.0830 -0.2717
  268loPI   PO4 4276  18.052  10.239   9.889 -0.6350  0.1040 -0.3108
  268loPI   GL1 4277  18.045  10.470   9.459 -0.0706  0.3375 -0.1234
  268loPI   GL2 4278  18.308  10.227   9.434 -0.1352  0.1608 -0.1735
  268loPI   C1A 4279  17.727  10.481   9.140 -0.1217 -0.1261 -0.1541
  268loPI   C2A 4280  17.684  10.620   8.695 -0.0739  0.0258  0.0758
  268loPI   C3A 4281  17.532  10.491   8.292  0.0294 -0.0973 -0.1871
  268loPI   C4A 4282  17.259  10.753   7.955  0.0260  0.1909  0.2476
  268loPI   C5A 4283  17.004  10.932   7.608 -0.2322 -0.3702  0.0558
  268loPI   C6A 4284  16.919  11.336   7.273  0.0168 -0.1707 -0.2511
  268loPI   C1B 4285  18.165  10.341   8.974  0.0636  0.0982  0.1120
  268loPI   C2B 4286  18.158  10.359   8.657 -0.0131  0.1326  0.0325
  268loPI   C3B 4287  18.022  10.372   8.218  0.0093 -0.3545  0.1850
  268loPI   C4B 4288  17.808  10.537   7.886 -0.0600 -0.0110 -0.0196
  269loPI    C1 4289  15.629  13.023   9.313 -0.1337  0.0777 -0.0678
  269loPI    C2 4290  15.390  13.184   9.591  0.0211  0.1847  0.0052
  269loPI    C3 4291  15.533  12.814   9.640  0.0476  0.2032  0.0679
  269loPI   PO4 4292  15.790  13.215   9.215  0.0950 -0.3395 -0.0079
  269loPI   GL1 4293  15.960  13.353   8.902  0.4598  0.3177  0.2088
  269loPI   GL2 4294  16.178  13.239   8.827 -0.0116 -0.0427  0.2273
  269loPI   C1A 4295  15.683  13.587   8.614  0.1089  0.0886  0.0825
  269loPI   C2A 4296  15.507  13.635   8.214  0.1134  0.0371 -0.0953
  269loPI   C3A 4297  15.651  13.571   7.730  0.0558  0.0475 -0.0568
  269loPI   C4A 4298  15.621  13.550   7.322 -0.0618 -0.1271 -0.1172
  269loPI   C5A 4299  15.665  13.396   6.961 -0.1164  0.3285 -0.1274
  269loPI   C6A 4300  15.607  13.443   6.513  0.2611 -0.3486 -0.0272
  269loPI   C1B 4301  16.140  13.482   8.389 -0.2419 -0.0768  0.0712
  269loPI   C2B 4302  16.002  13.443   8.025 -0.1043  0.0326 -0.0051
  269loPI   C3B 4303  15.722  13.086   7.844  0.0490  0.0576  0.1757
  269loPI   C4B 4304  15.242  13.181   7.728  0.0604 -0.0572  0.0712
  270loPI    C1 4305   3.043  16.409   9.543  0.1678 -0.2622 -0.1692
  270loPI    C2 4306   3.041  16.021   9.449 -0.2297 -0.3772  0.2719
  270loPI    C3 4307   3.009  16.133   9.831 -0.3206  0.0959  0.1312
  270loPI   PO4 4308   3.214  16.565   9.380 -0.1589 -0.1972  0.0074
  270loPI   GL1 4309   3.216  16.770   9.021  0.0081  0.1940  0.1195
  270loPI   GL2 4310   3.284  16.537   8.805 -0.4607 -0.2666 -0.0744
  270loPI   C1A 4311   3.148  17.000   8.681  0.2354  0.0751  0.0329
  270loPI   C2A 4312   3.294  16.880   8.193  0.1381  0.0463  0.2626
  270loPI   C3A 4313   3.236  16.780   7.775  0.0925 -0.0123 -0.2514
  270loPI   C4A 4314   3.296  16.620   7.383  0.1381  0.0623  0.0917
  270loPI   C5A 4315   3.516  16.401   7.068  0.1299 -0.0665 -0.1131
  270loPI   C6A 4316   3.875  16.093   6.992 -0.1076  0.0122 -0.0099
  270loPI   C1B 4317   3.323  16.417   8.366 -0.0609  0.3605  0.1577
  270loPI   C2B 4318   3.330  16.272   7.970  0.1578 -0.0321 -0.3006
  270loPI   C3B 4319   3.579  16.269   7.597 -0.1561  0.0728  0.1875
  270loPI   C4B 4320   3.865  16.251   7.462  0.0900  0.0110 -0.1234
  271loPI    C1 4321  13.623   9.395   9.863 -0.0864  0.0210 -0.2899
  271loPI    C2 4322  13.602   9.793   9.900  0.2190  0.0069  0.1064
  271loPI    C3 4323  13.384   9.558  10.140  0.0285 -0.0684 -0.1361
  271loPI   PO4 4324  13.764   9.354   9.600  0.1162 -0.0337  0.3668
  271loPI   GL1 4325  13.973   9.514   9.189  0.2651 -0.0678 -0.2333
  271loPI   GL2 4326  14.205   9.701   8.963  0.1102 -0.4004 -0.1555
  271loPI   C1A 4327  13.877   9.132   8.883 -0.0365 -0.0526  0.0099
  271loPI   C2A 4328  13.854   8.935   8.442  0.2615  0.1659 -0.1824
  271loPI   C3A 4329  13.727   9.009   7.995  0.1103  0.0989 -0.0065
  271loPI   C4A 4330  13.973   9.155   7.744 -0.2174 -0.2117 -0.3201
  271loPI   C5A 4331  14.268   9.060   7.423  0.3855  0.2169  0.0855
  271loPI   C6A 4332  14.504   8.695   7.196 -0.0349 -0.1091  0.2936
  271loPI   C1B 4333  13.887   9.560   8.645 -0.0727  0.0746 -0.1911
  271loPI   C2B 4334  13.634   9.393   8.300  0.2576 -0.2247 -0.1569
  271loPI   C3B 4335  13.345   9.183   8.239 -0.2490 -0.3654 -0.0520
  271loPI   C4B 4336  13.288   9.099   7.810 -0.1946 -0.0345  0.0310
  272loPI    C1 4337   2.959  11.187  10.241 -0.3993 -0.2549  0.1726
  272loPI    C2 4338   2.681  11.226   9.955 -0.1334 -0.0523 -0.0637
  272loPI    C3 4339   2.789  11.543  10.174 -0.0830 -0.1288  0.0230
  272loPI   PO4 4340   3.001  10.902  10.129 -0.1245  0.1738 -0.0558
  272loPI   GL1 4341   2.940  10.651   9.842  0.0876 -0.2610 -0.0218
  272loPI   GL2 4342   3.135  10.383   9.719 -0.4182 -0.0661  0.2672
  272loPI   C1A 4343   2.783  10.859   9.492 -0.3341 -0.1860 -0.6120
  272loPI   C2A 4344   2.842  10.941   9.101  0.4129 -0.3632 -0.0525
  272loPI   C3A 4345   2.961  11.236   8.797  0.1415 -0.1459  0.3489
  272loPI   C4A 4346   2.856  11.417   8.364  0.0778 -0.0787 -0.0711
  272loPI   C5A 4347   2.585  11.682   8.116  0.1371  0.1362  0.0052
  272loPI   C6A 4348   2.226  11.929   8.049  0.0779 -0.0207  0.0916
  272loPI   C1B 4349   3.282  10.735   9.460 -0.1262  0.3873 -0.0582
  272loPI   C2B 4350   3.278  11.116   9.220  0.3374 -0.1872 -0.0625
  272loPI   C3B 4351   3.579  11.352   9.228 -0.0160 -0.2290  0.0117
  272loPI   C4B 4352   3.596  11.828   9.154 -0.0306 -0.0432  0.3537
  273loPI    C1 4353  10.629   8.288   9.914  0.2247  0.1530  0.1596
  273loPI    C2 4354  10.439   8.197  10.254  0.1585 -0.1881  0.0348
  273loPI    C3 4355  10.238   8.364   9.951  0.1790 -0.0467  0.0983
  273loPI   PO4 4356  10.734   8.088   9.716 -0.1155  0.2004  0.1246
  273loPI   GL1 4357  10.761   7.937   9.336  0.0620 -0.0297 -0.2056
  273loPI   GL2 4358  11.028   7.674   9.335 -0.0274  0.0093 -0.1805
  273loPI   C1A 4359  10.512   7.875   8.987 -0.1069  0.1545  0.1969
  273loPI   C2A 4360  10.428   8.112   8.613 -0.0705  0.1865  0.3169
  273loPI   C3A 4361  10.521   8.131   8.201 -0.0751  0.1614  0.1931
  273loPI   C4A 4362  10.588   8.304   7.796 -0.3103 -0.3300 -0.0030
  273loPI   C5A 4363  10.714   8.384   7.343  0.1874 -0.0426 -0.0816
  273loPI   C6A 4364  10.803   8.774   7.230  0.1211  0.0411  0.0978
  273loPI   C1B 4365  11.077   7.589   8.857  0.1213 -0.0465  0.2001
  273loPI   C2B 4366  10.811   7.778   8.570 -0.1897  0.2604  0.2521
  273loPI   C3B 4367  10.625   7.664   8.130 -0.0719 -0.0820  0.0810
  273loPI   C4B 4368  10.744   7.827   7.751  0.0649 -0.3828  0.2019
  274loPI    C1 4369  17.750  12.913   9.489  0.1047  0.2368  0.1033
  274loPI    C2 4370  18.071  12.675   9.471 -0.0152  0.0799  0.0202
  274loPI    C3 4371  17.784  12.605   9.741 -0.1710 -0.0236 -0.1698
  274loPI   PO4 4372  17.625  12.884   9.298  0.1907  0.0182 -0.2370
  274loPI   GL1 4373  17.315  12.690   8.916 -0.1578 -0.1920  0.2382
  274loPI   GL2 4374  17.460  12.989   8.842  0.1444  0.0092 -0.0612
  274loPI   C1A 4375  17.169  12.642   8.493  0.0045 -0.1308  0.1151
  274loPI   C2A 4376  17.057  12.370   8.116  0.4147  0.0336 -0.0202
  274loPI   C3A 4377  17.074  11.943   7.979  0.1483 -0.0298  0.3764
  274loPI   C4A 4378  16.999  11.790   7.504 -0.0744 -0.1731 -0.0565
  274loPI   C5A 4379  16.876  11.831   7.075  0.1829 -0.0553 -0.1483
  274loPI   C6A 4380  16.761  11.899   6.639  0.1762  0.3058  0.0067
  274loPI   C1B 4381  17.151  13.225   8.506 -0.4046 -0.2653  0.0301
  274loPI   C2B 4382  17.055  13.416   8.095 -0.1816  0.1124  0.2120
  274loPI   C3B 4383  17.254  13.348   7.737 -0.1997  0.0427  0.0483
  274loPI   C4B 4384  17.453  12.949   7.520 -0.0527 -0.1468 -0.0647
  275loPI    C1 4385   8.155  12.109   9.507 -0.2182 -0.4749  0.1201
  275loPI    C2 4386   8.472  12.004   9.726  0.0899  0.0668 -0.0475
  275loPI    C3 4387   8.159  12.181   9.901  0.0794 -0.0419  0.0448
  275loPI   PO4 4388   8.067  11.746   9.337 -0.1248  0.4376 -0.2302
  275loPI   GL1 4389   7.868  11.783   8.987 -0.0629  0.1490  0.0042
  275loPI   GL2 4390   8.004  12.095   8.947  0.0907 -0.1327 -0.0962
  275loPI   C1A 4391   7.735  11.752   8.547  0.1372 -0.1357 -0.1246
  275loPI   C2A 4392   7.584  11.590   8.122 -0.1817 -0.0143  0.1802
  275loPI   C3A 4393   7.584  11.503   7.724  0.0194  0.3052  0.1565
  275loPI   C4A 4394   7.648  11.331   7.395 -0.0369  0.0686 -0.0211
  275loPI   C5A 4395   7.452  11.485   7.011 -0.1389  0.0325  0.2460
  275loPI   C6A 4396   7.270  11.485   6.574  0.0703  0.1263  0.3371
  275loPI   C1B 4397   7.901  12.310   8.669  0.0611 -0.2813 -0.0902
  275loPI   C2B 4398   8.014  12.487   8.357  0.0373  0.2195 -0.2849
  275loPI   C3B 4399   8.263  12.617   8.046  0.0031 -0.0574 -0.1880
  275loPI   C4B 4400   8.252  12.796   7.646  0.2189 -0.1272  0.0487
  276loPI    C1 4401   8.881   2.483   9.820  0.0949 -0.0886  0.0358
  276loPI    C2 4402   9.267   2.389   9.777  0.0591 -0.1303 -0.2135
  276loPI    C3 4403   9.133   2.531  10.126  0.3259  0.0143 -0.1670
  276loPI   PO4 4404   8.843   2.652   9.609  0.1523 -0.4937 -0.1914
  276loPI   GL1 4405   8.743   2.701   9.165  0.2057  0.0335  0.0456
  276loPI   GL2 4406   8.968   2.501   9.175  0.1707  0.2360  0.1136
  276loPI   C1A 4407   8.501   2.857   8.837 -0.0308  0.0199  0.0206
  276loPI   C2A 4408   8.530   2.996   8.479  0.0635 -0.2302 -0.2152
  276loPI   C3A 4409   8.579   3.000   8.009 -0.2353 -0.2154 -0.1843
  276loPI   C4A 4410   8.577   3.145   7.565 -0.2151  0.1833  0.1996
  276loPI   C5A 4411   8.731   3.054   7.103 -0.0858  0.2122 -0.6060
  276loPI   C6A 4412   9.018   3.002   6.797  0.0498 -0.0212  0.2960
  276loPI   C1B 4413   8.787   2.459   8.746  0.1701  0.2727  0.0801
  276loPI   C2B 4414   8.690   2.342   8.351  0.1363  0.1194 -0.1554
  276loPI   C3B 4415   8.831   2.297   7.977 -0.1660  0.2484 -0.1736
  276loPI   C4B 4416   8.868   2.280   7.544 -0.3776  0.3399 -0.0774
  277loPI    C1 4417  13.287  19.181   9.917  0.1323 -0.1366  0.1375
  277loPI    C2 4418  13.659  19.307   9.840  0.1417 -0.2310  0.0247
  277loPI    C3 4419  13.583  19.104  10.176  0.1623 -0.0854  0.1188
  277loPI   PO4 4420  13.240  19.078   9.714 -0.0218 -0.1193 -0.3266
  277loPI   GL1 4421  13.101  19.019   9.310  0.1047 -0.3385 -0.2651
  277loPI   GL2 4422  13.450  19.159   9.279  0.2169  0.1545 -0.0102
  277loPI   C1A 4423  13.182  18.805   8.866 -0.1115 -0.0272  0.0060
  277loPI   C2A 4424  12.918  18.862   8.510  0.0453  0.1500 -0.1554
  277loPI   C3A 4425  12.979  19.182   8.170  0.2774 -0.0655  0.2451
  277loPI   C4A 4426  13.151  19.148   7.706 -0.2837 -0.1366  0.3257
  277loPI   C5A 4427  13.257  19.180   7.182 -0.0348  0.1556 -0.2771
  277loPI   C6A 4428  13.449  19.556   7.036 -0.3487 -0.0942  0.4742
  277loPI   C1B 4429  13.270  19.303   8.915  0.1665 -0.3688  0.2534
  277loPI   C2B 4430  13.352  19.375   8.440  0.1268 -0.3572  0.0284
  277loPI   C3B 4431  13.438  19.440   8.028  0.3230 -0.0211 -0.3158
  277loPI   C4B 4432  13.483  19.571   7.620 -0.1257 -0.0909  0.0278
  278loPI    C1 4433  12.925  11.399   9.832 -0.2766 -0.0939 -0.0288
  278loPI    C2 4434  13.300  11.463   9.956 -0.2624  0.0147 -0.1269
  278loPI    C3 4435  13.015  11.373  10.222 -0.1808 -0.0019 -0.0442
  278loPI   PO4 4436  12.903  11.564   9.557  0.3519  0.0112  0.1079
  278loPI   GL1 4437  12.552  11.547   9.261 -0.1213 -0.2031  0.1742
  278loPI   GL2 4438  12.251  11.473   9.278 -0.1667  0.0945 -0.0767
  278loPI   C1A 4439  12.829  11.632   8.874  0.1349  0.3144 -0.0793
  278loPI   C2A 4440  12.872  11.884   8.572 -0.2335  0.0932  0.0124
  278loPI   C3A 4441  12.876  11.908   8.051  0.0049 -0.1239  0.2710
  278loPI   C4A 4442  12.771  11.948   7.728 -0.2055  0.0580 -0.1172
  278loPI   C5A 4443  12.545  11.939   7.357  0.0301 -0.2290  0.1393
  278loPI   C6A 4444  12.128  11.876   7.072  0.1695 -0.1597  0.2931
  278loPI   C1B 4445  12.523  11.133   9.113  0.0835  0.1974  0.3253
  278loPI   C2B 4446  12.608  11.105   8.669  0.0428 -0.1476  0.2205
  278loPI   C3B 4447  12.686  11.407   8.301 -0.0439  0.1271  0.0407
  278loPI   C4B 4448  12.690  11.359   7.821 -0.0847  0.3679 -0.1750
  279loPI    C1 4449   5.969  13.850   9.740  0.1637  0.0014 -0.0643
  279loPI    C2 4450   6.180  13.548   9.584  0.3069  0.1776 -0.2164
  279loPI    C3 4451   6.279  13.697   9.942 -0.0351 -0.2409  0.0629
  279loPI   PO4 4452   5.842  13.870   9.446  0.0638 -0.0326 -0.2397
  279loPI   GL1 4453   5.595  13.830   9.117 -0.0177 -0.3245 -0.2516
  279loPI   GL2 4454   5.599  14.318   9.140 -0.2774  0.2933  0.0682
  279loPI   C1A 4455   5.604  14.020   8.680  0.0344  0.1693  0.2039
  279loPI   C2A 4456   5.686  14.216   8.202  0.0175  0.3448  0.0439
  279loPI   C3A 4457   5.866  14.409   7.789  0.2323 -0.1194 -0.0484
  279loPI   C4A 4458   6.128  14.518   7.480 -0.0396  0.1317 -0.0814
  279loPI   C5A 4459   6.307  14.608   6.999 -0.1941  0.0709 -0.3927
  279loPI   C6A 4460   6.658  14.603   6.668 -0.0468 -0.2133  0.0542
  279loPI   C1B 4461   5.640  14.548   8.721 -0.1122 -0.3079 -0.2995
  279loPI   C2B 4462   5.542  14.688   8.397  0.0223  0.0705 -0.0922
  279loPI   C3B 4463   5.697  14.837   7.995 -0.2533  0.2967  0.1472
  279loPI   C4B 4464   5.802  14.846   7.562 -0.0940 -0.1220 -0.2398
  280loPI    C1 4465  18.446  16.581   9.492 -0.0427  0.2906  0.0145
  280loPI    C2 4466  18.219  16.799   9.738 -0.0135  0.2279  0.0970
  280loPI    C3 4467  18.479  16.535   9.888 -0.3209 -0.1412 -0.0066
  280loPI   PO4 4468  18.568  16.730   9.353 -0.0906  0.0120 -0.2094
  280loPI   GL1 4469  18.571  16.879   8.943  0.2344 -0.0092 -0.2379
  280loPI   GL2 4470  18.547  17.247   8.865  0.4091  0.5200  0.1887
  280loPI   C1A 4471  18.769  16.681   8.603 -0.3253  0.0109 -0.0270
  280loPI   C2A 4472  18.601  16.744   8.123 -0.1803 -0.1613 -0.0734
  280loPI   C3A 4473  18.375  16.460   7.856 -0.0781 -0.0513 -0.1182
  280loPI   C4A 4474  18.489  16.433   7.412 -0.0456 -0.0703 -0.3649
  280loPI   C5A 4475  18.717  16.210   7.049 -0.0492 -0.0125 -0.1506
  280loPI   C6A 4476  18.943  16.306   6.711  0.0702 -0.2865  0.2982
  280loPI   C1B 4477  18.376  17.093   8.499 -0.0647 -0.0027  0.2821
  280loPI   C2B 4478  18.199  16.961   8.042 -0.0205 -0.1071 -0.0798
  280loPI   C3B 4479  18.261  17.067   7.599 -0.1038 -0.0143 -0.1811
  280loPI   C4B 4480  18.299  16.873   7.211 -0.0781  0.2971 -0.3947
  281loPI    C1 4481   2.703   1.746   9.908  0.3449  0.0150 -0.1310
  281loPI    C2 4482   2.403   1.544  10.078  0.3303  0.0974 -0.0582
  281loPI    C3 4483   2.503   1.906  10.215  0.1223  0.2949 -0.4141
  281loPI   PO4 4484   2.708   1.727   9.607  0.2885  0.0630  0.1063
  281loPI   GL1 4485   2.823   2.061   9.284  0.0799 -0.0826 -0.1226
  281loPI   GL2 4486   3.051   2.200   9.084 -0.2542  0.0394 -0.0284
  281loPI   C1A 4487   3.083   1.759   8.863  0.1792  0.0561  0.0593
  281loPI   C2A 4488   3.167   1.615   8.489 -0.1099 -0.0330  0.0315
  281loPI   C3A 4489   3.220   1.647   8.109  0.0965 -0.0493 -0.1376
  281loPI   C4A 4490   2.997   1.485   7.724  0.1448  0.1046  0.0997
  281loPI   C5A 4491   2.744   1.403   7.513 -0.0718  0.2731 -0.2520
  281loPI   C6A 4492   2.596   1.438   7.108 -0.0853  0.1687  0.1122
  281loPI   C1B 4493   3.118   2.549   8.834  0.0551 -0.0110 -0.2837
  281loPI   C2B 4494   2.886   2.688   8.459  0.1541  0.0332  0.1071
  281loPI   C3B 4495   2.853   3.019   8.102 -0.4659 -0.3282 -0.1817
  281loPI   C4B 4496   2.586   3.223   7.737  0.0499 -0.1058 -0.1613
  282loPI    C1 4497   3.855   3.798   9.749 -0.1894 -0.0389  0.2137
  282loPI    C2 4498   4.073   4.123   9.667 -0.2659 -0.0187  0.0874
  282loPI    C3 4499   4.153   3.906   9.993  0.2004 -0.2361 -0.1621
  282loPI   PO4 4500   3.671   3.833   9.502  0.0922  0.0196 -0.0956
  282loPI   GL1 4501   3.782   3.928   9.086 -0.2249 -0.2677 -0.1628
  282loPI   GL2 4502   3.856   3.577   9.016 -0.1142  0.1610 -0.0267
  282loPI   C1A 4503   3.820   3.972   8.569  0.0793 -0.2014  0.0879
  282loPI   C2A 4504   3.855   4.171   8.245  0.1978  0.0340  0.1094
  282loPI   C3A 4505   3.738   4.130   7.916 -0.1028  0.0703 -0.2488
  282loPI   C4A 4506   3.716   3.851   7.603 -0.3052 -0.1937  0.0277
  282loPI   C5A 4507   3.827   3.462   7.457 -0.0344 -0.1299 -0.0713
  282loPI   C6A 4508   4.005   3.184   7.142  0.0418 -0.2170  0.1565
  282loPI   C1B 4509   3.777   3.483   8.549  0.1151  0.0675 -0.2287
  282loPI   C2B 4510   3.815   3.528   8.050 -0.0989 -0.0733 -0.0524
  282loPI   C3B 4511   4.150   3.654   7.759  0.0939 -0.3477 -0.0332
  282loPI   C4B 4512   4.201   4.048   7.566 -0.1336 -0.3452 -0.1915
  283loPI    C1 4513   1.325  16.658  10.029  0.2823  0.0218 -0.0696
  283loPI    C2 4514   0.979  16.852   9.972  0.0559 -0.3166  0.1188
  283loPI    C3 4515   1.286  17.037  10.151 -0.0046  0.0051 -0.1030
  283loPI   PO4 4516   1.294  16.520   9.757 -0.1541 -0.2798  0.1557
  283loPI   GL1 4517   1.360  16.255   9.353  0.2148 -0.3247  0.1916
  283loPI   GL2 4518   1.633  16.218   9.114 -0.1722 -0.1194 -0.1687
  283loPI   C1A 4519   1.003  16.359   9.017 -0.3025  0.3156  0.0653
  283loPI   C2A 4520   1.017  16.369   8.596 -0.1825  0.4914 -0.0316
  283loPI   C3A 4521   0.967  16.280   8.255  0.0639 -0.2428  0.0742
  283loPI   C4A 4522   1.147  15.905   7.936 -0.0108  0.0686  0.0209
  283loPI   C5A 4523   0.986  15.423   7.861  0.1011 -0.2906 -0.1476
  283loPI   C6A 4524   0.773  15.431   8.148 -0.2429 -0.0013  0.0632
  283loPI   C1B 4525   1.791  15.808   8.908 -0.1542 -0.0345  0.0817
  283loPI   C2B 4526   1.891  15.671   8.385  0.4243 -0.0301  0.3135
  283loPI   C3B 4527   2.299  15.481   8.208  0.3433 -0.0035  0.1436
  283loPI   C4B 4528   2.398  15.260   7.960 -0.0176 -0.2116  0.2939
  284loPI    C1 4529  10.512   8.686  10.180  0.0766  0.0611  0.0849
  284loPI    C2 4530  10.421   8.980  10.436 -0.0553  0.1202 -0.0287
  284loPI    C3 4531  10.179   8.663  10.400  0.0745  0.0078  0.0767
  284loPI   PO4 4532  10.644   8.816   9.915 -0.1129  0.0598  0.1742
  284loPI   GL1 4533  10.556   8.740   9.479  0.1146  0.0269 -0.0802
  284loPI   GL2 4534  10.358   8.457   9.503 -0.2935  0.0627  0.2308
  284loPI   C1A 4535  10.743   8.424   9.184  0.0459 -0.4027  0.0141
  284loPI   C2A 4536  10.943   8.156   8.841  0.1266  0.1243  0.0130
  284loPI   C3A 4537  11.033   8.253   8.361 -0.0934  0.0360 -0.1217
  284loPI   C4A 4538  11.082   8.204   7.952  0.4758 -0.0658  0.1369
  284loPI   C5A 4539  11.122   8.133   7.542 -0.0416 -0.2816 -0.0017
  284loPI   C6A 4540  10.974   7.912   7.119 -0.2033  0.0185  0.1363
  284loPI   C1B 4541  10.288   8.359   9.011  0.2069  0.0137  0.0978
  284loPI   C2B 4542   9.997   8.054   8.800 -0.0359  0.1345  0.1127
  284loPI   C3B 4543   9.737   7.967   8.453 -0.0911  0.1347 -0.1389
  284loPI   C4B 4544   9.559   8.119   8.050 -0.0476  0.4552  0.1286
  285loPI    C1 4545   3.410   6.623   9.712 -0.0665 -0.0874  0.0947
  285loPI    C2 4546   3.808   6.631   9.667 -0.0762  0.0663  0.0320
  285loPI    C3 4547   3.641   6.764  10.006 -0.0691 -0.0842  0.0952
  285loPI   PO4 4548   3.324   6.805   9.450 -0.0299  0.1499 -0.2220
  285loPI   GL1 4549   3.116   6.959   9.142 -0.1627  0.0576 -0.1609
  285loPI   GL2 4550   2.830   7.095   9.222 -0.4140  0.1743 -0.1176
  285loPI   C1A 4551   3.064   7.007   8.702 -0.0799  0.0707 -0.4059
  285loPI   C2A 4552   3.165   7.106   8.281 -0.1112 -0.2441 -0.1969
  285loPI   C3A 4553   2.975   7.077   7.916  0.2418 -0.1807  0.0342
  285loPI   C4A 4554   2.504   7.134   7.703  0.0220 -0.0961 -0.3246
  285loPI   C5A 4555   2.334   7.191   7.324 -0.0025 -0.2279  0.0157
  285loPI   C6A 4556   1.966   7.000   7.583  0.0575 -0.1551 -0.3951
  285loPI   C1B 4557   2.728   7.358   8.883 -0.4093  0.0370  0.5212
  285loPI   C2B 4558   3.048   7.481   8.616  0.1389 -0.0515  0.1281
  285loPI   C3B 4559   3.160   7.615   8.138  0.1406  0.1219 -0.3342
  285loPI   C4B 4560   3.272   7.493   7.792 -0.2413  0.1248 -0.1375
  286loPI    C1 4561   7.466  19.091   9.660  0.2149  0.3032 -0.0413
  286loPI    C2 4562   7.548  18.912  10.008  0.0745  0.0956 -0.1130
  286loPI    C3 4563   7.693  19.277   9.932  0.1795  0.1057  0.1260
  286loPI   PO4 4564   7.207  19.125   9.454 -0.1997  0.1238  0.0822
  286loPI   GL1 4565   7.143  18.962   8.943 -0.1080  0.1390 -0.3250
  286loPI   GL2 4566   6.924  19.124   8.753 -0.0728 -0.0760 -0.0137
  286loPI   C1A 4567   7.526  18.794   8.724  0.2703 -0.2151 -0.0004
  286loPI   C2A 4568   7.493  18.921   8.348  0.1663  0.4064  0.3498
  286loPI   C3A 4569   7.455  19.101   7.979 -0.0708 -0.1193 -0.2343
  286loPI   C4A 4570   7.589  19.055   7.597  0.1058 -0.2305  0.1009
  286loPI   C5A 4571   7.584  18.905   7.209 -0.1667 -0.0393  0.0324
  286loPI   C6A 4572   7.359  18.532   7.080  0.3870  0.2502  0.3977
  286loPI   C1B 4573   6.956  18.830   8.391  0.0185 -0.0173  0.2878
  286loPI   C2B 4574   6.935  18.672   8.017 -0.0660  0.1374  0.0148
  286loPI   C3B 4575   7.160  18.766   7.614  0.3599 -0.0438 -0.1160
  286loPI   C4B 4576   7.039  18.965   7.297  0.1871 -0.1110  0.1120
  287loPI    C1 4577   7.588  10.007   9.554 -0.2209  0.0935 -0.1014
  287loPI    C2 4578   7.660  10.400   9.582 -0.1200  0.0728 -0.0651
  287loPI    C3 4579   7.339  10.242   9.761  0.0261  0.0847  0.2126
  287loPI   PO4 4580   7.625   9.878   9.258  0.1100  0.1028  0.1320
  287loPI   GL1 4581   7.793  10.075   8.847 -0.0358  0.3181  0.5080
  287loPI   GL2 4582   7.530  10.209   8.746 -0.0888  0.1904  0.0768
  287loPI   C1A 4583   7.966  10.340   8.574 -0.0145 -0.1631 -0.0730
  287loPI   C2A 4584   7.982  10.557   8.220  0.0339  0.2528  0.2022
  287loPI   C3A 4585   8.081  10.513   7.797 -0.0641 -0.0768  0.1606
  287loPI   C4A 4586   8.211  10.485   7.360  0.4534  0.0544 -0.2929
  287loPI   C5A 4587   8.347  10.334   6.958  0.1387 -0.1947 -0.0386
  287loPI   C6A 4588   8.764  10.096   6.686  0.2410 -0.1983 -0.1294
  287loPI   C1B 4589   7.586  10.189   8.329 -0.1487 -0.1929 -0.0471
  287loPI   C2B 4590   7.801  10.143   7.961  0.0570 -0.1150  0.0311
  287loPI   C3B 4591   7.966   9.937   7.642 -0.0065  0.0188  0.0856
  287loPI   C4B 4592   8.023   9.944   7.211 -0.0367  0.3516 -0.0856
  288loPI    C1 4593  16.645  15.411   9.533  0.0382  0.0171 -0.1405
  288loPI    C2 4594  16.649  15.088   9.297  0.1083 -0.0211 -0.0877
  288loPI    C3 4595  16.608  15.046   9.693  0.1056  0.0355 -0.0819
  288loPI   PO4 4596  16.542  15.584   9.372  0.0691  0.1145  0.2101
  288loPI   GL1 4597  16.869  15.637   9.056  0.0140  0.1277  0.1255
  288loPI   GL2 4598  16.551  15.828   8.960 -0.0418  0.0794 -0.3530
  288loPI   C1A 4599  16.704  15.433   8.670  0.0259 -0.1889 -0.0277
  288loPI   C2A 4600  16.704  15.495   8.267  0.0760 -0.2255 -0.0985
  288loPI   C3A 4601  16.726  15.348   7.768  0.1691 -0.1098  0.0067
  288loPI   C4A 4602  16.787  15.381   7.339  0.1699  0.0048 -0.0680
  288loPI   C5A 4603  16.995  15.274   6.995  0.1044 -0.2210 -0.1603
  288loPI   C6A 4604  17.088  15.506   6.571 -0.0866  0.0811 -0.0419
  288loPI   C1B 4605  16.236  15.869   8.643  0.0014  0.1918 -0.2548
  288loPI   C2B 4606  16.013  15.831   8.267  0.1774  0.0210  0.1027
  288loPI   C3B 4607  15.952  15.740   7.858 -0.0349  0.0782  0.3159
  288loPI   C4B 4608  16.013  15.934   7.508 -0.1340  0.0682 -0.2162
  289loPI    C1 4609   1.577  16.999   9.727 -0.0533  0.0652 -0.2679
  289loPI    C2 4610   1.770  16.869  10.053 -0.3803 -0.1787 -0.1669
  289loPI    C3 4611   1.709  17.261  10.000 -0.1213 -0.1210 -0.0531
  289loPI   PO4 4612   1.652  16.869   9.486  0.2576 -0.4062  0.0549
  289loPI   GL1 4613   1.675  16.708   9.107  0.2284  0.0281 -0.0263
  289loPI   GL2 4614   1.336  16.723   9.102 -0.2271  0.2535 -0.1408
  289loPI   C1A 4615   1.930  16.483   8.738 -0.4638 -0.2295 -0.0819
  289loPI   C2A 4616   2.012  16.183   8.411 -0.0706  0.2462  0.1915
  289loPI   C3A 4617   2.160  15.940   8.057 -0.1291  0.0695 -0.1635
  289loPI   C4A 4618   1.922  15.826   7.636  0.0486  0.0168 -0.2222
  289loPI   C5A 4619   1.667  15.584   7.429  0.0832 -0.0875  0.0960
  289loPI   C6A 4620   1.232  15.397   7.436 -0.1898 -0.1323 -0.4914
  289loPI   C1B 4621   1.419  16.614   8.683 -0.1520  0.0630  0.0315
  289loPI   C2B 4622   1.401  16.551   8.266  0.3925 -0.2114  0.1582
  289loPI   C3B 4623   1.706  16.390   8.063  0.0468 -0.0032 -0.3460
  289loPI   C4B 4624   1.936  16.323   7.779 -0.0938  0.2142 -0.2289
  290loPI    C1 4625   4.994  10.495  10.121 -0.2640  0.0655 -0.1363
  290loPI    C2 4626   5.127  10.259  10.415 -0.0417  0.2828 -0.0584
  290loPI    C3 4627   4.747  10.384  10.415 -0.2109 -0.2075 -0.1916
  290loPI   PO4 4628   5.143  10.481   9.889  0.1185 -0.2063 -0.2756
  290loPI   GL1 4629   5.006  10.738   9.520 -0.1464  0.1291 -0.2549
  290loPI   GL2 4630   4.677  10.679   9.630  0.2200  0.2945 -0.3351
  290loPI   C1A 4631   4.851  10.984   9.207 -0.0267 -0.1561  0.1287
  290loPI   C2A 4632   4.779  11.017   8.830 -0.0632 -0.1219 -0.3435
  290loPI   C3A 4633   4.609  10.895   8.437 -0.1693 -0.1920  0.1543
  290loPI   C4A 4634   4.398  10.923   8.140  0.1881  0.0669 -0.0062
  290loPI   C5A 4635   4.519  10.839   7.735  0.3868 -0.3639 -0.0189
  290loPI   C6A 4636   4.244  10.554   7.526  0.0790  0.0872 -0.2075
  290loPI   C1B 4637   4.481  10.738   9.285 -0.3159 -0.2173 -0.2393
  290loPI   C2B 4638   4.453  10.636   8.791 -0.0857  0.1426 -0.0919
  290loPI   C3B 4639   4.347  10.496   8.445  0.0867 -0.0267 -0.0548
  290loPI   C4B 4640   4.211  10.447   8.024 -0.0164  0.1686 -0.0157
  291loPI    C1 4641   9.001   1.175   9.804 -0.0619 -0.0846  0.0597
  291loPI    C2 4642   9.106   0.834   9.984 -0.1051 -0.0209  0.2064
  291loPI    C3 4643   8.782   1.033  10.107 -0.1421  0.0166  0.0496
  291loPI   PO4 4644   8.929   1.080   9.581  0.1086  0.3515 -0.0330
  291loPI   GL1 4645   9.032   0.742   9.279 -0.0931 -0.2106 -0.1749
  291loPI   GL2 4646   9.445   0.691   9.150  0.1871  0.1962 -0.1866
  291loPI   C1A 4647   9.012   0.863   8.890 -0.1346 -0.0579 -0.1195
  291loPI   C2A 4648   8.878   0.995   8.458 -0.2204  0.1303  0.2107
  291loPI   C3A 4649   8.994   0.754   8.028  0.0366 -0.0225 -0.2800
  291loPI   C4A 4650   9.090   0.791   7.619 -0.1453 -0.0358 -0.0858
  291loPI   C5A 4651   9.383   0.779   7.272 -0.0061 -0.0873 -0.3923
  291loPI   C6A 4652   9.699   0.995   7.104  0.1717  0.2417  0.0482
  291loPI   C1B 4653   9.527   0.747   8.747  0.0203 -0.1967 -0.0052
  291loPI   C2B 4654   9.399   0.823   8.363 -0.0499 -0.2218 -0.0082
  291loPI   C3B 4655   9.408   1.032   7.953 -0.2302 -0.0127  0.0598
  291loPI   C4B 4656   9.618   1.121   7.593  0.2974 -0.2476 -0.2217
  292loPI    C1 4657   7.599   8.449   9.860  0.1586 -0.1749  0.2301
  292loPI    C2 4658   7.975   8.533   9.753  0.0104 -0.1427 -0.2950
  292loPI    C3 4659   7.829   8.672  10.099  0.4574 -0.1044 -0.1148
  292loPI   PO4 4660   7.499   8.505   9.614  0.0575 -0.1462 -0.0610
  292loPI   GL1 4661   7.529   8.688   9.258 -0.0889  0.2227 -0.0446
  292loPI   GL2 4662   7.397   8.424   9.034 -0.0323 -0.2059 -0.1788
  292loPI   C1A 4663   7.863   8.593   8.990  0.2542 -0.0665 -0.1438
  292loPI   C2A 4664   8.055   8.628   8.568 -0.0697 -0.0934 -0.0208
  292loPI   C3A 4665   7.804   8.710   8.117  0.1035  0.0619  0.0212
  292loPI   C4A 4666   7.668   8.527   7.734 -0.0342 -0.0705 -0.3963
  292loPI   C5A 4667   7.722   8.355   7.433 -0.4251 -0.2557 -0.2648
  292loPI   C6A 4668   7.922   8.344   7.030 -0.0025 -0.1329  0.1273
  292loPI   C1B 4669   7.489   8.124   8.721 -0.0619  0.1475  0.1051
  292loPI   C2B 4670   7.826   7.888   8.465  0.1472  0.2026  0.0351
  292loPI   C3B 4671   8.098   7.931   8.253  0.2822  0.3401  0.0224
  292loPI   C4B 4672   8.189   7.748   7.880  0.1740 -0.1337 -0.1114
  293loPI    C1 4673   2.644  16.486   9.965  0.1010 -0.0981 -0.2380
  293loPI    C2 4674   2.280  16.362  10.076  0.0821  0.2321  0.0896
  293loPI    C3 4675   2.588  16.106  10.073 -0.1125 -0.0042 -0.0094
  293loPI   PO4 4676   2.562  16.462   9.677 -0.0464  0.1851  0.0089
  293loPI   GL1 4677   2.585  16.456   9.218  0.2312  0.0707  0.0868
  293loPI   GL2 4678   2.854  16.410   9.074 -0.0876 -0.1474  0.0070
  293loPI   C1A 4679   2.381  16.327   8.850  0.3053  0.1009  0.2203
  293loPI   C2A 4680   2.432  16.406   8.342  0.0655 -0.1529 -0.2462
  293loPI   C3A 4681   2.438  16.313   7.919 -0.0920 -0.3182 -0.4259
  293loPI   C4A 4682   2.452  16.207   7.588  0.2109  0.1881  0.1711
  293loPI   C5A 4683   2.270  16.329   7.176  0.1430  0.0660  0.2101
  293loPI   C6A 4684   1.936  16.403   6.930 -0.0279  0.0244  0.1436
  293loPI   C1B 4685   2.790  16.663   8.773 -0.0613 -0.1574  0.2142
  293loPI   C2B 4686   2.807  16.752   8.351 -0.2689 -0.1479 -0.1193
  293loPI   C3B 4687   2.751  16.762   7.908 -0.1452  0.0327  0.0548
  293loPI   C4B 4688   2.749  16.597   7.462  0.1076 -0.1221  0.0548
  294loPI    C1 4689   6.434  15.069   9.600 -0.2653 -0.0100  0.2065
  294loPI    C2 4690   6.114  15.297   9.525 -0.1345  0.0024 -0.3582
  294loPI    C3 4691   6.482  15.443   9.467 -0.0219 -0.0467  0.1863
  294loPI   PO4 4692   6.408  14.803   9.379  0.0362  0.0326 -0.1621
  294loPI   GL1 4693   6.684  14.656   9.119  0.0330  0.4940 -0.0668
  294loPI   GL2 4694   6.482  14.786   8.868  0.2003 -0.0280 -0.0649
  294loPI   C1A 4695   6.952  14.789   8.759 -0.1302 -0.1262 -0.2345
  294loPI   C2A 4696   7.037  14.702   8.338 -0.0817 -0.2138 -0.3177
  294loPI   C3A 4697   6.968  14.481   8.037  0.2710 -0.1339 -0.0605
  294loPI   C4A 4698   6.986  14.259   7.684 -0.1797 -0.2379  0.0696
  294loPI   C5A 4699   6.758  14.365   7.390 -0.1390  0.0543 -0.0294
  294loPI   C6A 4700   6.715  14.697   7.204  0.1572  0.2517  0.2037
  294loPI   C1B 4701   6.183  14.749   8.547  0.0680  0.0590 -0.2835
  294loPI   C2B 4702   6.132  14.679   8.160 -0.1513  0.1303 -0.1811
  294loPI   C3B 4703   6.526  14.571   7.824  0.1128 -0.1423  0.3751
  294loPI   C4B 4704   6.869  14.813   7.654 -0.3662  0.2306  0.2147
  295loPI    C1 4705  15.014   7.405   9.976 -0.0082  0.1419  0.0959
  295loPI    C2 4706  14.923   7.738  10.179  0.0700  0.1286  0.1533
  295loPI    C3 4707  14.860   7.379  10.344  0.0735  0.1167  0.1287
  295loPI   PO4 4708  14.826   7.449   9.699 -0.1288  0.1156  0.2534
  295loPI   GL1 4709  14.841   7.475   9.227  0.1891  0.2780 -0.0564
  295loPI   GL2 4710  14.887   7.207   8.988 -0.0952 -0.1834 -0.1282
  295loPI   C1A 4711  14.790   7.693   8.851 -0.1071  0.0915  0.3392
  295loPI   C2A 4712  14.738   7.760   8.426  0.0459  0.1402 -0.1023
  295loPI   C3A 4713  14.769   7.814   8.039  0.0128  0.1219 -0.2923
  295loPI   C4A 4714  14.719   7.645   7.591 -0.0092 -0.0312  0.1082
  295loPI   C5A 4715  14.726   7.732   7.229 -0.0662  0.2749 -0.0471
  295loPI   C6A 4716  14.644   7.936   6.950 -0.1285 -0.0831 -0.0348
  295loPI   C1B 4717  14.967   7.245   8.551  0.1368  0.2410 -0.1648
  295loPI   C2B 4718  15.044   7.452   8.225  0.1273 -0.0941 -0.0705
  295loPI   C3B 4719  15.247   7.518   7.873 -0.0772 -0.1605  0.0859
  295loPI   C4B 4720  15.262   7.870   7.717  0.2838  0.0072  0.0640
  296loPI    C1 4721  12.361  18.530   9.773 -0.0131 -0.0363  0.0279
  296loPI    C2 4722  12.496  18.574  10.147 -0.2850 -0.1349  0.1402
  296loPI    C3 4723  12.108  18.628  10.066 -0.1774  0.1912 -0.1858
  296loPI   PO4 4724  12.384  18.242   9.608  0.2699  0.0852 -0.0272
  296loPI   GL1 4725  12.448  18.262   9.209  0.0262 -0.1923  0.0745
  296loPI   GL2 4726  12.396  18.393   8.887 -0.2187 -0.2011 -0.0910
  296loPI   C1A 4727  12.864  18.464   8.928  0.1057 -0.3206 -0.1921
  296loPI   C2A 4728  13.061  18.416   8.525  0.2846 -0.1430 -0.0020
  296loPI   C3A 4729  13.036  18.747   7.996 -0.2440 -0.1960  0.0917
  296loPI   C4A 4730  12.726  18.899   7.896  0.3465 -0.2401  0.3822
  296loPI   C5A 4731  12.438  18.702   7.642 -0.1060  0.2894 -0.3179
  296loPI   C6A 4732  12.143  18.764   7.291 -0.2226 -0.2423 -0.2683
  296loPI   C1B 4733  12.248  18.320   8.473 -0.0926 -0.0638  0.2802
  296loPI   C2B 4734  12.277  18.330   8.032  0.3602 -0.1124  0.0961
  296loPI   C3B 4735  12.165  18.249   7.648  0.0592  0.2155  0.2704
  296loPI   C4B 4736  12.113  18.171   7.321  0.1643  0.0721  0.1350
  297loPI    C1 4737   2.081   0.628   9.771 -0.0913  0.1035 -0.0255
  297loPI    C2 4738   1.697   0.626   9.661 -0.0476 -0.0016 -0.1795
  297loPI    C3 4739   1.845   0.321   9.873 -0.0058 -0.0478 -0.2746
  297loPI   PO4 4740   2.242   0.722   9.512  0.2819  0.0333 -0.0621
  297loPI   GL1 4741   2.276   0.809   9.166 -0.2898  0.2592  0.0303
  297loPI   GL2 4742   2.560   0.820   9.005 -0.2151 -0.1668  0.2086
  297loPI   C1A 4743   1.963   0.948   8.847  0.0041 -0.1133 -0.0160
  297loPI   C2A 4744   2.054   0.942   8.448 -0.1091  0.1909  0.4262
  297loPI   C3A 4745   2.334   0.934   8.109  0.0099 -0.2282  0.1392
  297loPI   C4A 4746   2.294   0.613   7.800 -0.0455 -0.0317 -0.2110
  297loPI   C5A 4747   2.542   0.349   7.498 -0.1583  0.0174 -0.4344
  297loPI   C6A 4748   2.754   0.380   7.143 -0.1563 -0.1562 -0.2476
  297loPI   C1B 4749   2.561   0.880   8.555  0.4362  0.0392 -0.1199
  297loPI   C2B 4750   2.961   0.735   8.337  0.1582  0.1344 -0.0137
  297loPI   C3B 4751   3.232   0.673   8.045 -0.2735 -0.4873  0.1222
  297loPI   C4B 4752   3.547   0.682   7.745  0.2153  0.1149 -0.4462
  298loPI    C1 4753  17.520   2.377   9.336 -0.1093  0.0039  0.2427
  298loPI    C2 4754  17.665   2.022   9.451 -0.1337 -0.0340  0.1569
  298loPI    C3 4755  17.614   2.314   9.720 -0.2762 -0.1516  0.2592
  298loPI   PO4 4756  17.240   2.189   9.233 -0.2087 -0.0740  0.3700
  298loPI   GL1 4757  17.289   1.870   8.962 -0.1689 -0.1352  0.0901
  298loPI   GL2 4758  17.010   1.965   8.757 -0.1696 -0.0285 -0.1234
  298loPI   C1A 4759  17.429   1.821   8.484  0.0947 -0.1352 -0.1097
  298loPI   C2A 4760  17.657   1.640   8.041  0.1739 -0.0748 -0.1807
  298loPI   C3A 4761  17.748   1.590   7.660 -0.1637 -0.2846  0.1524
  298loPI   C4A 4762  17.601   1.820   7.239 -0.2732  0.2452 -0.0531
  298loPI   C5A 4763  17.459   2.162   6.961  0.1753  0.1225  0.4332
  298loPI   C6A 4764  17.328   2.636   7.020 -0.1135  0.3045 -0.1225
  298loPI   C1B 4765  16.993   2.132   8.433  0.1880  0.5445  0.0582
  298loPI   C2B 4766  17.038   2.330   8.071 -0.4300  0.0063  0.2063
  298loPI   C3B 4767  16.846   2.712   7.795  0.4281 -0.1061  0.0905
  298loPI   C4B 4768  16.635   3.157   7.708 -0.2967 -0.5235  0.2052
  299loPI    C1 4769  16.873   3.953   9.684 -0.1330  0.1663  0.0282
  299loPI    C2 4770  16.587   3.692   9.783  0.1469 -0.1350  0.0611
  299loPI    C3 4771  16.779   3.895  10.069  0.0676 -0.0416  0.0486
  299loPI   PO4 4772  16.719   4.102   9.462 -0.0814  0.2057 -0.1891
  299loPI   GL1 4773  16.664   4.166   9.040 -0.4615  0.5621 -0.0688
  299loPI   GL2 4774  16.518   3.775   8.929 -0.0928 -0.3860 -0.1131
  299loPI   C1A 4775  16.620   4.271   8.608  0.1092  0.2465 -0.1283
  299loPI   C2A 4776  16.276   4.447   8.354 -0.1272  0.2157 -0.2451
  299loPI   C3A 4777  16.154   4.437   7.993 -0.1817  0.2066 -0.1005
  299loPI   C4A 4778  16.415   4.480   7.647 -0.0974 -0.2228 -0.2413
  299loPI   C5A 4779  16.425   4.547   7.243  0.1941  0.0164 -0.1253
  299loPI   C6A 4780  16.633   4.626   6.845 -0.1030 -0.0361  0.2770
  299loPI   C1B 4781  16.328   3.897   8.479  0.1937 -0.0598 -0.0693
  299loPI   C2B 4782  16.457   4.002   8.012 -0.0038 -0.2418  0.6218
  299loPI   C3B 4783  16.624   4.010   7.515  0.1469 -0.1609  0.2711
  299loPI   C4B 4784  16.390   3.799   7.096 -0.1235  0.4212  0.2473
  300loPI    C1 4785  16.779  13.437   9.475 -0.0580  0.1370  0.1648
  300loPI    C2 4786  16.597  13.164   9.704 -0.0072  0.2202  0.3055
  300loPI    C3 4787  16.529  13.554   9.765  0.1751  0.2501  0.3231
  300loPI   PO4 4788  17.085  13.436   9.516 -0.1302  0.0641 -0.1133
  300loPI   GL1 4789  17.386  13.490   9.164 -0.0705  0.1420  0.3417
  300loPI   GL2 4790  17.568  13.461   8.816  0.1518  0.0522  0.3670
  300loPI   C1A 4791  17.071  13.586   8.845  0.3817 -0.0173  0.1146
  300loPI   C2A 4792  17.154  13.711   8.498  0.0021  0.2118  0.0873
  300loPI   C3A 4793  17.398  13.810   8.142 -0.3111 -0.0701  0.0734
  300loPI   C4A 4794  17.184  13.846   7.833 -0.0490 -0.3260 -0.1915
  300loPI   C5A 4795  17.094  13.641   7.368 -0.1584  0.0931 -0.2883
  300loPI   C6A 4796  17.167  13.186   7.210  0.0781 -0.0883 -0.0927
  300loPI   C1B 4797  17.733  13.332   8.449  0.4366  0.1102 -0.1057
  300loPI   C2B 4798  17.779  13.458   7.942 -0.1524  0.1362  0.0016
  300loPI   C3B 4799  17.882  13.203   7.552  0.2203 -0.0981 -0.0329
  300loPI   C4B 4800  17.936  13.153   7.083  0.1584  0.0883 -0.1020
  301loPI    C1 4801  13.682  15.262   9.536 -0.0148  0.0732 -0.1528
  301loPI    C2 4802  13.769  15.202   9.922  0.0343 -0.3214 -0.2204
  301loPI    C3 4803  13.592  15.542   9.806  0.2086 -0.1106  0.1176
  301loPI   PO4 4804  13.993  15.141   9.418  0.0053 -0.1350  0.0911
  301loPI   GL1 4805  14.178  15.238   8.976 -0.1646 -0.1642  0.0187
  301loPI   GL2 4806  14.408  14.952   8.843  0.1037 -0.1286  0.1679
  301loPI   C1A 4807  13.789  15.021   8.626  0.1147  0.1122 -0.0289
  301loPI   C2A 4808  13.490  15.039   8.216 -0.1559 -0.0848  0.1338
  301loPI   C3A 4809  13.587  14.999   7.795  0.4358 -0.1218  0.2250
  301loPI   C4A 4810  13.781  15.032   7.444  0.0022 -0.0670  0.0098
  301loPI   C5A 4811  14.109  15.054   7.195  0.3480  0.0274  0.0777
  301loPI   C6A 4812  14.364  15.255   7.026  0.0680 -0.2587  0.0678
  301loPI   C1B 4813  14.469  15.016   8.415  0.1004  0.0336  0.0359
  301loPI   C2B 4814  14.458  15.254   8.145 -0.3315 -0.0728  0.5134
  301loPI   C3B 4815  14.243  15.667   7.989 -0.1404 -0.3425  0.1867
  301loPI   C4B 4816  14.126  15.921   7.588 -0.0732 -0.0069  0.0034
  302loPI    C1 4817   4.362  16.580   9.573  0.0331 -0.0071 -0.1737
  302loPI    C2 4818   4.256  16.246   9.767  0.1723 -0.0035 -0.0907
  302loPI    C3 4819   4.007  16.559   9.757  0.0435 -0.1071 -0.1644
  302loPI   PO4 4820   4.537  16.497   9.382 -0.1039 -0.1234 -0.0144
  302loPI   GL1 4821   4.513  16.683   9.001  0.0849  0.0078 -0.2485
  302loPI   GL2 4822   4.599  16.913   8.717 -0.0179 -0.0446 -0.1224
  302loPI   C1A 4823   4.379  16.476   8.556 -0.2530  0.1280 -0.2172
  302loPI   C2A 4824   4.326  16.589   8.090 -0.2979  0.1201 -0.2787
  302loPI   C3A 4825   4.186  16.529   7.759 -0.2103 -0.0125 -0.3972
  302loPI   C4A 4826   4.350  16.424   7.364 -0.2511 -0.4532  0.1049
  302loPI   C5A 4827   4.292  16.355   6.858  0.0305 -0.1420 -0.0688
  302loPI   C6A 4828   4.512  16.555   6.619 -0.0649 -0.0089 -0.0450
  302loPI   C1B 4829   4.623  16.891   8.272  0.4303 -0.2798 -0.1027
  302loPI   C2B 4830   4.625  16.751   7.768 -0.0449 -0.1811 -0.2722
  302loPI   C3B 4831   4.827  16.608   7.382 -0.2961 -0.3427  0.1709
  302loPI   C4B 4832   5.000  16.666   7.070 -0.3609  0.3060 -0.2775
  303loPI    C1 4833   9.569   2.661   9.487 -0.0437 -0.2269  0.1922
  303loPI    C2 4834   9.499   2.936   9.770 -0.0424 -0.2340  0.1995
  303loPI    C3 4835   9.860   2.764   9.742  0.1457  0.2011 -0.1837
  303loPI   PO4 4836   9.424   2.799   9.191  0.1508  0.0279  0.2870
  303loPI   GL1 4837   9.392   3.127   8.922 -0.1242  0.4246 -0.0769
  303loPI   GL2 4838   9.773   3.246   8.872 -0.1734 -0.0803  0.0498
  303loPI   C1A 4839   9.509   3.067   8.508 -0.2978  0.0992  0.0458
  303loPI   C2A 4840   9.394   2.971   8.080  0.1596 -0.0779  0.2843
  303loPI   C3A 4841   9.405   2.935   7.676 -0.2374  0.0283  0.0016
  303loPI   C4A 4842   9.157   2.763   7.346 -0.0882  0.0121 -0.1915
  303loPI   C5A 4843   8.969   2.430   7.085 -0.0869 -0.2218 -0.0107
  303loPI   C6A 4844   8.711   2.665   6.702 -0.0486  0.1650 -0.1463
  303loPI   C1B 4845   9.872   3.605   8.568 -0.0509 -0.0264  0.0302
  303loPI   C2B 4846  10.025   3.587   8.169  0.1864 -0.0334  0.4037
  303loPI   C3B 4847  10.029   3.675   7.778 -0.2743  0.0004  0.0785
  303loPI   C4B 4848  10.109   3.964   7.445 -0.3144  0.1392 -0.1127
  304loPI    C1 4849   7.390  11.274   9.192  0.0377 -0.0265  0.0969
  304loPI    C2 4850   7.549  11.613   9.332  0.3224 -0.1102 -0.0180
  304loPI    C3 4851   7.412  11.336   9.587 -0.2369  0.2369  0.0742
  304loPI   PO4 4852   7.544  11.227   9.057  0.0339  0.1600 -0.1365
  304loPI   GL1 4853   7.653  11.267   8.600  0.0315  0.2043 -0.4057
  304loPI   GL2 4854   7.972  11.365   8.712 -0.1095 -0.0702 -0.1030
  304loPI   C1A 4855   7.839  11.027   8.241  0.1574  0.0659 -0.5102
  304loPI   C2A 4856   7.834  10.944   7.809  0.0135  0.1755  0.0541
  304loPI   C3A 4857   7.896  10.869   7.393  0.0895 -0.1033  0.0687
  304loPI   C4A 4858   7.883  10.962   7.014 -0.0288 -0.2810  0.0382
  304loPI   C5A 4859   8.190  10.834   6.717 -0.1402 -0.0633 -0.1364
  304loPI   C6A 4860   8.503  10.679   6.499  0.1965 -0.1247  0.0046
  304loPI   C1B 4861   8.070  11.413   8.351  0.0798 -0.3053 -0.0282
  304loPI   C2B 4862   8.082  11.435   7.900 -0.3921  0.2353  0.0353
  304loPI   C3B 4863   8.169  11.340   7.432  0.0005 -0.0089  0.2125
  304loPI   C4B 4864   8.180  11.388   6.978  0.0075 -0.2538 -0.0035
  305loPI    C1 4865   6.480  17.026   9.551  0.1068  0.0448 -0.0900
  305loPI    C2 4866   6.809  16.798   9.548  0.0848  0.0127 -0.0684
  305loPI    C3 4867   6.837  17.189   9.627  0.1083 -0.0052  0.0133
  305loPI   PO4 4868   6.332  16.971   9.367 -0.0912 -0.3930 -0.0604
  305loPI   GL1 4869   6.172  17.130   8.849  0.0536  0.0569  0.0262
  305loPI   GL2 4870   6.159  17.543   8.761  0.3334  0.2304 -0.1207
  305loPI   C1A 4871   6.518  17.015   8.688  0.1731 -0.0971 -0.1118
  305loPI   C2A 4872   6.581  16.990   8.299  0.0988 -0.1014 -0.1777
  305loPI   C3A 4873   6.779  17.205   8.016  0.0241 -0.0371  0.0621
  305loPI   C4A 4874   6.910  17.185   7.549 -0.1514  0.1278 -0.0511
  305loPI   C5A 4875   7.104  16.887   7.272 -0.3009  0.1965 -0.0982
  305loPI   C6A 4876   7.011  16.589   6.904  0.1162  0.1344  0.6097
  305loPI   C1B 4877   5.902  17.398   8.365  0.0227  0.3289 -0.0057
  305loPI   C2B 4878   5.872  17.495   7.888 -0.0897 -0.1850 -0.0478
  305loPI   C3B 4879   5.998  17.353   7.487  0.2358  0.1060  0.1400
  305loPI   C4B 4880   5.872  17.004   7.392 -0.0289 -0.0457  0.7039
  306loPI    C1 4881  16.328   7.850  10.339 -0.2045 -0.0880 -0.1895
  306loPI    C2 4882  16.448   8.196  10.179 -0.0445 -0.0629 -0.0184
  306loPI    C3 4883  16.162   8.193  10.459 -0.1339 -0.0814 -0.1096
  306loPI   PO4 4884  16.401   7.651  10.073  0.1053  0.3267 -0.1242
  306loPI   GL1 4885  16.332   7.532   9.631 -0.1129 -0.0747 -0.1372
  306loPI   GL2 4886  16.516   7.255   9.751 -0.1194  0.0195  0.1635
  306loPI   C1A 4887  16.229   7.811   9.294 -0.0831  0.1010  0.0086
  306loPI   C2A 4888  16.439   7.899   8.976  0.1783 -0.0176 -0.0690
  306loPI   C3A 4889  16.396   7.937   8.561  0.1354 -0.0123  0.0843
  306loPI   C4A 4890  16.468   7.852   8.031  0.0340  0.1581  0.0819
  306loPI   C5A 4891  16.473   7.853   7.628  0.1619  0.0277  0.0981
  306loPI   C6A 4892  16.740   7.512   7.332 -0.3761 -0.1089  0.1322
  306loPI   C1B 4893  16.471   7.289   9.233 -0.0166 -0.1050  0.1083
  306loPI   C2B 4894  16.548   7.406   8.794 -0.0183 -0.0627 -0.2800
  306loPI   C3B 4895  16.563   7.480   8.336  0.1272 -0.2074  0.0166
  306loPI   C4B 4896  16.806   7.538   7.903 -0.2276  0.0021  0.0539
  307loPI    C1 4897   9.853  15.702   9.469  0.0643  0.0649  0.0295
  307loPI    C2 4898   9.885  15.521   9.824 -0.0184 -0.0414 -0.0167
  307loPI    C3 4899   9.811  15.305   9.496  0.2052  0.0388 -0.1219
  307loPI   PO4 4900   9.670  15.915   9.549  0.1895 -0.1727 -0.0025
  307loPI   GL1 4901   9.358  16.005   9.195 -0.2157 -0.1321  0.2133
  307loPI   GL2 4902   9.384  15.762   9.070  0.0615  0.2187 -0.0241
  307loPI   C1A 4903   9.138  16.144   8.767 -0.0022 -0.1113 -0.0222
  307loPI   C2A 4904   9.196  16.147   8.336 -0.0131 -0.1297 -0.1344
  307loPI   C3A 4905   9.500  16.140   7.940 -0.2793  0.1314 -0.1575
  307loPI   C4A 4906   9.884  16.155   7.658  0.1284 -0.0922 -0.1374
  307loPI   C5A 4907   9.919  15.908   7.329  0.1255  0.1924  0.0521
  307loPI   C6A 4908  10.088  15.864   6.916  0.2775 -0.2116  0.3184
  307loPI   C1B 4909   9.470  15.716   8.577  0.1865  0.0813  0.0973
  307loPI   C2B 4910   9.647  15.623   8.273 -0.1273 -0.0140  0.1542
  307loPI   C3B 4911   9.766  15.548   7.812  0.1358 -0.3189 -0.4419
  307loPI   C4B 4912   9.458  15.783   7.569 -0.0634  0.0787  0.2596
  308loPI    C1 4913  19.334  19.111   9.516  0.1127  0.1292  0.0405
  308loPI    C2 4914  19.358  19.479   9.670  0.2753  0.0454  0.2189
  308loPI    C3 4915  19.227  19.177   9.896  0.0108  0.0170  0.0320
  308loPI   PO4 4916  19.482  19.174   9.288 -0.2035 -0.4225 -0.1999
  308loPI   GL1 4917  19.711  19.217   8.925 -0.1165  0.1596 -0.0005
  308loPI   GL2 4918  20.022  19.099   9.025  0.1225  0.1077 -0.0272
  308loPI   C1A 4919  19.739  19.231   8.545  0.0715 -0.1377  0.0341
  308loPI   C2A 4920  19.699  19.185   8.110 -0.0211 -0.1630  0.1811
  308loPI   C3A 4921  19.836  19.005   7.648  0.0404  0.0573 -0.0289
  308loPI   C4A 4922  19.872  19.189   7.284  0.2836  0.3004  0.0316
  308loPI   C5A 4923  19.754  18.867   6.998 -0.0165 -0.0151  0.2066
  308loPI   C6A 4924  19.943  18.523   6.937 -0.0662  0.2100  0.3142
  308loPI   C1B 4925  20.049  18.867   8.642  0.2890 -0.1895  0.0755
  308loPI   C2B 4926  19.993  18.776   8.256  0.2613 -0.0423 -0.1216
  308loPI   C3B 4927  20.168  18.643   7.864  0.2029  0.1232  0.0154
  308loPI   C4B 4928  20.210  18.719   7.307  0.0795  0.0588  0.1212
  309loPI    C1 4929  14.517   6.331   9.516  0.2005 -0.1172  0.0344
  309loPI    C2 4930  14.457   6.457   9.890 -0.2162 -0.0642 -0.0455
  309loPI    C3 4931  14.513   6.068   9.817  0.0598 -0.0522  0.0902
  309loPI   PO4 4932  14.456   6.594   9.415 -0.0197 -0.3525  0.1575
  309loPI   GL1 4933  14.503   6.690   9.037  0.1760 -0.0108 -0.1864
  309loPI   GL2 4934  14.466   7.023   9.031 -0.0811 -0.1971  0.1003
  309loPI   C1A 4935  14.133   6.739   8.707 -0.1591 -0.0608  0.0564
  309loPI   C2A 4936  14.205   6.838   8.308  0.1443  0.0020 -0.0535
  309loPI   C3A 4937  14.099   7.051   7.970  0.2881 -0.0679 -0.1622
  309loPI   C4A 4938  13.802   7.150   7.700 -0.1795  0.0219 -0.0194
  309loPI   C5A 4939  13.525   7.128   7.331  0.3511 -0.1358  0.1817
  309loPI   C6A 4940  13.052   7.050   7.436 -0.0878 -0.0241  0.1972
  309loPI   C1B 4941  14.587   6.917   8.544 -0.5449  0.1511 -0.0128
  309loPI   C2B 4942  14.629   6.981   8.078 -0.1697 -0.2406  0.1067
  309loPI   C3B 4943  14.603   6.805   7.690 -0.2241 -0.0315  0.1420
  309loPI   C4B 4944  14.481   6.828   7.267 -0.0291  0.0939  0.1142
  310loPI    C1 4945  16.212  12.948   9.308  0.1381  0.1406  0.1370
  310loPI    C2 4946  16.332  12.760   9.641  0.0749  0.0634  0.1164
  310loPI    C3 4947  15.997  12.645   9.455  0.2222 -0.0333 -0.0929
  310loPI   PO4 4948  16.440  13.004   9.224  0.0627 -0.2182  0.2126
  310loPI   GL1 4949  16.718  13.279   9.006 -0.2557 -0.2945 -0.1087
  310loPI   GL2 4950  16.953  13.118   8.915 -0.0876 -0.0617 -0.0194
  310loPI   C1A 4951  16.586  13.466   8.787  0.2598  0.0029 -0.2256
  310loPI   C2A 4952  16.653  13.656   8.480  0.0572  0.0495  0.2637
  310loPI   C3A 4953  16.576  13.590   8.032  0.0036  0.1380  0.2652
  310loPI   C4A 4954  16.326  13.470   7.636 -0.1356 -0.1058 -0.1687
  310loPI   C5A 4955  16.020  13.214   7.478 -0.2804 -0.1530 -0.2515
  310loPI   C6A 4956  15.730  13.036   7.342  0.0641  0.0470 -0.2978
  310loPI   C1B 4957  16.728  13.006   8.432  0.1612 -0.3668 -0.1371
  310loPI   C2B 4958  17.077  12.905   8.079 -0.3408 -0.1522  0.0430
  310loPI   C3B 4959  17.484  12.903   8.116  0.0996  0.0251  0.0941
  310loPI   C4B 4960  17.751  12.827   8.534  0.2727  0.3445  0.0909
  311loPI    C1 4961  10.400  16.564   9.770  0.1034 -0.0848  0.0723
  311loPI    C2 4962  10.741  16.483   9.964  0.1187 -0.0953  0.0412
  311loPI    C3 4963  10.406  16.283  10.055  0.1224 -0.0894  0.0676
  311loPI   PO4 4964  10.423  16.404   9.460 -0.1941  0.1266 -0.1465
  311loPI   GL1 4965  10.187  16.399   9.141  0.0582 -0.0487 -0.0694
  311loPI   GL2 4966  10.025  16.118   9.244 -0.5406  0.2452  0.2830
  311loPI   C1A 4967   9.941  16.588   8.793  0.1737 -0.2862  0.0675
  311loPI   C2A 4968   9.800  16.758   8.543  0.1739 -0.2767  0.0064
  311loPI   C3A 4969   9.842  16.883   8.099  0.0543 -0.1331  0.0575
  311loPI   C4A 4970   9.650  17.020   7.760 -0.0206 -0.0692  0.2329
  311loPI   C5A 4971   9.706  17.223   7.327  0.2614 -0.0975 -0.0313
  311loPI   C6A 4972   9.361  17.162   7.086  0.0660  0.2603  0.2844
  311loPI   C1B 4973   9.876  16.114   8.856 -0.0298  0.0562 -0.1753
  311loPI   C2B 4974   9.713  16.188   8.440  0.1107 -0.1174  0.2015
  311loPI   C3B 4975   9.891  16.409   8.048 -0.0026  0.0341  0.0881
  311loPI   C4B 4976  10.155  16.593   7.669  0.4527  0.0637  0.1999
  312loPI    C1 4977  18.550   0.191   9.216 -0.0581  0.1262 -0.1897
  312loPI    C2 4978  18.356   0.474   9.421  0.3358  0.1278  0.1953
  312loPI    C3 4979  18.411   0.111   9.582 -0.0687 -0.1433 -0.2499
  312loPI   PO4 4980  18.817   0.298   9.100 -0.0930 -0.1355 -0.0099
  312loPI   GL1 4981  19.077   0.164   8.832 -0.0360  0.1368  0.0520
  312loPI   GL2 4982  19.224   0.458   8.887  0.0145  0.1253  0.0038
  312loPI   C1A 4983  19.053   0.204   8.451 -0.2515 -0.2634 -0.0947
  312loPI   C2A 4984  19.175   0.404   8.074  0.3332  0.0171  0.0967
  312loPI   C3A 4985  19.371   0.363   7.604  0.2275  0.0043 -0.4466
  312loPI   C4A 4986  19.604   0.441   7.234  0.2483 -0.0508  0.1645
  312loPI   C5A 4987  19.519   0.623   6.899 -0.0642  0.1594  0.1753
  312loPI   C6A 4988  19.891   0.849   7.005  0.0160  0.0959 -0.0283
  312loPI   C1B 4989  19.310   0.741   8.666  0.2588 -0.0298  0.3464
  312loPI   C2B 4990  19.357   0.811   8.286  0.2123  0.0452  0.1299
  312loPI   C3B 4991  19.527   0.797   7.866  0.2399 -0.2250  0.2872
  312loPI   C4B 4992  19.627   0.929   7.449 -0.0848 -0.2596 -0.2711
  313loPI    C1 4993  17.131  14.169   9.686  0.2042  0.0440  0.1933
  313loPI    C2 4994  16.845  13.898   9.755  0.0170  0.1380 -0.1857
  313loPI    C3 4995  16.866  14.228   9.981  0.1311 -0.0977  0.1565
  313loPI   PO4 4996  17.121  14.229   9.480 -0.2207 -0.1403 -0.4298
  313loPI   GL1 4997  17.261  14.294   9.052  0.1702  0.0071 -0.0316
  313loPI   GL2 4998  17.375  13.970   8.936 -0.0091 -0.2524 -0.0780
  313loPI   C1A 4999  17.458  14.645   8.796 -0.1555  0.2096  0.1673
  313loPI   C2A 5000  17.340  14.729   8.434 -0.2429  0.2892  0.0619
  313loPI   C3A 5001  17.440  14.799   8.023  0.2766 -0.2898  0.0243
  313loPI   C4A 5002  17.597  14.756   7.629 -0.0615 -0.4711 -0.1106
  313loPI   C5A 5003  17.516  14.970   7.172  0.1072 -0.0286 -0.0173
  313loPI   C6A 5004  17.866  15.133   6.943  0.1026  0.0226 -0.0045
  313loPI   C1B 5005  17.306  14.241   8.498  0.0472  0.4670  0.0138
  313loPI   C2B 5006  17.336  14.274   8.016 -0.0037  0.1271  0.2294
  313loPI   C3B 5007  17.361  14.254   7.529  0.1364  0.0228  0.2080
  313loPI   C4B 5008  17.229  14.511   7.182  0.0146  0.1438 -0.0112
  314loPI    C1 5009   5.188  12.425   9.987  0.0840  0.2770 -0.0717
  314loPI    C2 5010   5.426  12.268   9.707 -0.2004 -0.0795 -0.1211
  314loPI    C3 5011   5.398  12.093  10.066 -0.1018  0.1782  0.0147
  314loPI   PO4 5012   5.173  12.657   9.874 -0.0557  0.0976  0.0291
  314loPI   GL1 5013   5.095  12.554   9.445  0.0716 -0.1840  0.1852
  314loPI   GL2 5014   4.964  12.858   9.459  0.3396  0.0693  0.1550
  314loPI   C1A 5015   5.267  12.640   9.047  0.1481 -0.3679 -0.0345
  314loPI   C2A 5016   5.248  12.819   8.755 -0.1604 -0.1994  0.0818
  314loPI   C3A 5017   5.214  12.753   8.376 -0.0854  0.1769  0.2480
  314loPI   C4A 5018   5.251  12.491   7.990  0.1811 -0.0476 -0.1980
  314loPI   C5A 5019   5.105  12.486   7.490 -0.3935 -0.4092  0.1401
  314loPI   C6A 5020   5.289  12.722   7.105 -0.2244  0.0408  0.0250
  314loPI   C1B 5021   4.819  12.937   9.052 -0.3698 -0.0914  0.1860
  314loPI   C2B 5022   4.766  12.924   8.659  0.0564  0.0798 -0.1742
  314loPI   C3B 5023   4.719  13.027   8.201 -0.2608 -0.0876  0.0141
  314loPI   C4B 5024   4.846  12.780   7.848  0.1875 -0.0499 -0.0403
  315loPI    C1 5025   5.507  13.692   9.865  0.0316  0.0158  0.0742
  315loPI    C2 5026   5.421  13.832  10.230 -0.2980 -0.1408  0.0599
  315loPI    C3 5027   5.390  13.441  10.153  0.0507 -0.1481 -0.0596
  315loPI   PO4 5028   5.328  13.709   9.644 -0.0783 -0.2967 -0.3926
  315loPI   GL1 5029   5.239  13.480   9.260 -0.1487 -0.0800 -0.2171
  315loPI   GL2 5030   4.915  13.551   9.213 -0.0788 -0.0591  0.0909
  315loPI   C1A 5031   5.334  13.319   8.913 -0.1103  0.2482 -0.0538
  315loPI   C2A 5032   5.564  13.481   8.549  0.0496  0.2330  0.1930
  315loPI   C3A 5033   5.480  13.509   8.122  0.1236 -0.3674 -0.0042
  315loPI   C4A 5034   5.266  13.814   7.940 -0.3278 -0.2574  0.1344
  315loPI   C5A 5035   5.060  14.146   7.684 -0.1498 -0.0363  0.0152
  315loPI   C6A 5036   5.148  14.286   7.300 -0.1060 -0.3172 -0.0455
  315loPI   C1B 5037   4.738  13.434   8.805  0.0729 -0.0394 -0.0196
  315loPI   C2B 5038   5.052  13.282   8.468 -0.3647  0.2088  0.0847
  315loPI   C3B 5039   5.145  13.150   7.981 -0.1663  0.0244 -0.0345
  315loPI   C4B 5040   5.273  13.012   7.527  0.1961  0.1168  0.2040
  316loPI    C1 5041   3.718  17.694   9.701  0.1570 -0.0290 -0.0129
  316loPI    C2 5042   3.466  17.386   9.663  0.2502 -0.1154  0.0682
  316loPI    C3 5043   3.340  17.727   9.829  0.1093 -0.0628 -0.1432
  316loPI   PO4 5044   3.806  17.743   9.476 -0.4256 -0.0005 -0.0044
  316loPI   GL1 5045   3.408  17.762   9.256 -0.2125  0.4828  0.0167
  316loPI   GL2 5046   3.654  17.598   9.031 -0.1163 -0.1296 -0.1890
  316loPI   C1A 5047   3.247  17.638   8.776  0.2724  0.0116 -0.3449
  316loPI   C2A 5048   3.090  17.443   8.288  0.0691  0.0691  0.2307
  316loPI   C3A 5049   3.046  17.290   7.908  0.0838 -0.2876 -0.1566
  316loPI   C4A 5050   2.961  17.103   7.491 -0.4573 -0.0539 -0.0021
  316loPI   C5A 5051   3.160  17.008   7.053 -0.1672  0.1786  0.1060
  316loPI   C6A 5052   3.370  16.844   6.699  0.0728 -0.0609 -0.3944
  316loPI   C1B 5053   3.598  17.235   8.846 -0.0888 -0.0782  0.0201
  316loPI   C2B 5054   3.580  17.248   8.387 -0.0775 -0.1690  0.1590
  316loPI   C3B 5055   3.585  17.156   7.934 -0.0737 -0.1139  0.1438
  316loPI   C4B 5056   3.539  17.165   7.466 -0.0629 -0.1000  0.3698
  317loPI    C1 5057  14.693   7.927   9.462 -0.0331 -0.1003  0.0421
  317loPI    C2 5058  14.303   7.969   9.542 -0.0348 -0.1570  0.0642
  317loPI    C3 5059  14.549   7.816   9.818  0.0162 -0.0529  0.0768
  317loPI   PO4 5060  14.783   8.214   9.396 -0.1895  0.1125 -0.1968
  317loPI   GL1 5061  14.970   8.396   9.139 -0.1914  0.3652  0.4022
  317loPI   GL2 5062  14.903   8.698   9.183 -0.0091 -0.1989 -0.2158
  317loPI   C1A 5063  15.055   8.144   8.872  0.1506 -0.2199  0.2355
  317loPI   C2A 5064  15.121   8.026   8.453 -0.0898 -0.0939  0.1875
  317loPI   C3A 5065  15.100   8.161   8.038 -0.1851 -0.0395 -0.3021
  317loPI   C4A 5066  15.074   8.406   7.636 -0.3617  0.2404 -0.2237
  317loPI   C5A 5067  15.115   8.725   7.394  0.0523  0.1185 -0.0922
  317loPI   C6A 5068  15.121   9.026   7.205  0.1143 -0.2079 -0.3235
  317loPI   C1B 5069  14.773   8.977   8.861  0.0279 -0.4085 -0.0606
  317loPI   C2B 5070  14.685   8.988   8.393 -0.0695 -0.1420 -0.1380
  317loPI   C3B 5071  14.727   9.100   7.964  0.1362  0.0139  0.1177
  317loPI   C4B 5072  14.691   8.832   7.659 -0.1881  0.1837  0.2408
  318loPI    C1 5073   2.386  14.725   9.722 -0.0543  0.0958 -0.1143
  318loPI    C2 5074   2.213  15.031   9.531 -0.0875  0.0069 -0.2277
  318loPI    C3 5075   2.229  15.029   9.931 -0.1525  0.1211 -0.2239
  318loPI   PO4 5076   2.627  14.767   9.603  0.3336 -0.2697 -0.1993
  318loPI   GL1 5077   2.677  15.080   9.259 -0.0229 -0.0718  0.3735
  318loPI   GL2 5078   2.605  15.321   9.052 -0.0654  0.3699  0.1511
  318loPI   C1A 5079   2.757  14.708   8.936 -0.2479 -0.0296  0.2043
  318loPI   C2A 5080   2.893  14.568   8.501 -0.0613  0.1122  0.0186
  318loPI   C3A 5081   2.970  14.434   8.141  0.1825  0.0837 -0.1001
  318loPI   C4A 5082   2.835  14.213   7.793  0.2264  0.1522  0.0150
  318loPI   C5A 5083   2.825  14.134   7.341  0.4335  0.2039 -0.3889
  318loPI   C6A 5084   2.999  13.726   7.284  0.0366 -0.3126  0.1577
  318loPI   C1B 5085   2.707  15.502   8.640 -0.0794  0.0245 -0.2237
  318loPI   C2B 5086   2.946  15.438   8.209  0.0489 -0.0630  0.2409
  318loPI   C3B 5087   2.978  15.240   7.755  0.0917  0.2309 -0.0419
  318loPI   C4B 5088   2.988  14.833   7.372  0.1228 -0.2498  0.0735
  319loPI    C1 5089  16.552  12.356   9.737 -0.1133  0.1499  0.1870
  319loPI    C2 5090  16.182  12.220   9.668 -0.1714  0.2888  0.2213
  319loPI    C3 5091  16.276  12.372  10.026 -0.0456  0.1400  0.2525
  319loPI   PO4 5092  16.707  12.083   9.666 -0.0899  0.1808  0.1120
  319loPI   GL1 5093  16.862  11.941   9.221 -0.2123 -0.2176 -0.0114
  319loPI   GL2 5094  16.975  12.275   9.183  0.0950  0.2745  0.0623
  319loPI   C1A 5095  17.185  11.688   8.867 -0.1563  0.2066 -0.2221
  319loPI   C2A 5096  17.248  11.530   8.506  0.0656  0.0340 -0.1583
  319loPI   C3A 5097  17.312  11.416   8.033 -0.1751  0.0284 -0.2389
  319loPI   C4A 5098  17.396  11.431   7.573  0.2490  0.1601  0.7755
  319loPI   C5A 5099  17.454  11.776   7.338  0.1736 -0.2334 -0.1646
  319loPI   C6A 5100  17.839  11.942   7.380 -0.2135 -0.4115 -0.2428
  319loPI   C1B 5101  17.089  12.194   8.746 -0.0316  0.0174  0.0745
  319loPI   C2B 5102  16.835  11.937   8.405 -0.1665 -0.2072 -0.1969
  319loPI   C3B 5103  16.609  11.645   8.138 -0.4125  0.0393  0.1788
  319loPI   C4B 5104  16.806  11.367   7.771 -0.1166 -0.3248  0.1713
  320loPI    C1 5105  15.799   6.979  10.208  0.1212  0.2365 -0.1144
  320loPI    C2 5106  16.142   7.111  10.050  0.3149 -0.1261 -0.0080
  320loPI    C3 5107  16.147   6.886  10.381 -0.0508  0.1509  0.1949
  320loPI   PO4 5108  15.627   7.060   9.862 -0.3140 -0.0088 -0.1307
  320loPI   GL1 5109  15.834   7.234   9.495 -0.1121  0.2609 -0.1266
  320loPI   GL2 5110  15.949   6.902   9.492  0.3485  0.0072  0.0686
  320loPI   C1A 5111  15.948   7.404   9.129 -0.0504  0.1289 -0.0224
  320loPI   C2A 5112  15.909   7.617   8.821  0.1674  0.0472 -0.0203
  320loPI   C3A 5113  16.041   7.620   8.368 -0.1017 -0.2283 -0.5491
  320loPI   C4A 5114  15.775   7.742   7.971  0.2414  0.0923  0.0286
  320loPI   C5A 5115  15.699   7.668   7.546  0.0949  0.1149  0.3522
  320loPI   C6A 5116  15.727   7.543   7.117 -0.3480  0.1114  0.0812
  320loPI   C1B 5117  16.019   6.949   9.004 -0.2074 -0.2366 -0.0417
  320loPI   C2B 5118  15.934   7.160   8.642  0.0785  0.0964 -0.0152
  320loPI   C3B 5119  16.112   7.219   8.142 -0.0229 -0.1420  0.2174
  320loPI   C4B 5120  16.221   7.501   7.839  0.2837  0.1703  0.2489
  321loPI    C1 5121   8.609   5.002  10.120  0.3924 -0.1338  0.2015
  321loPI    C2 5122   8.631   5.161  10.487  0.2762 -0.0580  0.1761
  321loPI    C3 5123   8.523   4.778  10.441 -0.0207  0.0199  0.2041
  321loPI   PO4 5124   8.776   5.050   9.924 -0.1944  0.2143 -0.3557
  321loPI   GL1 5125   8.813   5.143   9.487 -0.1181 -0.1106  0.1403
  321loPI   GL2 5126   8.733   5.365   9.515  0.1682  0.0610 -0.0085
  321loPI   C1A 5127   9.039   5.187   9.128 -0.0566 -0.1969 -0.1246
  321loPI   C2A 5128   9.073   5.272   8.562  0.0190  0.1749  0.0117
  321loPI   C3A 5129   9.176   5.427   8.198  0.0489  0.0930  0.2915
  321loPI   C4A 5130   9.203   5.469   7.652 -0.1091  0.1911  0.1451
  321loPI   C5A 5131   8.968   5.742   7.356  0.2159  0.2996  0.1763
  321loPI   C6A 5132   9.138   5.905   6.939 -0.0529 -0.1927 -0.1168
  321loPI   C1B 5133   8.758   5.690   9.209 -0.1105  0.0402 -0.1617
  321loPI   C2B 5134   8.935   5.701   8.860  0.0042 -0.0558 -0.2423
  321loPI   C3B 5135   8.778   5.759   8.433 -0.3668 -0.2576  0.1288
  321loPI   C4B 5136   8.516   6.027   8.095  0.4053  0.0851  0.2231
  322loPI    C1 5137   3.211   2.341   9.613  0.2307  0.2850 -0.0127
  322loPI    C2 5138   2.927   2.583   9.471  0.0256  0.0097 -0.0804
  322loPI    C3 5139   2.828   2.279   9.711  0.2827  0.0043  0.0216
  322loPI   PO4 5140   3.332   2.185   9.491  0.3449  0.1116  0.0260
  322loPI   GL1 5141   3.530   2.011   9.169 -0.0940 -0.2810 -0.1073
  322loPI   GL2 5142   3.533   2.336   8.934 -0.0947 -0.4008 -0.1471
  322loPI   C1A 5143   3.663   1.880   8.634  0.0835 -0.0704 -0.2242
  322loPI   C2A 5144   3.669   1.976   8.267 -0.2849  0.1040 -0.0673
  322loPI   C3A 5145   3.697   1.945   7.829  0.2384 -0.0403 -0.2536
  322loPI   C4A 5146   3.380   1.748   7.501  0.0266 -0.0488 -0.0985
  322loPI   C5A 5147   3.085   1.745   7.167  0.0712 -0.2816  0.0702
  322loPI   C6A 5148   2.789   1.776   6.801 -0.1009 -0.0288 -0.0255
  322loPI   C1B 5149   3.269   2.158   8.574  0.3083 -0.2722  0.1543
  322loPI   C2B 5150   3.241   2.168   8.136 -0.2739 -0.1527  0.0256
  322loPI   C3B 5151   3.197   2.283   7.634 -0.0699 -0.1287 -0.4154
  322loPI   C4B 5152   3.187   2.238   7.205 -0.1165 -0.0364  0.1630
  323loPI    C1 5153  18.134  15.274   9.678 -0.1975  0.1445  0.0118
  323loPI    C2 5154  18.016  14.986   9.929  0.0735  0.0043 -0.0174
  323loPI    C3 5155  18.333  15.212  10.020  0.0327  0.1068 -0.1267
  323loPI   PO4 5156  18.135  15.185   9.428  0.1320  0.3100  0.0032
  323loPI   GL1 5157  18.340  15.195   9.207  0.0843  0.0315 -0.1620
  323loPI   GL2 5158  18.261  15.387   8.986 -0.0714  0.1197 -0.1995
  323loPI   C1A 5159  18.379  14.931   8.861  0.0185 -0.0719  0.0309
  323loPI   C2A 5160  18.386  14.952   8.533  0.3079  0.2005 -0.0266
  323loPI   C3A 5161  18.462  15.161   8.096 -0.1571  0.1701  0.2478
  323loPI   C4A 5162  18.495  15.193   7.609  0.1215  0.4116 -0.0287
  323loPI   C5A 5163  18.286  15.396   7.232 -0.1050 -0.0212 -0.0329
  323loPI   C6A 5164  18.260  15.418   6.778  0.0686  0.1206  0.3262
  323loPI   C1B 5165  18.055  15.405   8.694  0.1018  0.3016  0.2701
  323loPI   C2B 5166  18.007  15.459   8.260 -0.2481 -0.3307  0.1219
  323loPI   C3B 5167  18.077  15.495   7.821  0.3402  0.2888  0.1929
  323loPI   C4B 5168  17.855  15.560   7.405 -0.1235  0.3254  0.2597
  324loPI    C1 5169   7.079   7.178   9.908 -0.0769 -0.0491 -0.0793
  324loPI    C2 5170   7.020   6.870  10.156 -0.0535 -0.1408 -0.1870
  324loPI    C3 5171   7.304   7.140  10.237  0.1145 -0.3007 -0.2354
  324loPI   PO4 5172   6.990   7.061   9.604 -0.0660 -0.4303  0.3675
  324loPI   GL1 5173   6.754   7.254   9.318 -0.0662  0.0780 -0.1251
  324loPI   GL2 5174   6.960   7.238   9.067 -0.4864  0.0513 -0.0027
  324loPI   C1A 5175   6.371   7.188   9.061  0.3400  0.0704  0.1151
  324loPI   C2A 5176   5.957   7.154   8.825  0.2206  0.0740  0.3589
  324loPI   C3A 5177   5.740   7.194   8.433  0.0124  0.1094  0.2946
  324loPI   C4A 5178   5.374   7.107   8.161 -0.0530  0.1305  0.0966
  324loPI   C5A 5179   5.136   6.853   7.803 -0.1877  0.4896  0.1585
  324loPI   C6A 5180   5.036   6.468   7.746  0.0329 -0.3852  0.1261
  324loPI   C1B 5181   6.784   7.308   8.666 -0.0571  0.2747 -0.0187
  324loPI   C2B 5182   6.692   7.626   8.394  0.2155 -0.0542  0.0976
  324loPI   C3B 5183   6.408   7.723   7.987 -0.2297 -0.0741  0.1401
  324loPI   C4B 5184   6.392   8.156   7.800  0.3996  0.0610 -0.5568
  325loPI    C1 5185   0.066  18.669   9.591  0.3920 -0.0282 -0.1311
  325loPI    C2 5186   0.201  18.309   9.479 -0.2762 -0.2992 -0.1089
  325loPI    C3 5187   0.181  18.403   9.867  0.1173 -0.1409 -0.1225
  325loPI   PO4 5188   0.192  18.800   9.389 -0.0208  0.0205  0.1077
  325loPI   GL1 5189   0.187  18.658   8.994  0.2119  0.1825 -0.1402
  325loPI   GL2 5190   0.396  18.432   8.983  0.1870 -0.0760 -0.1460
  325loPI   C1A 5191  -0.094  18.680   8.703 -0.2313  0.0590 -0.0614
  325loPI   C2A 5192  -0.105  18.458   8.360 -0.2563  0.0000 -0.1322
  325loPI   C3A 5193   0.091  18.412   7.885 -0.1582 -0.0453 -0.2793
  325loPI   C4A 5194   0.144  18.415   7.429 -0.0160  0.0315  0.0260
  325loPI   C5A 5195  -0.156  18.431   7.086 -0.0919 -0.1182  0.1163
  325loPI   C6A 5196  -0.337  18.762   6.863 -0.0645 -0.3472  0.1359
  325loPI   C1B 5197   0.675  18.436   8.650  0.1558 -0.1098  0.1140
  325loPI   C2B 5198   0.728  18.421   8.234 -0.3839 -0.1008  0.1705
  325loPI   C3B 5199   0.823  18.176   7.887 -0.2440  0.2342 -0.0485
  325loPI   C4B 5200   1.110  17.904   7.726  0.0471 -0.0096 -0.1776
  326loPI    C1 5201  19.456   3.733   9.419  0.2480  0.0260  0.1202
  326loPI    C2 5202  19.744   3.946   9.596 -0.0426  0.3388  0.2261
  326loPI    C3 5203  19.360   4.049   9.644 -0.1779 -0.0965  0.1198
  326loPI   PO4 5204  19.589   3.496   9.467  0.2314  0.1228 -0.0805
  326loPI   GL1 5205  19.581   3.148   9.218 -0.0521  0.0249  0.1000
  326loPI   GL2 5206  19.213   3.253   9.143  0.0665 -0.0053  0.2249
  326loPI   C1A 5207  19.780   2.977   8.855  0.0105  0.0318  0.3569
  326loPI   C2A 5208  19.939   2.605   8.487  0.0236  0.0140 -0.0099
  326loPI   C3A 5209  20.038   2.525   8.071  0.1014 -0.1443  0.1643
  326loPI   C4A 5210  20.421   2.586   7.854 -0.2943 -0.2422 -0.1612
  326loPI   C5A 5211  20.497   2.576   7.346  0.0037  0.0476 -0.1592
  326loPI   C6A 5212  20.210   2.761   7.071  0.0798  0.4256  0.2874
  326loPI   C1B 5213  19.357   3.170   8.694  0.0585 -0.0225  0.0319
  326loPI   C2B 5214  19.316   3.112   8.188  0.4337  0.0395 -0.0516
  326loPI   C3B 5215  19.461   2.964   7.899  0.4756  0.2182  0.1705
  326loPI   C4B 5216  19.404   2.956   7.484 -0.0643  0.2995  0.0301
  327loPI    C1 5217  11.522   2.557   9.501  0.1783 -0.0703  0.1895
  327loPI    C2 5218  11.178   2.411   9.643  0.1180 -0.1077  0.0088
  327loPI    C3 5219  11.522   2.337   9.835  0.0313 -0.1037  0.1681
  327loPI   PO4 5220  11.521   2.509   9.243  0.3037  0.2019 -0.0632
  327loPI   GL1 5221  11.505   2.257   8.854 -0.3092 -0.1237 -0.0874
  327loPI   GL2 5222  11.229   2.361   8.749 -0.1714  0.2567  0.1357
  327loPI   C1A 5223  11.471   2.163   8.385 -0.1414 -0.2492  0.0253
  327loPI   C2A 5224  11.364   1.946   8.086  0.1706  0.1715 -0.1210
  327loPI   C3A 5225  11.353   1.958   7.665  0.2287 -0.0494  0.1680
  327loPI   C4A 5226  11.175   1.724   7.283  0.3101 -0.2281  0.1035
  327loPI   C5A 5227  11.144   1.846   6.866 -0.0895  0.0920  0.0080
  327loPI   C6A 5228  11.330   1.704   6.473 -0.2267 -0.2081 -0.1370
  327loPI   C1B 5229  10.872   2.567   8.553 -0.2533 -0.0820  0.1743
  327loPI   C2B 5230  10.767   2.769   8.160  0.0581  0.3574  0.1767
  327loPI   C3B 5231  10.655   2.752   7.727  0.2267 -0.2174  0.0984
  327loPI   C4B 5232  10.786   2.832   7.344 -0.0956 -0.0102 -0.1430
  328loPI    C1 5233   1.751   7.055   9.930  0.0598 -0.0519  0.0546
  328loPI    C2 5234   2.119   7.209   9.943  0.0782 -0.0886 -0.0275
  328loPI    C3 5235   1.918   7.144  10.282  0.0931  0.0603  0.0108
  328loPI   PO4 5236   1.681   7.136   9.750  0.1876  0.2109 -0.0521
  328loPI   GL1 5237   1.520   7.441   9.298 -0.4379 -0.2389 -0.0870
  328loPI   GL2 5238   1.382   7.531   9.194  0.3982 -0.0089 -0.0512
  328loPI   C1A 5239   1.625   7.182   8.925 -0.1004  0.1202 -0.2369
  328loPI   C2A 5240   1.320   7.052   8.533  0.1024  0.1407 -0.1925
  328loPI   C3A 5241   1.108   7.153   8.130  0.0833  0.2866  0.1291
  328loPI   C4A 5242   1.077   6.919   7.735 -0.0700  0.1220 -0.1447
  328loPI   C5A 5243   0.964   6.590   7.600 -0.1109  0.1607  0.0011
  328loPI   C6A 5244   1.215   6.167   7.392  0.0207 -0.4543  0.2434
  328loPI   C1B 5245   1.314   7.525   8.768  0.0278  0.2605  0.1395
  328loPI   C2B 5246   1.286   7.613   8.282 -0.0402 -0.2069  0.2518
  328loPI   C3B 5247   1.438   7.596   7.882  0.0374 -0.2872 -0.2500
  328loPI   C4B 5248   1.515   7.226   7.571  0.0272 -0.0214 -0.2081
  329loPI    C1 5249  18.720  10.380  10.207 -0.0883  0.0138 -0.1569
  329loPI    C2 5250  18.675  10.695  10.450 -0.1816 -0.0337 -0.1118
  329loPI    C3 5251  18.360  10.550  10.251 -0.2025 -0.2844  0.0989
  329loPI   PO4 5252  18.957  10.408   9.969  0.2852  0.2188  0.0034
  329loPI   GL1 5253  19.055  10.717   9.710 -0.0980  0.1508  0.1410
  329loPI   GL2 5254  19.337  10.630   9.737 -0.0788 -0.1087  0.0635
  329loPI   C1A 5255  19.018  10.812   9.256  0.2531 -0.1378  0.2941
  329loPI   C2A 5256  19.078  10.773   8.802  0.1688 -0.1779 -0.3836
  329loPI   C3A 5257  19.075  10.658   8.400 -0.0688  0.0454  0.3058
  329loPI   C4A 5258  19.055  10.488   8.124  0.0263  0.2033 -0.0537
  329loPI   C5A 5259  18.988  10.295   7.738  0.0617  0.1076  0.2125
  329loPI   C6A 5260  19.081  10.063   7.335  0.4250 -0.1553  0.0112
  329loPI   C1B 5261  19.538  10.699   9.310 -0.3146 -0.0240 -0.1274
  329loPI   C2B 5262  19.582  10.489   8.826  0.0706  0.1329  0.4459
  329loPI   C3B 5263  19.451  10.385   8.464 -0.0962 -0.2484  0.1932
  329loPI   C4B 5264  19.374  10.080   8.129 -0.4251  0.2701  0.0256
  330loPI    C1 5265   5.590  12.589  10.180  0.1626  0.0313 -0.0188
  330loPI    C2 5266   5.674  12.875   9.913  0.2958  0.0969  0.0922
  330loPI    C3 5267   5.527  12.973  10.273  0.0748  0.0060  0.0289
  330loPI   PO4 5268   5.825  12.333  10.054  0.0773  0.1191  0.6188
  330loPI   GL1 5269   5.937  12.469   9.577  0.0313  0.0246  0.1214
  330loPI   GL2 5270   5.630  12.367   9.295  0.3403  0.2869  0.0619
  330loPI   C1A 5271   6.172  12.363   9.102 -0.0328  0.0691 -0.0278
  330loPI   C2A 5272   6.240  12.201   8.716  0.0200  0.1028  0.2299
  330loPI   C3A 5273   6.209  12.279   8.285  0.1258 -0.2067 -0.0262
  330loPI   C4A 5274   6.208  12.091   7.889  0.3237 -0.1218 -0.1014
  330loPI   C5A 5275   5.864  12.104   7.557 -0.5710 -0.2438 -0.1662
  330loPI   C6A 5276   5.749  11.855   7.144  0.1925  0.0008 -0.1784
  330loPI   C1B 5277   5.751  12.569   8.829  0.1472 -0.1407  0.0479
  330loPI   C2B 5278   5.721  12.533   8.380  0.3168 -0.0252 -0.1367
  330loPI   C3B 5279   5.776  12.356   8.036 -0.2514 -0.3051  0.0338
  330loPI   C4B 5280   5.488  12.124   7.810  0.0422  0.2019 -0.1082
  331loPI    C1 5281  17.134  17.950   9.527  0.0283 -0.1009 -0.0132
  331loPI    C2 5282  17.185  17.787   9.888  0.0768  0.0206  0.0349
  331loPI    C3 5283  16.816  17.845   9.746  0.0591 -0.1090  0.0274
  331loPI   PO4 5284  17.334  17.759   9.325  0.1838 -0.3750  0.0415
  331loPI   GL1 5285  17.234  17.773   8.831  0.1228  0.5122 -0.0655
  331loPI   GL2 5286  17.019  17.549   8.758  0.3464 -0.1262 -0.1540
  331loPI   C1A 5287  16.824  17.966   8.542  0.0814  0.1295  0.2743
  331loPI   C2A 5288  16.828  18.188   8.224  0.2423 -0.0312  0.3230
  331loPI   C3A 5289  16.930  18.303   7.776 -0.1855  0.2016  0.2440
  331loPI   C4A 5290  17.149  18.114   7.418 -0.1464 -0.0406  0.4740
  331loPI   C5A 5291  17.278  17.963   7.083  0.0035 -0.0478 -0.1369
  331loPI   C6A 5292  17.367  17.824   6.724  0.3986  0.1307 -0.0848
  331loPI   C1B 5293  16.895  17.486   8.390  0.1354  0.2466 -0.0334
  331loPI   C2B 5294  16.772  17.694   7.995  0.0382 -0.1668 -0.0685
  331loPI   C3B 5295  16.928  17.652   7.611  0.2542 -0.0959  0.1656
  331loPI   C4B 5296  17.319  17.594   7.487  0.0413 -0.0665 -0.4866
  332loPI    C1 5297   1.850   8.150   9.926  0.1138 -0.2010  0.1639
  332loPI    C2 5298   2.089   8.313  10.203  0.2101 -0.3118  0.1467
  332loPI    C3 5299   1.692   8.341  10.240  0.2249  0.0607  0.0635
  332loPI   PO4 5300   2.013   8.117   9.685  0.0030  0.2380  0.1519
  332loPI   GL1 5301   2.004   8.438   9.413  0.1426  0.0051  0.0150
  332loPI   GL2 5302   2.353   8.350   9.297 -0.2400 -0.2009 -0.0307
  332loPI   C1A 5303   1.996   8.726   9.064  0.3193  0.5155  0.0364
  332loPI   C2A 5304   2.200   8.848   8.699  0.3365  0.0387  0.1523
  332loPI   C3A 5305   2.339   8.772   8.329  0.0032  0.1607  0.2292
  332loPI   C4A 5306   2.413   8.865   7.839 -0.0221  0.0861  0.1888
  332loPI   C5A 5307   2.414   9.305   7.627 -0.0773  0.0619  0.1664
  332loPI   C6A 5308   2.504   9.751   7.443 -0.1028  0.0075  0.3381
  332loPI   C1B 5309   2.157   8.126   8.931  0.1955  0.0738 -0.1043
  332loPI   C2B 5310   1.969   7.879   8.540  0.0033  0.0247 -0.1511
  332loPI   C3B 5311   2.096   7.652   8.064  0.0885 -0.2284 -0.1095
  332loPI   C4B 5312   2.321   7.567   7.752 -0.0995 -0.0650 -0.0568
  333loPI    C1 5313   0.890   3.692   9.697 -0.0120 -0.0670 -0.0229
  333loPI    C2 5314   0.623   3.984   9.755  0.1119  0.0877 -0.2216
  333loPI    C3 5315   0.868   3.876  10.051 -0.2736 -0.1639  0.0137
  333loPI   PO4 5316   0.801   3.578   9.424 -0.2699 -0.2303  0.0331
  333loPI   GL1 5317   0.820   3.517   9.019 -0.0837 -0.1670 -0.1501
  333loPI   GL2 5318   0.490   3.332   8.922  0.0186  0.3282  0.1880
  333loPI   C1A 5319   0.837   3.822   8.535 -0.1034 -0.1572 -0.2280
  333loPI   C2A 5320   0.951   3.826   8.148  0.0845  0.0157 -0.0638
  333loPI   C3A 5321   0.774   3.714   7.764 -0.3736 -0.0644  0.3414
  333loPI   C4A 5322   0.918   3.591   7.313 -0.0903 -0.3322 -0.0347
  333loPI   C5A 5323   0.938   3.584   6.875 -0.0718  0.2526  0.2615
  333loPI   C6A 5324   0.601   3.207   6.749  0.2031  0.0157 -0.3440
  333loPI   C1B 5325   0.643   3.395   8.501 -0.4419  0.2688  0.2774
  333loPI   C2B 5326   0.430   3.497   8.115  0.1928  0.2042  0.0351
  333loPI   C3B 5327   0.250   3.467   7.783 -0.2999 -0.3658 -0.0513
  333loPI   C4B 5328   0.016   3.364   7.525 -0.2285  0.1954 -0.4583
  334loPI    C1 5329  10.356  18.083   9.852 -0.1309 -0.0178 -0.0762
  334loPI    C2 5330  10.403  17.732  10.037 -0.4540 -0.0297 -0.0100
  334loPI    C3 5331  10.582  18.059  10.181 -0.0250 -0.1911 -0.1606
  334loPI   PO4 5332  10.383  18.109   9.654 -0.1698 -0.1025 -0.1384
  334loPI   GL1 5333  10.559  18.174   9.284  0.0032  0.2951 -0.0897
  334loPI   GL2 5334  10.767  18.457   9.151 -0.2119  0.1133 -0.2719
  334loPI   C1A 5335  10.550  17.992   8.916 -0.0580 -0.0153 -0.0317
  334loPI   C2A 5336  10.425  17.987   8.475  0.2097 -0.2556 -0.0992
  334loPI   C3A 5337  10.509  17.984   8.048 -0.1827  0.0564 -0.0660
  334loPI   C4A 5338  10.516  17.976   7.593 -0.0708 -0.1260 -0.0965
  334loPI   C5A 5339  10.551  18.156   7.152  0.1168 -0.0692  0.1640
  334loPI   C6A 5340  10.240  18.406   6.913 -0.1922 -0.0771  0.0238
  334loPI   C1B 5341  11.060  18.065   8.973  0.1750  0.2813  0.1840
  334loPI   C2B 5342  11.404  18.010   8.862  0.3686  0.1604 -0.2965
  334loPI   C3B 5343  11.546  17.746   8.564  0.1474 -0.2872 -0.0807
  334loPI   C4B 5344  11.515  17.693   8.125  0.0142  0.2123 -0.1423
  335loPI    C1 5345   3.940   7.490   9.931 -0.0522  0.2340 -0.2420
  335loPI    C2 5346   3.546   7.501   9.999 -0.0238 -0.1876  0.0274
  335loPI    C3 5347   3.799   7.654  10.267  0.0004  0.0544 -0.1308
  335loPI   PO4 5348   3.948   7.547   9.692 -0.1758 -0.2885  0.0033
  335loPI   GL1 5349   4.051   7.508   9.220 -0.4951 -0.0776  0.2088
  335loPI   GL2 5350   4.336   7.418   9.118 -0.1332 -0.1016 -0.1837
  335loPI   C1A 5351   3.925   7.659   8.844  0.1187 -0.1077 -0.1309
  335loPI   C2A 5352   3.701   7.574   8.447 -0.0966  0.1498  0.1479
  335loPI   C3A 5353   3.655   7.354   8.134  0.2420 -0.1458  0.0062
  335loPI   C4A 5354   3.528   7.024   7.854  0.0758  0.1582 -0.1691
  335loPI   C5A 5355   3.312   7.066   7.519  0.0601 -0.2397  0.0579
  335loPI   C6A 5356   2.961   7.347   7.464  0.3143 -0.2644  0.1952
  335loPI   C1B 5357   4.577   7.493   8.656 -0.0923  0.1793 -0.1582
  335loPI   C2B 5358   4.602   7.452   8.166 -0.0502  0.1677  0.0179
  335loPI   C3B 5359   4.544   7.589   7.669 -0.0593 -0.1176  0.1473
  335loPI   C4B 5360   4.176   7.744   7.408 -0.3066  0.0898 -0.1737
  336loPI    C1 5361  13.142   8.381   9.640 -0.0410 -0.1535 -0.1841
  336loPI    C2 5362  12.930   8.265   9.959 -0.1341 -0.1118 -0.2306
  336loPI    C3 5363  13.139   8.606   9.970 -0.0913 -0.1392 -0.1943
  336loPI   PO4 5364  13.214   8.168   9.511 -0.0799  0.2288  0.2745
  336loPI   GL1 5365  13.524   7.964   9.088 -0.0064  0.0262  0.1099
  336loPI   GL2 5366  13.842   8.010   9.161 -0.3469  0.0566  0.1322
  336loPI   C1A 5367  13.607   8.135   8.603  0.1097  0.0533 -0.3144
  336loPI   C2A 5368  13.648   7.972   8.274  0.1504  0.2027  0.1386
  336loPI   C3A 5369  13.606   8.096   7.912  0.3405  0.2286 -0.0599
  336loPI   C4A 5370  13.200   8.004   7.628  0.2749  0.0175  0.1844
  336loPI   C5A 5371  12.838   8.060   7.295 -0.1179 -0.0099  0.0485
  336loPI   C6A 5372  12.970   7.990   6.783 -0.1373  0.3187  0.0713
  336loPI   C1B 5373  13.937   7.736   8.786  0.0811  0.0042  0.3191
  336loPI   C2B 5374  14.092   7.668   8.355  0.0802  0.1081  0.1296
  336loPI   C3B 5375  14.302   7.934   8.100  0.1004  0.1234 -0.0186
  336loPI   C4B 5376  14.048   8.166   7.885 -0.1534  0.1116 -0.1267
  337loPI    C1 5377  16.319  14.709   9.433  0.0415 -0.0757 -0.0464
  337loPI    C2 5378  16.105  14.415   9.599  0.0168  0.0107  0.0760
  337loPI    C3 5379  16.278  14.692   9.830 -0.0062  0.1241 -0.0413
  337loPI   PO4 5380  16.220  14.695   9.213  0.1437 -0.0363 -0.0321
  337loPI   GL1 5381  16.066  14.584   8.929  0.2440  0.0816  0.1343
  337loPI   GL2 5382  15.807  14.857   8.926 -0.4504  0.0917 -0.4133
  337loPI   C1A 5383  16.274  14.522   8.550 -0.1770 -0.2246 -0.0824
  337loPI   C2A 5384  16.383  14.501   8.149  0.0137 -0.1424 -0.2128
  337loPI   C3A 5385  16.345  14.448   7.736  0.1223 -0.2004  0.1791
  337loPI   C4A 5386  16.515  14.487   7.267 -0.3566 -0.2598  0.0901
  337loPI   C5A 5387  16.740  14.399   6.862 -0.0433  0.3808  0.2764
  337loPI   C6A 5388  16.883  14.734   6.596  0.2797 -0.1247 -0.1620
  337loPI   C1B 5389  16.006  14.987   8.604  0.2083  0.0445  0.2398
  337loPI   C2B 5390  16.031  14.874   8.256  0.0995 -0.1101 -0.0295
  337loPI   C3B 5391  16.054  14.888   7.790 -0.1606  0.0348  0.3059
  337loPI   C4B 5392  16.125  14.721   7.365 -0.0840 -0.0779 -0.0801
  338loPI    C1 5393   4.879   8.921   9.765 -0.0625 -0.0608 -0.1578
  338loPI    C2 5394   5.224   8.795   9.606 -0.0457 -0.0672 -0.1164
  338loPI    C3 5395   4.963   8.530   9.753 -0.0796 -0.0640 -0.1705
  338loPI   PO4 5396   4.879   9.195   9.624  0.1395  0.0474  0.1368
  338loPI   GL1 5397   4.648   9.328   9.268 -0.1631  0.2079  0.0179
  338loPI   GL2 5398   4.433   9.531   9.453  0.2155  0.1605  0.1081
  338loPI   C1A 5399   4.427   9.220   8.897  0.3700  0.2579  0.1772
  338loPI   C2A 5400   4.469   9.012   8.422 -0.1572 -0.3877 -0.0962
  338loPI   C3A 5401   4.158   8.987   7.987  0.1313  0.3466  0.1759
  338loPI   C4A 5402   4.169   9.011   7.549 -0.1577 -0.4866 -0.1877
  338loPI   C5A 5403   4.211   8.697   7.087  0.1773 -0.0102  0.4731
  338loPI   C6A 5404   4.201   8.259   7.171  0.0909 -0.1173 -0.2624
  338loPI   C1B 5405   3.994   9.239   9.375 -0.2188  0.1229  0.1308
  338loPI   C2B 5406   3.945   9.001   9.014  0.0317  0.1448  0.2038
  338loPI   C3B 5407   3.847   9.008   8.596  0.0781  0.0570  0.3031
  338loPI   C4B 5408   3.637   9.018   8.163  0.2174 -0.3983 -0.0284
  339loPI    C1 5409  15.476  15.701   9.227  0.1128 -0.5310  0.1428
  339loPI    C2 5410  15.807  15.818   9.037 -0.2317 -0.0881 -0.2089
  339loPI    C3 5411  15.763  15.894   9.427  0.0475 -0.0908 -0.1746
  339loPI   PO4 5412  15.277  15.748   8.902  0.0300  0.0304 -0.0472
  339loPI   GL1 5413  15.058  16.060   8.641 -0.1753 -0.0364  0.1791
  339loPI   GL2 5414  14.994  16.396   8.444  0.1334 -0.1044 -0.1329
  339loPI   C1A 5415  15.104  16.057   8.148 -0.0569  0.1328 -0.2008
  339loPI   C2A 5416  15.028  16.204   7.759  0.0922  0.1218  0.1856
  339loPI   C3A 5417  14.865  16.421   7.442 -0.1007 -0.1137  0.2178
  339loPI   C4A 5418  14.731  16.790   7.230 -0.2684  0.2870  0.3383
  339loPI   C5A 5419  14.440  16.800   6.819 -0.1968 -0.2577  0.1076
  339loPI   C6A 5420  14.326  16.451   6.613 -0.0416  0.3570  0.0330
  339loPI   C1B 5421  15.101  16.633   8.063  0.3953 -0.2611  0.0670
  339loPI   C2B 5422  15.302  16.592   7.628 -0.3075 -0.1291  0.4735
  339loPI   C3B 5423  15.313  16.640   7.174  0.0521 -0.1925 -0.1938
  339loPI   C4B 5424  15.515  16.540   6.766 -0.1677 -0.0237  0.1574
  340loPI    C1 5425   0.776   2.494   9.620 -0.1225 -0.0827 -0.0518
  340loPI    C2 5426   0.698   2.102   9.618 -0.0106 -0.1080  0.1877
  340loPI    C3 5427   0.447   2.355   9.800  0.0772 -0.1042  0.3040
  340loPI   PO4 5428   0.750   2.619   9.408 -0.2346  0.1305 -0.0893
  340loPI   GL1 5429   0.541   2.801   9.043  0.1186 -0.2808 -0.1532
  340loPI   GL2 5430   0.743   2.913   8.811 -0.1538  0.0733  0.1856
  340loPI   C1A 5431   0.635   2.415   8.756  0.3329 -0.1443 -0.0536
  340loPI   C2A 5432   0.811   2.064   8.735 -0.2177  0.2417 -0.0477
  340loPI   C3A 5433   0.871   1.810   8.378  0.3474 -0.0261 -0.1918
  340loPI   C4A 5434   0.871   1.744   7.931  0.2266  0.1385 -0.2178
  340loPI   C5A 5435   0.868   1.609   7.537 -0.0748 -0.1387  0.0096
  340loPI   C6A 5436   1.082   1.437   7.298 -0.1080 -0.2467 -0.1804
  340loPI   C1B 5437   0.744   2.839   8.295  0.1596 -0.0426 -0.1064
  340loPI   C2B 5438   0.936   3.176   8.100 -0.0562  0.4527  0.0248
  340loPI   C3B 5439   1.220   3.366   7.915  0.0784 -0.0926 -0.0256
  340loPI   C4B 5440   1.304   3.601   7.618  0.0427 -0.1588  0.0578
  341loPI    C1 5441  15.059   1.116   9.415 -0.0052  0.0534  0.1432
  341loPI    C2 5442  14.851   0.810   9.568 -0.0132 -0.0386 -0.0488
  341loPI    C3 5443  15.201   0.916   9.730 -0.0743 -0.0636  0.1006
  341loPI   PO4 5444  15.064   1.103   9.142  0.2798 -0.1890  0.0196
  341loPI   GL1 5445  14.783   1.153   8.783 -0.1295  0.2994 -0.0227
  341loPI   GL2 5446  14.948   0.846   8.681 -0.0482 -0.2704 -0.2785
  341loPI   C1A 5447  14.929   1.248   8.416 -0.3929  0.0263 -0.2647
  341loPI   C2A 5448  15.168   1.453   8.090 -0.0209  0.1630  0.2230
  341loPI   C3A 5449  15.569   1.605   8.045 -0.0733 -0.0597 -0.3917
  341loPI   C4A 5450  15.712   1.947   7.772  0.0167  0.2488 -0.1220
  341loPI   C5A 5451  15.751   2.103   7.364  0.1360  0.2566 -0.0552
  341loPI   C6A 5452  15.577   2.272   7.038 -0.1417 -0.0011 -0.0393
  341loPI   C1B 5453  15.251   0.855   8.295  0.0416  0.0186  0.1402
  341loPI   C2B 5454  15.204   0.686   7.845  0.1313  0.0013 -0.0659
  341loPI   C3B 5455  15.083   0.481   7.472 -0.1583 -0.3506 -0.0011
  341loPI   C4B 5456  15.265   0.277   7.210  0.1003  0.0115 -0.3311
  342loPI    C1 5457  17.493   0.658   9.526  0.1182 -0.1674  0.0399
  342loPI    C2 5458  17.853   0.809   9.617  0.0412  0.0888 -0.0716
  342loPI    C3 5459  17.609   0.684   9.909  0.1598  0.0542  0.0135
  342loPI   PO4 5460  17.520   0.552   9.336  0.1928 -0.0987  0.1182
  342loPI   GL1 5461  17.476   0.547   8.915  0.2370 -0.0744  0.3324
  342loPI   GL2 5462  17.612   0.861   8.765  0.1516  0.1809  0.2017
  342loPI   C1A 5463  17.535   0.498   8.476 -0.2127 -0.1724 -0.0167
  342loPI   C2A 5464  17.842   0.593   8.077  0.1665  0.1853  0.1289
  342loPI   C3A 5465  18.173   0.414   7.918 -0.0456 -0.0622 -0.0067
  342loPI   C4A 5466  18.284  -0.035   7.614 -0.0318 -0.0784  0.0198
  342loPI   C5A 5467  18.411  -0.353   7.388  0.3473  0.0114  0.0574
  342loPI   C6A 5468  18.340  -0.601   7.004  0.1115  0.0985 -0.0497
  342loPI   C1B 5469  17.946   0.686   8.592  0.1285  0.1835  0.0502
  342loPI   C2B 5470  18.299   0.550   8.396  0.3133  0.0591  0.2914
  342loPI   C3B 5471  18.661   0.418   8.070 -0.0136 -0.0260  0.0091
  342loPI   C4B 5472  18.840   0.395   7.695  0.1124  0.1363 -0.3252
  343loPI    C1 5473   4.357   5.773  10.280 -0.1415  0.2443  0.2554
  343loPI    C2 5474   4.078   5.696  10.555 -0.1930 -0.1816  0.0913
  343loPI    C3 5475   4.420   5.488  10.553 -0.0164  0.1040  0.0828
  343loPI   PO4 5476   4.217   5.670  10.073 -0.1131  0.5732 -0.0644
  343loPI   GL1 5477   4.366   5.689   9.659  0.0703 -0.1215  0.0591
  343loPI   GL2 5478   4.266   5.340   9.574  0.1742 -0.2977 -0.1948
  343loPI   C1A 5479   4.377   5.803   9.216 -0.3917  0.1176  0.2097
  343loPI   C2A 5480   4.481   6.040   8.916 -0.1460 -0.0227 -0.0075
  343loPI   C3A 5481   4.387   6.092   8.518 -0.2463  0.0914 -0.0620
  343loPI   C4A 5482   4.442   6.043   8.152 -0.2473 -0.0319 -0.6776
  343loPI   C5A 5483   4.659   5.793   7.711  0.2950  0.2630 -0.1983
  343loPI   C6A 5484   4.834   5.610   7.492  0.0471  0.0518  0.1083
  343loPI   C1B 5485   4.141   5.285   9.086  0.1716 -0.0618  0.1415
  343loPI   C2B 5486   4.065   5.273   8.618  0.1778  0.0028  0.0711
  343loPI   C3B 5487   3.980   5.229   8.215  0.0026  0.1047 -0.2818
  343loPI   C4B 5488   3.998   5.091   7.716 -0.0587  0.1224  0.2353
  344loPI    C1 5489   3.562  19.137   9.430  0.0779 -0.0646  0.2050
  344loPI    C2 5490   3.679  19.421   9.686  0.4447 -0.0949  0.0765
  344loPI    C3 5491   3.475  19.105   9.819  0.0119  0.2342  0.2171
  344loPI   PO4 5492   3.847  19.252   9.230 -0.1900  0.1001  0.2562
  344loPI   GL1 5493   3.920  19.487   8.928 -0.1059  0.2469  0.1077
  344loPI   GL2 5494   4.170  19.477   8.637  0.0903 -0.2950  0.0700
  344loPI   C1A 5495   3.630  19.394   8.622  0.0535  0.2185 -0.0286
  344loPI   C2A 5496   3.615  19.212   8.172 -0.3504 -0.1565 -0.0257
  344loPI   C3A 5497   3.827  19.001   7.787  0.1630  0.0869  0.1008
  344loPI   C4A 5498   4.036  18.872   7.454  0.0835 -0.0324  0.2326
  344loPI   C5A 5499   4.134  18.894   6.974  0.1477  0.4594  0.2747
  344loPI   C6A 5500   4.337  19.014   6.589 -0.0457 -0.1982  0.0212
  344loPI   C1B 5501   4.023  19.463   8.221 -0.2524  0.2188 -0.0355
  344loPI   C2B 5502   4.183  19.431   7.918  0.0101 -0.0634  0.1381
  344loPI   C3B 5503   4.428  19.210   7.537 -0.1420  0.2332  0.0441
  344loPI   C4B 5504   4.557  19.204   7.022  0.1358  0.1477  0.0598
  345loPI    C1 5505   8.311  14.373  10.005  0.3068 -0.2290  0.0058
  345loPI    C2 5506   8.410  14.225  10.363  0.1694 -0.0077  0.1374
  345loPI    C3 5507   8.062  14.415  10.315  0.1588 -0.0909 -0.1302
  345loPI   PO4 5508   8.553  14.480   9.872 -0.0327 -0.1170 -0.2617
  345loPI   GL1 5509   8.611  14.661   9.551 -0.5074  0.1824  0.2034
  345loPI   GL2 5510   8.960  14.809   9.466 -0.2434 -0.2208 -0.2351
  345loPI   C1A 5511   8.594  14.726   9.088 -0.0414 -0.2261  0.0766
  345loPI   C2A 5512   8.676  14.712   8.607 -0.1195  0.2374 -0.4448
  345loPI   C3A 5513   8.764  14.508   8.338  0.2255  0.1742 -0.0995
  345loPI   C4A 5514   8.978  14.416   7.998 -0.0086  0.0439  0.0771
  345loPI   C5A 5515   8.877  14.475   7.569 -0.0782  0.0913 -0.1260
  345loPI   C6A 5516   9.156  14.522   7.241 -0.1949 -0.1397 -0.0841
  345loPI   C1B 5517   9.058  14.768   9.024 -0.0087  0.1985  0.2078
  345loPI   C2B 5518   9.239  14.766   8.613 -0.0814 -0.0494  0.1391
  345loPI   C3B 5519   9.317  14.414   8.345  0.1965 -0.1275  0.2512
  345loPI   C4B 5520   9.384  14.122   8.138  0.3697  0.2133  0.0238
  346loPI    C1 5521  15.773   2.459   9.595  0.1433  0.1322 -0.3355
  346loPI    C2 5522  15.742   2.744   9.874 -0.3271 -0.1039 -0.1365
  346loPI    C3 5523  15.959   2.416   9.947 -0.0822  0.0352 -0.2268
  346loPI   PO4 5524  15.624   2.424   9.512 -0.5107  0.1825  0.1859
  346loPI   GL1 5525  15.557   2.710   9.103 -0.2478 -0.0093  0.1802
  346loPI   GL2 5526  15.896   2.944   9.229  0.0563  0.2208 -0.1126
  346loPI   C1A 5527  15.470   2.759   8.679  0.1477  0.2603  0.1866
  346loPI   C2A 5528  15.440   2.614   8.216 -0.0110  0.0808 -0.0948
  346loPI   C3A 5529  15.215   2.868   7.923  0.1680 -0.1510  0.1964
  346loPI   C4A 5530  15.066   3.059   7.480 -0.0094 -0.0189 -0.1723
  346loPI   C5A 5531  15.381   3.200   7.171  0.3048 -0.0111  0.0113
  346loPI   C6A 5532  15.610   3.326   6.783 -0.1435  0.0150 -0.0687
  346loPI   C1B 5533  15.892   2.971   8.823 -0.0110  0.1746  0.2224
  346loPI   C2B 5534  15.967   2.869   8.371  0.4353 -0.0555 -0.1571
  346loPI   C3B 5535  15.976   2.490   8.166 -0.1753  0.0121  0.0645
  346loPI   C4B 5536  16.005   2.376   7.795 -0.3239  0.1797 -0.0876
  347loPI    C1 5537  19.417  17.629   9.225  0.0832 -0.0293  0.0575
  347loPI    C2 5538  19.653  17.531   9.532  0.0604  0.3227  0.1914
  347loPI    C3 5539  19.726  17.864   9.322  0.1631  0.0118 -0.2805
  347loPI   PO4 5540  19.132  17.617   9.317 -0.1119 -0.1719  0.2202
  347loPI   GL1 5541  18.853  17.617   8.968 -0.0096  0.1778 -0.2191
  347loPI   GL2 5542  19.059  17.391   8.853  0.0056  0.1319  0.2330
  347loPI   C1A 5543  18.689  17.641   8.614  0.0603 -0.1776 -0.0010
  347loPI   C2A 5544  18.662  17.463   8.263  0.1355 -0.1817  0.1088
  347loPI   C3A 5545  18.700  17.240   7.938 -0.2817 -0.1039  0.0519
  347loPI   C4A 5546  18.725  16.883   7.570 -0.1216  0.3042  0.0199
  347loPI   C5A 5547  18.910  16.685   7.223 -0.0683  0.0861  0.0080
  347loPI   C6A 5548  19.325  16.739   7.017 -0.2323 -0.0651 -0.0316
  347loPI   C1B 5549  19.026  17.112   8.508 -0.0002  0.3816 -0.0114
  347loPI   C2B 5550  19.059  16.895   8.052 -0.0276 -0.3507  0.1026
  347loPI   C3B 5551  18.967  16.451   7.841 -0.0189  0.0378  0.1974
  347loPI   C4B 5552  18.873  16.031   7.954  0.0420  0.3840  0.0559
  348loPI    C1 5553   2.536   5.744   9.561  0.3224 -0.0318  0.0877
  348loPI    C2 5554   2.424   5.823   9.937 -0.1549  0.0944 -0.0729
  348loPI    C3 5555   2.502   5.446   9.827  0.3844  0.1017  0.2467
  348loPI   PO4 5556   2.781   5.977   9.543 -0.1101  0.2908  0.0364
  348loPI   GL1 5557   2.770   6.331   9.207  0.1152 -0.1566 -0.1173
  348loPI   GL2 5558   2.978   6.416   9.487  0.3967 -0.0204 -0.0302
  348loPI   C1A 5559   2.783   6.088   8.883 -0.1077  0.2837 -0.1662
  348loPI   C2A 5560   2.695   5.880   8.406 -0.3367  0.0968 -0.0958
  348loPI   C3A 5561   2.717   5.873   7.980 -0.1173 -0.3539 -0.0802
  348loPI   C4A 5562   2.516   5.811   7.688  0.0928 -0.0453 -0.3168
  348loPI   C5A 5563   2.082   5.986   7.559  0.1374  0.1501  0.2547
  348loPI   C6A 5564   1.955   6.357   7.316 -0.4625 -0.2846  0.0314
  348loPI   C1B 5565   3.224   6.237   9.176 -0.0731  0.0224  0.0283
  348loPI   C2B 5566   3.354   6.113   8.774 -0.0581  0.0895 -0.1498
  348loPI   C3B 5567   3.485   6.051   8.276 -0.0997 -0.2254 -0.0691
  348loPI   C4B 5568   3.664   6.046   7.828 -0.0690 -0.1564 -0.2280
  349loPI    C1 5569  17.104   2.254   9.773  0.1201  0.0862  0.0611
  349loPI    C2 5570  17.228   1.903   9.628 -0.0437  0.0804 -0.0671
  349loPI    C3 5571  17.331   2.013   9.998  0.3149  0.0617 -0.1573
  349loPI   PO4 5572  17.074   2.478   9.596 -0.3437  0.1760 -0.0030
  349loPI   GL1 5573  17.110   2.692   9.229 -0.1417  0.1694 -0.3268
  349loPI   GL2 5574  17.070   2.587   9.020 -0.1060  0.0939 -0.2603
  349loPI   C1A 5575  17.672   2.788   9.086  0.1988 -0.0562 -0.0475
  349loPI   C2A 5576  17.699   3.083   8.932  0.2747  0.1677  0.0465
  349loPI   C3A 5577  17.894   3.343   8.580  0.1555  0.1137  0.0590
  349loPI   C4A 5578  17.991   3.393   8.108 -0.0067  0.1622  0.0415
  349loPI   C5A 5579  18.269   3.556   7.872 -0.1285  0.2237 -0.0273
  349loPI   C6A 5580  18.209   3.527   7.367 -0.4135  0.1082  0.0062
  349loPI   C1B 5581  17.362   2.417   8.645 -0.0831  0.2193  0.0708
  349loPI   C2B 5582  17.613   2.282   8.301 -0.2229 -0.1429  0.0196
  349loPI   C3B 5583  17.477   2.125   7.872  0.0306  0.0500 -0.0441
  349loPI   C4B 5584  17.197   1.753   7.777 -0.2812  0.0603  0.0512
  350loPI    C1 5585   6.099   2.135   9.489 -0.1337 -0.2406 -0.0482
  350loPI    C2 5586   6.279   2.088   9.843 -0.3221 -0.1142  0.0670
  350loPI    C3 5587   6.078   2.424   9.765 -0.3484 -0.1746 -0.1316
  350loPI   PO4 5588   6.241   2.061   9.361  0.1193 -0.2159 -0.1544
  350loPI   GL1 5589   6.477   2.097   8.965 -0.2305  0.0591 -0.1870
  350loPI   GL2 5590   6.682   1.847   9.044  0.0276 -0.3678 -0.2058
  350loPI   C1A 5591   6.331   2.108   8.636 -0.0677  0.1653  0.0433
  350loPI   C2A 5592   6.113   2.206   8.150 -0.0152  0.1555 -0.1367
  350loPI   C3A 5593   5.969   2.039   7.779  0.2188  0.1266 -0.1322
  350loPI   C4A 5594   6.095   2.130   7.432 -0.1630  0.2290  0.1331
  350loPI   C5A 5595   5.926   2.247   7.155 -0.0569 -0.0862 -0.0847
  350loPI   C6A 5596   5.604   2.392   6.900 -0.2118 -0.5309  0.0271
  350loPI   C1B 5597   6.560   1.690   8.639  0.0749  0.3206 -0.0416
  350loPI   C2B 5598   6.638   1.874   8.254 -0.1323  0.2560 -0.1871
  350loPI   C3B 5599   6.494   2.148   7.813  0.2577  0.3804 -0.4979
  350loPI   C4B 5600   6.444   2.540   7.735  0.2658  0.1712 -0.4282
  351loPI    C1 5601   4.675  18.081   9.578  0.0234 -0.0924  0.1099
  351loPI    C2 5602   5.020  18.217   9.728  0.0239 -0.0194  0.0437
  351loPI    C3 5603   4.797  17.961   9.939  0.0808 -0.0071  0.1193
  351loPI   PO4 5604   4.786  17.981   9.255 -0.3309 -0.1071  0.1159
  351loPI   GL1 5605   4.908  18.190   8.770  0.1536  0.1255 -0.2467
  351loPI   GL2 5606   4.930  18.606   8.884  0.1821  0.3717  0.0655
  351loPI   C1A 5607   4.823  18.208   8.460 -0.1053 -0.0722  0.2645
  351loPI   C2A 5608   4.717  18.120   8.095  0.3336 -0.0827 -0.1613
  351loPI   C3A 5609   4.741  17.868   7.737  0.4120 -0.3188 -0.0089
  351loPI   C4A 5610   4.832  17.622   7.445 -0.0796  0.1984  0.0373
  351loPI   C5A 5611   4.854  17.338   7.188  0.1299  0.2059 -0.0956
  351loPI   C6A 5612   4.696  17.089   6.829  0.1603 -0.1524 -0.1333
  351loPI   C1B 5613   4.751  18.663   8.416 -0.1962 -0.0219 -0.1236
  351loPI   C2B 5614   4.840  18.662   7.975  0.0601  0.0227  0.0696
  351loPI   C3B 5615   4.772  18.313   7.579  0.1516 -0.0213  0.0684
  351loPI   C4B 5616   4.694  18.083   7.209  0.0210 -0.0559  0.0505
  352loPI    C1 5617   6.862   3.390   9.516 -0.0472 -0.1925  0.4206
  352loPI    C2 5618   7.252   3.335   9.451 -0.0692  0.1631 -0.0652
  352loPI    C3 5619   7.125   3.456   9.810  0.2494 -0.0798  0.1357
  352loPI   PO4 5620   6.798   3.553   9.355  0.0697 -0.0133  0.0425
  352loPI   GL1 5621   6.887   3.552   8.982 -0.3504 -0.0840  0.1414
  352loPI   GL2 5622   6.977   3.233   9.041  0.0490  0.0358 -0.2207
  352loPI   C1A 5623   6.616   3.522   8.669  0.3307  0.1031 -0.1773
  352loPI   C2A 5624   6.654   3.416   8.276 -0.1072 -0.0754  0.1060
  352loPI   C3A 5625   6.909   3.448   8.104 -0.0908  0.0553 -0.2854
  352loPI   C4A 5626   7.221   3.664   7.933  0.0065  0.2541  0.3928
  352loPI   C5A 5627   7.273   3.798   7.444  0.1345  0.1815 -0.0400
  352loPI   C6A 5628   7.591   3.620   7.078  0.2283  0.2303 -0.0593
  352loPI   C1B 5629   7.265   3.321   8.628  0.1179  0.2043  0.0741
  352loPI   C2B 5630   7.380   3.369   8.280  0.1590 -0.1261 -0.0790
  352loPI   C3B 5631   7.728   3.554   8.003  0.3007  0.0041 -0.5174
  352loPI   C4B 5632   8.049   3.798   8.063 -0.0767  0.1155  0.1985
  353loPI    C1 5633  17.798   6.411   9.853 -0.0499  0.3854  0.0217
  353loPI    C2 5634  18.054   6.495  10.149  0.2671 -0.2127 -0.0657
  353loPI    C3 5635  17.665   6.580  10.190  0.3542 -0.0009  0.3877
  353loPI   PO4 5636  17.897   6.214   9.753  0.1813  0.2796 -0.3908
  353loPI   GL1 5637  18.073   6.023   9.410  0.5465  0.1879 -0.3996
  353loPI   GL2 5638  17.999   5.941   9.154 -0.0976  0.1752 -0.2537
  353loPI   C1A 5639  18.380   6.240   9.127  0.0535  0.2041 -0.1492
  353loPI   C2A 5640  18.591   6.531   8.710 -0.0777 -0.1243  0.0214
  353loPI   C3A 5641  18.727   6.382   8.253 -0.0342  0.0514  0.1714
  353loPI   C4A 5642  18.553   6.109   7.894 -0.0203  0.3783  0.1031
  353loPI   C5A 5643  18.121   6.218   7.681  0.1311 -0.1053  0.1223
  353loPI   C6A 5644  17.908   5.963   7.471 -0.2991 -0.0742  0.0357
  353loPI   C1B 5645  18.197   6.121   8.716  0.0737 -0.2882  0.0346
  353loPI   C2B 5646  18.242   6.442   8.335  0.2234 -0.1690  0.2260
  353loPI   C3B 5647  18.398   6.570   7.841 -0.1523 -0.1793  0.3240
  353loPI   C4B 5648  18.284   6.622   7.406  0.2275 -0.0385 -0.1384
  354loPI    C1 5649   2.933   3.491   9.363 -0.0293 -0.5161  0.3395
  354loPI    C2 5650   2.673   3.596   9.648 -0.1071 -0.1226  0.1314
  354loPI    C3 5651   3.063   3.665   9.699 -0.0900 -0.3044  0.2556
  354loPI   PO4 5652   2.882   3.622   9.142 -0.0876 -0.3080 -0.5371
  354loPI   GL1 5653   2.714   3.727   8.757  0.1380  0.2044 -0.2305
  354loPI   GL2 5654   2.581   4.045   8.872 -0.0101 -0.3494 -0.0700
  354loPI   C1A 5655   2.918   3.666   8.371 -0.0932  0.1832  0.1532
  354loPI   C2A 5656   2.866   3.676   7.950 -0.0411  0.1978  0.2084
  354loPI   C3A 5657   2.720   3.600   7.444 -0.3547  0.0383 -0.0857
  354loPI   C4A 5658   2.526   3.512   7.080 -0.2576 -0.0909 -0.1245
  354loPI   C5A 5659   2.280   3.311   6.613 -0.1416  0.0684 -0.0588
  354loPI   C6A 5660   2.084   3.138   6.288 -0.0573 -0.0179 -0.3452
  354loPI   C1B 5661   2.645   4.397   8.645  0.0675 -0.1666 -0.0704
  354loPI   C2B 5662   2.500   4.517   8.247  0.0519 -0.1494 -0.2262
  354loPI   C3B 5663   2.473   4.511   7.867 -0.0287  0.0219  0.5585
  354loPI   C4B 5664   2.297   4.798   7.471 -0.0138  0.3010  0.1222
  355loPI    C1 5665  10.560   3.375   9.518  0.0477 -0.2268  0.0259
  355loPI    C2 5666  10.785   3.546   9.801  0.1882  0.2203 -0.3426
  355loPI    C3 5667  10.416   3.420   9.888  0.3210  0.1166  0.0965
  355loPI   PO4 5668  10.614   3.572   9.300  0.1052 -0.1862 -0.3578
  355loPI   GL1 5669  10.415   3.686   8.897  0.0261 -0.0336 -0.1604
  355loPI   GL2 5670  10.393   3.926   9.034 -0.1011 -0.6928 -0.1246
  355loPI   C1A 5671  10.427   3.673   8.457 -0.0196  0.1934 -0.2906
  355loPI   C2A 5672  10.386   3.377   7.998  0.0096  0.3413  0.1421
  355loPI   C3A 5673  10.511   3.195   7.632 -0.2359  0.0855 -0.2394
  355loPI   C4A 5674  10.312   3.394   7.248 -0.0494 -0.2651 -0.2218
  355loPI   C5A 5675  10.457   3.775   7.008  0.1519 -0.1040  0.2467
  355loPI   C6A 5676  10.795   4.118   7.049 -0.0728  0.0131  0.1740
  355loPI   C1B 5677  10.509   4.141   8.688  0.0258 -0.0465 -0.0306
  355loPI   C2B 5678  10.602   4.194   8.280  0.1951 -0.0437  0.4098
  355loPI   C3B 5679  10.496   3.919   7.919 -0.0987  0.0023  0.2325
  355loPI   C4B 5680  10.557   3.802   7.525  0.4737 -0.0685 -0.2690
  356loPI    C1 5681   3.138  11.673  10.529 -0.0756  0.0752 -0.0424
  356loPI    C2 5682   3.335  11.358  10.678  0.1020  0.0870 -0.2465
  356loPI    C3 5683   3.300  11.693  10.894 -0.0470 -0.0543 -0.0477
  356loPI   PO4 5684   3.325  11.565  10.218 -0.2161  0.2742 -0.4777
  356loPI   GL1 5685   3.205  11.528   9.869  0.3203  0.0428 -0.1081
  356loPI   GL2 5686   3.106  11.215   9.782 -0.0090 -0.0358  0.5249
  356loPI   C1A 5687   3.120  11.653   9.455  0.3524  0.1574  0.0112
  356loPI   C2A 5688   3.161  11.634   9.088  0.2006 -0.1394  0.1654
  356loPI   C3A 5689   3.377  11.588   8.758  0.2988 -0.1577 -0.1179
  356loPI   C4A 5690   3.360  11.565   8.390 -0.0163 -0.1388 -0.1917
  356loPI   C5A 5691   3.074  11.669   7.995 -0.2200  0.3494  0.2328
  356loPI   C6A 5692   2.950  11.991   7.900 -0.1894 -0.0081 -0.0377
  356loPI   C1B 5693   2.717  11.369   9.523  0.3649 -0.1032 -0.0747
  356loPI   C2B 5694   2.658  11.511   9.127 -0.0747  0.2075 -0.2935
  356loPI   C3B 5695   2.428  11.480   8.732  0.0025 -0.0991 -0.0318
  356loPI   C4B 5696   2.201  11.571   8.392  0.2150 -0.0374  0.0346
  357loPI    C1 5697   8.137   9.032   9.776  0.0491 -0.1667  0.0464
  357loPI    C2 5698   7.768   8.994   9.626 -0.0190  0.1317  0.1324
  357loPI    C3 5699   7.829   9.216   9.953  0.2447  0.1251  0.0898
  357loPI   PO4 5700   8.260   9.276   9.542  0.0169  0.0493  0.1526
  357loPI   GL1 5701   8.073   9.411   9.163 -0.0638 -0.0918  0.0057
  357loPI   GL2 5702   8.041   9.085   9.042  0.2369 -0.2132 -0.1996
  357loPI   C1A 5703   8.090   9.706   8.779  0.0056 -0.1220 -0.0146
  357loPI   C2A 5704   8.022   9.802   8.326  0.4297  0.0482  0.0322
  357loPI   C3A 5705   8.041   9.649   8.043 -0.0714  0.1833  0.3524
  357loPI   C4A 5706   8.024   9.440   7.676 -0.3081  0.0834  0.0730
  357loPI   C5A 5707   8.027   9.476   7.222  0.3854  0.0273  0.0339
  357loPI   C6A 5708   7.775   9.539   6.818  0.0219  0.1823 -0.0800
  357loPI   C1B 5709   7.751   9.049   8.778  0.1589 -0.1353 -0.1523
  357loPI   C2B 5710   7.545   8.721   8.537  0.2389 -0.3079  0.3808
  357loPI   C3B 5711   7.298   8.915   8.199  0.1156  0.1484 -0.4578
  357loPI   C4B 5712   7.231   8.752   7.778  0.0543  0.0266  0.2116
  358loPI    C1 5713  17.613  18.476   9.563  0.1966  0.2073  0.0026
  358loPI    C2 5714  17.913  18.456   9.298  0.2296 -0.1595  0.0616
  358loPI    C3 5715  17.985  18.395   9.687  0.1270  0.0565  0.1163
  358loPI   PO4 5716  17.442  18.335   9.465  0.0526  0.1043  0.2994
  358loPI   GL1 5717  17.213  18.309   9.141  0.0753  0.1980  0.1577
  358loPI   GL2 5718  17.588  18.094   9.062  0.1967 -0.3092  0.0868
  358loPI   C1A 5719  17.422  18.663   8.972  0.1306  0.1370  0.1584
  358loPI   C2A 5720  17.436  18.818   8.615  0.2761 -0.0534 -0.0841
  358loPI   C3A 5721  17.623  18.781   8.219  0.0238  0.0368  0.0956
  358loPI   C4A 5722  17.567  18.949   7.770  0.0272  0.0569 -0.1567
  358loPI   C5A 5723  17.439  19.024   7.339  0.1680  0.3595 -0.0431
  358loPI   C6A 5724  17.306  18.930   6.986  0.0302 -0.0181  0.1389
  358loPI   C1B 5725  17.718  17.844   8.652 -0.1200 -0.0754 -0.1567
  358loPI   C2B 5726  17.808  17.783   8.283 -0.2668 -0.3285  0.3063
  358loPI   C3B 5727  18.174  17.620   8.087 -0.0668  0.3023  0.0905
  358loPI   C4B 5728  18.362  17.576   7.808 -0.1226  0.0146  0.1915
  359loPI    C1 5729   5.400  17.444   9.364 -0.1056  0.1340 -0.2402
  359loPI    C2 5730   5.655  17.645   9.131 -0.0016  0.1420 -0.1204
  359loPI    C3 5731   5.761  17.544   9.503 -0.0754 -0.0828 -0.1589
  359loPI   PO4 5732   5.317  17.281   9.186 -0.0419 -0.0978  0.1249
  359loPI   GL1 5733   5.478  17.129   8.866  0.1540 -0.1548 -0.1813
  359loPI   GL2 5734   5.543  17.039   8.506 -0.0255  0.1020 -0.3066
  359loPI   C1A 5735   5.495  17.589   8.635  0.0979  0.3626 -0.1039
  359loPI   C2A 5736   5.564  17.823   8.338  0.4326 -0.0010  0.0826
  359loPI   C3A 5737   5.596  17.964   7.905 -0.3599  0.3875  0.0070
  359loPI   C4A 5738   5.247  17.886   7.520 -0.1367 -0.0766 -0.0085
  359loPI   C5A 5739   5.149  17.993   7.164  0.2544 -0.1266  0.2770
  359loPI   C6A 5740   5.036  18.389   7.017 -0.1006  0.3122 -0.1099
  359loPI   C1B 5741   6.112  16.903   8.406  0.0057 -0.0568 -0.0584
  359loPI   C2B 5742   6.272  17.118   7.939  0.2167  0.2692  0.0956
  359loPI   C3B 5743   6.423  17.068   7.556 -0.0748  0.1239 -0.2269
  359loPI   C4B 5744   6.399  16.865   7.142  0.2915  0.1633 -0.0319
  360loPI    C1 5745   0.113   1.282   9.592  0.0068 -0.2355  0.2770
  360loPI    C2 5746  -0.229   1.363   9.401  0.1135 -0.0775  0.1511
  360loPI    C3 5747  -0.215   1.376   9.800  0.0970  0.4301  0.1426
  360loPI   PO4 5748   0.159   1.034   9.422 -0.0439  0.0872 -0.0983
  360loPI   GL1 5749   0.248   0.907   8.976  0.2152  0.0472  0.3664
  360loPI   GL2 5750   0.549   0.675   9.079 -0.0049 -0.0779  0.5642
  360loPI   C1A 5751   0.152   0.943   8.641  0.1071 -0.4008  0.0605
  360loPI   C2A 5752   0.327   0.933   8.241  0.2527 -0.0286  0.0478
  360loPI   C3A 5753   0.403   0.790   7.855 -0.3612 -0.3567 -0.2960
  360loPI   C4A 5754   0.485   0.715   7.480  0.2458  0.1046  0.1895
  360loPI   C5A 5755   0.509   0.445   7.202 -0.0240 -0.0640  0.1272
  360loPI   C6A 5756   0.572   0.356   6.751  0.0737 -0.3078 -0.0552
  360loPI   C1B 5757   0.530   0.571   8.630 -0.0562  0.1405  0.1574
  360loPI   C2B 5758   0.604   0.465   8.191 -0.1136 -0.1190  0.1177
  360loPI   C3B 5759   0.673   0.395   7.771  0.2103 -0.3344  0.3440
  360loPI   C4B 5760   1.033   0.488   7.482 -0.2621  0.0904 -0.2628
  361loPI    C1 5761   4.706  19.016   9.302  0.0670 -0.0894  0.0447
  361loPI    C2 5762   4.617  18.899   9.674  0.1118 -0.1899  0.0242
  361loPI    C3 5763   4.352  18.847   9.379 -0.0342  0.1393  0.0919
  361loPI   PO4 5764   4.831  19.265   9.303 -0.0474 -0.0857 -0.2467
  361loPI   GL1 5765   4.780  19.557   9.069  0.1232 -0.3651  0.2365
  361loPI   GL2 5766   4.563  19.675   8.843 -0.2525 -0.0135 -0.2012
  361loPI   C1A 5767   5.024  19.634   8.622 -0.6304  0.0064  0.1313
  361loPI   C2A 5768   5.214  19.617   8.106  0.2991 -0.2762  0.3828
  361loPI   C3A 5769   5.232  19.752   7.660  0.2921  0.0358 -0.2010
  361loPI   C4A 5770   5.277  19.765   7.248 -0.0542 -0.3968 -0.0008
  361loPI   C5A 5771   5.169  19.498   6.909 -0.0495 -0.0906  0.2134
  361loPI   C6A 5772   5.427  19.284   6.740 -0.0651 -0.0693 -0.1314
  361loPI   C1B 5773   4.602  19.620   8.423  0.1056  0.0220 -0.1013
  361loPI   C2B 5774   4.664  19.694   7.976 -0.1198 -0.1298 -0.0089
  361loPI   C3B 5775   4.685  19.596   7.527  0.0126  0.2414  0.1052
  361loPI   C4B 5776   4.956  19.361   7.327 -0.0833  0.0229  0.1249
  362loPI    C1 5777  10.386  18.612   9.870 -0.0165 -0.0915 -0.1612
  362loPI    C2 5778  10.021  18.454   9.911 -0.0707  0.0581 -0.0590
  362loPI    C3 5779  10.279  18.443  10.216  0.0462 -0.1345 -0.1628
  362loPI   PO4 5780  10.440  18.597   9.687 -0.2834  0.0329 -0.2597
  362loPI   GL1 5781  10.261  18.574   9.336  0.3172  0.0369 -0.2494
  362loPI   GL2 5782  10.164  18.937   9.127  0.1393 -0.0932  0.1263
  362loPI   C1A 5783  10.228  18.491   9.020  0.0250 -0.1279  0.0795
  362loPI   C2A 5784  10.403  18.466   8.603  0.3237  0.0345 -0.0159
  362loPI   C3A 5785  10.326  18.406   8.196 -0.1542 -0.1006 -0.0223
  362loPI   C4A 5786  10.511  18.475   7.806  0.0237  0.1081  0.2374
  362loPI   C5A 5787  10.634  18.677   7.455 -0.0720 -0.1067 -0.0302
  362loPI   C6A 5788  10.795  18.561   7.037 -0.1185 -0.4657  0.0960
  362loPI   C1B 5789  10.154  18.911   8.628  0.2793  0.0616 -0.2388
  362loPI   C2B 5790  10.164  18.881   8.193  0.0947 -0.0728  0.0366
  362loPI   C3B 5791  10.196  18.928   7.687  0.3518  0.0585 -0.1809
  362loPI   C4B 5792  10.586  19.145   7.632 -0.1509  0.0048 -0.0780
  363loPI    C1 5793  15.058  13.208   9.155 -0.0076  0.1029 -0.1478
  363loPI    C2 5794  15.331  13.229   8.864  0.1618 -0.0360 -0.0011
  363loPI    C3 5795  15.350  13.480   9.175  0.0582  0.0259 -0.0443
  363loPI   PO4 5796  14.833  13.161   9.028 -0.0805 -0.0339  0.1818
  363loPI   GL1 5797  14.552  13.004   8.755  0.1170  0.3647 -0.2170
  363loPI   GL2 5798  14.471  13.355   8.750 -0.2373  0.0051 -0.0840
  363loPI   C1A 5799  14.607  12.918   8.334  0.1000  0.0166 -0.0383
  363loPI   C2A 5800  14.417  12.895   7.966 -0.1432 -0.1409  0.0493
  363loPI   C3A 5801  14.371  13.102   7.720  0.0397  0.2498  0.0394
  363loPI   C4A 5802  14.677  13.439   7.494 -0.2308  0.0813 -0.1334
  363loPI   C5A 5803  14.777  13.576   7.046 -0.0040 -0.2484 -0.1936
  363loPI   C6A 5804  14.670  13.748   6.681  0.5613  0.1361  0.0558
  363loPI   C1B 5805  14.541  13.422   8.301  0.2732  0.1530 -0.3091
  363loPI   C2B 5806  14.706  13.640   7.951 -0.3205 -0.1066  0.3529
  363loPI   C3B 5807  14.740  13.917   7.614 -0.0479 -0.0321  0.0473
  363loPI   C4B 5808  14.486  14.050   7.168 -0.1572  0.3037 -0.0221
  364loPI    C1 5809  11.860   6.439   9.899 -0.2481  0.1036  0.1925
  364loPI    C2 5810  11.579   6.200  10.055 -0.1642  0.0553  0.2705
  364loPI    C3 5811  11.934   6.236  10.236 -0.1402  0.1607  0.2034
  364loPI   PO4 5812  11.847   6.422   9.635 -0.1042 -0.1745 -0.0742
  364loPI   GL1 5813  11.792   6.562   9.152  0.2887 -0.2726 -0.0917
  364loPI   GL2 5814  11.437   6.521   9.206  0.2625  0.0499 -0.0750
  364loPI   C1A 5815  11.902   6.786   8.768 -0.2565 -0.1746 -0.1666
  364loPI   C2A 5816  11.839   7.027   8.452 -0.3243  0.4089 -0.0608
  364loPI   C3A 5817  11.905   7.192   8.013  0.1490 -0.0963 -0.0384
  364loPI   C4A 5818  11.741   7.327   7.605  0.3248  0.2248  0.2475
  364loPI   C5A 5819  11.655   7.219   7.192 -0.2963 -0.4428 -0.0385
  364loPI   C6A 5820  11.465   7.224   6.745  0.3153  0.0003  0.2620
  364loPI   C1B 5821  11.362   6.497   8.806 -0.1730  0.0757  0.0796
  364loPI   C2B 5822  11.450   6.757   8.417 -0.2788  0.3426 -0.0789
  364loPI   C3B 5823  11.504   6.609   7.979 -0.0399 -0.0350 -0.2474
  364loPI   C4B 5824  11.667   6.820   7.613 -0.0197 -0.3210  0.3853
  365loPI    C1 5825  12.341   9.754   9.623 -0.0065  0.1480 -0.1058
  365loPI    C2 5826  12.146   9.635   9.951 -0.0595  0.1733 -0.1280
  365loPI    C3 5827  12.523   9.764   9.978  0.0988 -0.2693 -0.1426
  365loPI   PO4 5828  12.352   9.546   9.353  0.0785  0.3485  0.0899
  365loPI   GL1 5829  12.264   9.332   8.949 -0.0822 -0.0925  0.2819
  365loPI   GL2 5830  12.543   9.231   8.968  0.0092  0.0779 -0.1281
  365loPI   C1A 5831  11.998   9.265   8.611 -0.1017  0.2006  0.0888
  365loPI   C2A 5832  12.167   9.222   8.211 -0.1238 -0.1120  0.0359
  365loPI   C3A 5833  12.255   8.988   7.789  0.0266 -0.1972  0.0331
  365loPI   C4A 5834  12.378   8.568   7.468  0.1633  0.1124 -0.2960
  365loPI   C5A 5835  12.776   8.557   7.142 -0.3459  0.1125 -0.1622
  365loPI   C6A 5836  12.943   8.456   6.738 -0.1216  0.1242  0.0458
  365loPI   C1B 5837  12.553   9.103   8.519 -0.0411  0.0139 -0.2645
  365loPI   C2B 5838  12.521   8.905   8.204  0.0509 -0.4230 -0.0035
  365loPI   C3B 5839  12.368   8.428   7.994  0.1213 -0.3791  0.1715
  365loPI   C4B 5840  12.502   8.196   7.742 -0.0450 -0.1512  0.2086
  366loPI    C1 5841  12.597   1.625   9.241  0.0398  0.1058 -0.0458
  366loPI    C2 5842  12.715   1.816   9.572  0.0695 -0.1434  0.0896
  366loPI    C3 5843  12.520   1.468   9.601 -0.0733 -0.0855 -0.1518
  366loPI   PO4 5844  12.785   1.724   9.065  0.0623 -0.0133 -0.1269
  366loPI   GL1 5845  12.947   1.605   8.816 -0.3583 -0.1712  0.1190
  366loPI   GL2 5846  12.609   1.435   8.696  0.1358 -0.4283 -0.1025
  366loPI   C1A 5847  13.097   1.773   8.407 -0.2417  0.3057  0.1413
  366loPI   C2A 5848  12.987   1.823   7.994  0.0190  0.1636  0.1999
  366loPI   C3A 5849  13.126   1.643   7.651 -0.2550 -0.2744 -0.2334
  366loPI   C4A 5850  13.263   1.521   7.280 -0.0593 -0.1768 -0.0825
  366loPI   C5A 5851  13.383   1.158   6.995  0.1060 -0.2116  0.0860
  366loPI   C6A 5852  13.710   0.875   7.093  0.1876  0.1622 -0.1386
  366loPI   C1B 5853  12.932   1.335   8.309  0.0047  0.2462 -0.0276
  366loPI   C2B 5854  12.956   1.227   7.879  0.0715  0.1418 -0.3232
  366loPI   C3B 5855  13.042   0.835   7.817 -0.1605 -0.1206  0.2161
  366loPI   C4B 5856  12.816   0.518   7.627  0.0869 -0.0377  0.4794
  367loPI    C1 5857   8.819   5.479  10.190  0.1757  0.0213 -0.0693
  367loPI    C2 5858   8.741   5.824  10.377  0.2675 -0.0353  0.0749
  367loPI    C3 5859   8.920   5.525  10.575 -0.1938 -0.3203  0.0754
  367loPI   PO4 5860   8.934   5.588   9.966  0.0032 -0.2636  0.0142
  367loPI   GL1 5861   8.876   5.938   9.675  0.2023  0.2043  0.1644
  367loPI   GL2 5862   9.070   6.094   9.813 -0.1899  0.0054  0.1583
  367loPI   C1A 5863   8.923   6.138   9.207  0.0329 -0.0550 -0.3516
  367loPI   C2A 5864   9.204   6.089   8.876  0.1722  0.1557  0.1429
  367loPI   C3A 5865   9.249   5.991   8.425  0.2455  0.1118  0.2869
  367loPI   C4A 5866   9.274   5.871   7.967 -0.2062  0.3013  0.0430
  367loPI   C5A 5867   9.537   5.887   7.568  0.2415  0.5936 -0.3224
  367loPI   C6A 5868   9.718   5.479   7.458 -0.1413  0.3013  0.1382
  367loPI   C1B 5869   9.393   6.075   9.427 -0.0485  0.0960  0.2443
  367loPI   C2B 5870   9.489   6.407   9.214  0.1319 -0.1883 -0.1743
  367loPI   C3B 5871   9.552   6.636   8.937  0.2862  0.1099  0.1185
  367loPI   C4B 5872   9.617   6.753   8.517 -0.0482  0.0494  0.1607
  368loPI    C1 5873  18.985   8.766  10.180  0.0658 -0.1755 -0.1608
  368loPI    C2 5874  19.160   8.936  10.497 -0.0303  0.0092 -0.2049
  368loPI    C3 5875  19.177   8.539  10.448  0.0250 -0.0162  0.0061
  368loPI   PO4 5876  19.098   8.955   9.898  0.1537  0.4088  0.5509
  368loPI   GL1 5877  19.190   9.007   9.462 -0.0618 -0.0516  0.2718
  368loPI   GL2 5878  19.108   9.377   9.392  0.1426  0.0472  0.3021
  368loPI   C1A 5879  19.039   9.142   8.997  0.2031 -0.1109  0.0059
  368loPI   C2A 5880  19.333   9.307   8.585  0.0840  0.3461  0.1642
  368loPI   C3A 5881  19.513   9.168   8.136  0.0716  0.0821 -0.0563
  368loPI   C4A 5882  19.403   8.732   8.031 -0.0493  0.0468 -0.0432
  368loPI   C5A 5883  19.324   8.360   8.121  0.1856  0.0201 -0.0413
  368loPI   C6A 5884  19.243   8.265   8.571 -0.1863 -0.1970 -0.0790
  368loPI   C1B 5885  19.089   9.817   9.239 -0.1755  0.0987 -0.3708
  368loPI   C2B 5886  18.802  10.022   9.080 -0.0046 -0.0323  0.0168
  368loPI   C3B 5887  18.498  10.020   8.731 -0.1747  0.1035  0.0303
  368loPI   C4B 5888  18.014   9.917   8.647  0.1672  0.2318  0.1169
  369loPI    C1 5889   2.950   8.143  10.133  0.0519  0.2276  0.0160
  369loPI    C2 5890   2.811   8.518  10.120  0.1175  0.2488 -0.0872
  369loPI    C3 5891   3.024   8.394  10.435 -0.0315  0.2524  0.0161
  369loPI   PO4 5892   2.740   7.944   9.967  0.1547 -0.0162  0.2980
  369loPI   GL1 5893   2.616   7.991   9.562  0.1677 -0.0518  0.4535
  369loPI   GL2 5894   3.002   7.846   9.425  0.1061 -0.0752  0.3761
  369loPI   C1A 5895   2.433   7.818   9.203  0.2626  0.1644 -0.0497
  369loPI   C2A 5896   2.363   7.702   8.792  0.0634 -0.0846 -0.0322
  369loPI   C3A 5897   2.460   7.562   8.445  0.0500  0.1820 -0.0875
  369loPI   C4A 5898   2.649   7.534   8.099 -0.2917 -0.2414  0.0287
  369loPI   C5A 5899   2.756   7.684   7.735  0.2045 -0.1258 -0.0863
  369loPI   C6A 5900   3.098   7.880   7.466 -0.2397 -0.0212  0.0452
  369loPI   C1B 5901   2.933   7.901   8.915  0.1859  0.1574  0.0341
  369loPI   C2B 5902   2.880   7.972   8.434  0.0415  0.1982  0.1413
  369loPI   C3B 5903   2.932   8.086   7.930 -0.0058 -0.1056  0.0627
  369loPI   C4B 5904   2.910   8.367   7.587 -0.2015  0.1012  0.0568
  370loPI    C1 5905  10.494   9.880   9.688 -0.1336  0.0270 -0.0693
  370loPI    C2 5906  10.148   9.708   9.585  0.0104 -0.1989 -0.1845
  370loPI    C3 5907  10.237   9.764   9.971 -0.1947 -0.0526 -0.1570
  370loPI   PO4 5908  10.452  10.120   9.505  0.0735 -0.1077 -0.0458
  370loPI   GL1 5909  10.248  10.192   9.071 -0.1228 -0.5187 -0.3124
  370loPI   GL2 5910  10.538  10.364   9.006 -0.3125 -0.1173 -0.1496
  370loPI   C1A 5911   9.960  10.242   8.770  0.2469  0.0904 -0.0366
  370loPI   C2A 5912  10.022  10.078   8.402 -0.1125  0.4000  0.3835
  370loPI   C3A 5913  10.065   9.905   8.077 -0.1873  0.0917 -0.1684
  370loPI   C4A 5914   9.790  10.080   7.826 -0.0071  0.1519 -0.1784
  370loPI   C5A 5915   9.439  10.112   7.512  0.0238  0.3538 -0.0917
  370loPI   C6A 5916   9.160  10.302   7.311  0.1619 -0.0458  0.3044
  370loPI   C1B 5917  10.624  10.211   8.585 -0.2833  0.1033  0.0260
  370loPI   C2B 5918  10.517  10.102   8.120  0.3510  0.1064  0.3076
  370loPI   C3B 5919  10.619   9.988   7.776 -0.0667 -0.1634 -0.1164
  370loPI   C4B 5920  10.499   9.658   7.672 -0.2006 -0.2776 -0.0927
  371loPI    C1 5921  11.346   5.648   9.828 -0.2187 -0.2200  0.1640
  371loPI    C2 5922  11.127   5.950   9.973 -0.0101  0.0937 -0.1580
  371loPI    C3 5923  11.347   5.725  10.220  0.0251  0.3614  0.0589
  371loPI   PO4 5924  11.579   5.734   9.736 -0.0927 -0.0428  0.0443
  371loPI   GL1 5925  11.590   5.706   9.385  0.1767 -0.1749  0.2462
  371loPI   GL2 5926  11.928   5.891   9.375  0.0997 -0.4552  0.2355
  371loPI   C1A 5927  11.555   5.898   8.969  0.1875  0.1315  0.0413
  371loPI   C2A 5928  11.737   6.135   8.712  0.2747 -0.3015  0.1958
  371loPI   C3A 5929  11.872   6.402   8.364 -0.1550  0.0519  0.0627
  371loPI   C4A 5930  11.989   6.579   7.980 -0.0844 -0.1806 -0.0977
  371loPI   C5A 5931  11.978   6.488   7.568 -0.0031 -0.1574  0.0680
  371loPI   C6A 5932  12.306   6.319   7.303 -0.1555  0.0272 -0.3445
  371loPI   C1B 5933  12.050   5.777   8.923 -0.0765  0.0393 -0.2125
  371loPI   C2B 5934  11.959   5.706   8.600  0.1238  0.1144  0.3051
  371loPI   C3B 5935  11.588   5.713   8.300  0.0434  0.2871 -0.0917
  371loPI   C4B 5936  11.429   5.731   7.823 -0.0241  0.0880  0.2052
  372loPI    C1 5937  10.364   9.324   9.727  0.0107  0.3925 -0.0004
  372loPI    C2 5938  10.611   9.343  10.040  0.2717  0.2836 -0.1956
  372loPI    C3 5939  10.220   9.281  10.097  0.3172  0.2589  0.1065
  372loPI   PO4 5940  10.447   9.182   9.547  0.1081 -0.0218  0.0412
  372loPI   GL1 5941  10.764   9.149   9.210 -0.3138  0.0874  0.0236
  372loPI   GL2 5942  11.004   9.018   9.189  0.0141 -0.0270 -0.0792
  372loPI   C1A 5943  10.665   9.230   8.800  0.0903  0.1203  0.1094
  372loPI   C2A 5944  10.318   9.056   8.600 -0.2468  0.2146  0.0567
  372loPI   C3A 5945  10.105   8.967   8.249 -0.1601 -0.0128  0.1364
  372loPI   C4A 5946   9.931   8.952   7.791  0.0432  0.0650 -0.1918
  372loPI   C5A 5947   9.899   8.985   7.345 -0.1091  0.4750  0.0856
  372loPI   C6A 5948  10.054   8.886   6.800  0.0116  0.4684  0.0208
  372loPI   C1B 5949  11.116   9.025   8.788  0.2132  0.1946 -0.2595
  372loPI   C2B 5950  11.092   8.763   8.436  0.2755  0.1694 -0.2690
  372loPI   C3B 5951  10.901   8.684   8.141 -0.2108 -0.1443 -0.0662
  372loPI   C4B 5952  11.024   8.632   7.747  0.1726 -0.0771 -0.1674
  373loPI    C1 5953  17.347   3.828   9.721  0.1969  0.1449  0.1017
  373loPI    C2 5954  17.249   3.877  10.106 -0.2020  0.0098  0.0226
  373loPI    C3 5955  17.143   3.543   9.913 -0.1057  0.1258 -0.2367
  373loPI   PO4 5956  17.347   4.031   9.550 -0.2265 -0.2638 -0.0945
  373loPI   GL1 5957  17.156   4.127   9.164 -0.2600  0.0918 -0.0051
  373loPI   GL2 5958  17.178   4.367   9.035  0.0885  0.1202 -0.2604
  373loPI   C1A 5959  17.068   3.895   8.777  0.6727 -0.1383 -0.1639
  373loPI   C2A 5960  17.015   4.015   8.343  0.0798  0.1414 -0.1792
  373loPI   C3A 5961  16.923   4.286   7.905  0.0971 -0.2595 -0.0303
  373loPI   C4A 5962  16.937   4.380   7.552 -0.0892  0.1156 -0.5579
  373loPI   C5A 5963  16.851   4.210   7.131  0.1369 -0.0077  0.1291
  373loPI   C6A 5964  16.999   4.228   6.732  0.0845  0.1316  0.1453
  373loPI   C1B 5965  17.079   4.449   8.676 -0.3632  0.2409  0.4618
  373loPI   C2B 5966  17.283   4.504   8.261 -0.0088  0.0501 -0.0752
  373loPI   C3B 5967  17.342   4.571   7.884  0.2215  0.0991  0.1134
  373loPI   C4B 5968  17.333   4.750   7.556 -0.0817 -0.2385  0.0445
  374loPI    C1 5969  14.964   5.159   9.735  0.2538  0.1723 -0.1855
  374loPI    C2 5970  14.614   5.212   9.921  0.2568 -0.1551 -0.0787
  374loPI    C3 5971  14.919   5.461   9.993  0.0749  0.0795 -0.1060
  374loPI   PO4 5972  14.878   5.165   9.460  0.0147 -0.0187 -0.2009
  374loPI   GL1 5973  14.671   5.233   9.053 -0.1042 -0.0957  0.0011
  374loPI   GL2 5974  14.957   5.241   8.977  0.1444 -0.1537  0.1981
  374loPI   C1A 5975  14.694   5.446   8.625  0.1844  0.0663 -0.0269
  374loPI   C2A 5976  14.734   5.271   8.240  0.1766 -0.0051 -0.0564
  374loPI   C3A 5977  14.870   5.062   7.792  0.0543  0.0842  0.1017
  374loPI   C4A 5978  14.687   5.208   7.502  0.0529 -0.0399  0.4277
  374loPI   C5A 5979  14.585   5.375   7.089 -0.0665  0.2251 -0.0713
  374loPI   C6A 5980  14.332   5.500   6.757 -0.1857  0.0917  0.0110
  374loPI   C1B 5981  14.869   4.978   8.662  0.1833  0.0228  0.0728
  374loPI   C2B 5982  15.110   4.945   8.339 -0.0046 -0.2861  0.0692
  374loPI   C3B 5983  15.330   4.799   8.017 -0.1709 -0.1328  0.0326
  374loPI   C4B 5984  15.276   4.472   7.717 -0.0634 -0.1479 -0.1094
  375loPI    C1 5985  16.318   6.217   9.880  0.0092 -0.3811  0.0760
  375loPI    C2 5986  16.583   6.047  10.127  0.0991 -0.0140  0.2383
  375loPI    C3 5987  16.208   5.909  10.110  0.2325 -0.3792  0.1879
  375loPI   PO4 5988  16.338   6.276   9.576 -0.0610  0.2912  0.0904
  375loPI   GL1 5989  16.165   6.257   9.139  0.0156 -0.1155  0.0497
  375loPI   GL2 5990  16.132   6.029   9.215  0.1858 -0.5749  0.3021
  375loPI   C1A 5991  16.428   6.128   8.829 -0.3526 -0.0393  0.1524
  375loPI   C2A 5992  16.355   6.056   8.396 -0.0692 -0.2151 -0.3530
  375loPI   C3A 5993  16.614   6.180   8.113  0.0706  0.1588 -0.0641
  375loPI   C4A 5994  16.799   6.130   7.722 -0.2026 -0.0869 -0.0957
  375loPI   C5A 5995  17.141   6.285   7.456 -0.3603 -0.0797  0.1859
  375loPI   C6A 5996  17.341   6.479   7.152  0.1871  0.0754 -0.3844
  375loPI   C1B 5997  15.939   6.062   8.745 -0.1303  0.1185  0.2040
  375loPI   C2B 5998  15.448   5.939   8.449 -0.0421  0.0675 -0.1715
  375loPI   C3B 5999  15.483   5.844   7.965 -0.0308  0.0660  0.0743
  375loPI   C4B 6000  15.390   5.862   7.606 -0.2006  0.3211  0.0595
  376loPI    C1 6001   1.375  14.694   9.844 -0.0474 -0.0717  0.0063
  376loPI    C2 6002   1.554  14.795  10.187 -0.0417  0.0150 -0.0217
  376loPI    C3 6003   1.276  15.035  10.029 -0.0004  0.0056 -0.1093
  376loPI   PO4 6004   1.510  14.548   9.657  0.2638  0.1547  0.4278
  376loPI   GL1 6005   1.199  14.314   9.356 -0.0263 -0.0001  0.1310
  376loPI   GL2 6006   1.073  14.029   9.274 -0.0911  0.0566 -0.0986
  376loPI   C1A 6007   1.095  14.497   8.878  0.1277  0.2100  0.0625
  376loPI   C2A 6008   1.286  14.729   8.582 -0.4072 -0.1347 -0.3057
  376loPI   C3A 6009   1.552  14.862   8.320  0.1659 -0.1397  0.2201
  376loPI   C4A 6010   1.561  14.823   7.956  0.0609 -0.1352  0.5015
  376loPI   C5A 6011   1.722  14.873   7.633 -0.3020  0.1303  0.3221
  376loPI   C6A 6012   1.888  15.082   7.272 -0.0742  0.1762  0.2444
  376loPI   C1B 6013   1.310  13.888   9.021  0.0209 -0.0164  0.1884
  376loPI   C2B 6014   1.436  13.737   8.612  0.1993  0.1235  0.3875
  376loPI   C3B 6015   1.506  13.645   8.233  0.1288  0.1516 -0.1072
  376loPI   C4B 6016   1.792  13.547   8.062  0.1011  0.2225 -0.1192
  377loPI    C1 6017   0.030   5.148   9.840  0.0283 -0.3134 -0.2165
  377loPI    C2 6018  -0.205   5.313  10.117 -0.0773 -0.3227 -0.3000
  377loPI    C3 6019   0.153   5.169  10.220 -0.0119 -0.1026 -0.2141
  377loPI   PO4 6020  -0.144   5.138   9.633  0.1201 -0.0060  0.0018
  377loPI   GL1 6021  -0.285   5.346   9.202 -0.1162  0.1639  0.0709
  377loPI   GL2 6022  -0.267   4.969   9.133  0.2276  0.0737  0.3401
  377loPI   C1A 6023  -0.350   5.495   8.843  0.0488 -0.0389 -0.1419
  377loPI   C2A 6024  -0.197   5.409   8.466 -0.0303  0.1603  0.0272
  377loPI   C3A 6025  -0.297   5.455   7.982  0.0491  0.0683  0.1850
  377loPI   C4A 6026  -0.232   5.543   7.610 -0.1656 -0.2023  0.0555
  377loPI   C5A 6027  -0.334   5.827   7.330  0.2934 -0.0937  0.3351
  377loPI   C6A 6028  -0.102   6.104   7.149  0.0164 -0.1194 -0.3670
  377loPI   C1B 6029  -0.093   4.946   8.702 -0.2242  0.0691  0.1172
  377loPI   C2B 6030  -0.071   4.986   8.316 -0.1616 -0.1475  0.2381
  377loPI   C3B 6031  -0.022   5.058   7.808  0.2272  0.0671 -0.2226
  377loPI   C4B 6032  -0.132   5.117   7.425 -0.2542  0.3466 -0.0871
  378loPI    C1 6033   7.162  13.842   9.683  0.0743 -0.0893 -0.0910
  378loPI    C2 6034   7.176  13.981  10.058 -0.0055 -0.1825 -0.0528
  378loPI    C3 6035   7.391  13.659   9.956 -0.0309 -0.1934 -0.0717
  378loPI   PO4 6036   7.164  14.113   9.456  0.2050 -0.1111  0.2691
  378loPI   GL1 6037   6.732  14.131   9.341 -0.0866  0.1549  0.1854
  378loPI   GL2 6038   6.540  13.823   9.185 -0.1437 -0.3044 -0.0318
  378loPI   C1A 6039   6.689  14.237   8.918  0.3479  0.1496  0.0198
  378loPI   C2A 6040   6.478  13.910   8.579 -0.1358 -0.1988 -0.2261
  378loPI   C3A 6041   6.424  13.714   8.235 -0.0370  0.0532 -0.0563
  378loPI   C4A 6042   6.261  13.608   7.797 -0.1694 -0.1087  0.0584
  378loPI   C5A 6043   6.251  13.451   7.403 -0.0271 -0.4131  0.3333
  378loPI   C6A 6044   5.931  13.196   7.323  0.0075  0.0383 -0.1092
  378loPI   C1B 6045   6.843  13.718   8.888  0.2703 -0.0451 -0.2967
  378loPI   C2B 6046   7.039  13.956   8.687  0.3801 -0.1380  0.0228
  378loPI   C3B 6047   6.819  14.271   8.433 -0.3013  0.0521  0.0256
  378loPI   C4B 6048   6.608  14.526   8.483  0.0926  0.1689 -0.3140
  379loPI    C1 6049  16.838  17.574   9.249  0.0352 -0.1306  0.1377
  379loPI    C2 6050  16.534  17.809   9.359 -0.0497 -0.1486 -0.0549
  379loPI    C3 6051  16.777  17.922   9.062 -0.0151 -0.2459 -0.0639
  379loPI   PO4 6052  16.801  17.338   9.229  0.2909  0.0963  0.0935
  379loPI   GL1 6053  16.799  17.118   8.757  0.1953  0.4407  0.3096
  379loPI   GL2 6054  16.726  16.911   8.988 -0.2375 -0.2724 -0.2151
  379loPI   C1A 6055  16.700  17.027   8.335 -0.1889 -0.1066 -0.0506
  379loPI   C2A 6056  16.386  17.346   8.300 -0.1305 -0.1523  0.1928
  379loPI   C3A 6057  16.268  17.531   8.000 -0.0728  0.1051  0.0842
  379loPI   C4A 6058  16.148  17.678   7.550  0.1065 -0.5005 -0.3160
  379loPI   C5A 6059  15.953  17.550   7.206 -0.1385 -0.1325  0.0813
  379loPI   C6A 6060  15.651  17.522   6.823 -0.0535 -0.0340  0.2959
  379loPI   C1B 6061  16.588  16.650   8.692 -0.1917 -0.1169  0.2499
  379loPI   C2B 6062  16.453  16.321   8.364  0.3525  0.2307  0.2094
  379loPI   C3B 6063  16.667  16.225   7.960  0.0654  0.1479 -0.0507
  379loPI   C4B 6064  16.811  16.320   7.601  0.0621 -0.0257 -0.0236
  380loPI    C1 6065   4.624  13.858   9.868  0.0598  0.0484 -0.1225
  380loPI    C2 6066   4.900  14.100   9.710  0.1128  0.1855  0.1724
  380loPI    C3 6067   4.966  13.926  10.064 -0.1053  0.0772  0.1614
  380loPI   PO4 6068   4.582  13.736   9.558 -0.2088  0.0640  0.1865
  380loPI   GL1 6069   4.198  13.579   9.292 -0.0406 -0.0039  0.1102
  380loPI   GL2 6070   3.913  13.550   9.290  0.1140 -0.4130 -0.2525
  380loPI   C1A 6071   4.265  13.551   8.781  0.2292  0.0303 -0.2607
  380loPI   C2A 6072   4.349  13.503   8.324  0.0091  0.3617  0.1183
  380loPI   C3A 6073   4.206  13.323   7.992 -0.4880 -0.3985 -0.0208
  380loPI   C4A 6074   3.891  13.193   7.729  0.3516 -0.0131  0.0873
  380loPI   C5A 6075   3.585  12.946   7.572 -0.2442 -0.0961  0.0157
  380loPI   C6A 6076   3.737  12.697   7.397  0.1310 -0.2170 -0.0504
  380loPI   C1B 6077   3.795  13.571   8.944 -0.1720 -0.1287  0.0824
  380loPI   C2B 6078   3.831  13.480   8.509 -0.2858  0.0900 -0.0204
  380loPI   C3B 6079   3.751  13.087   8.156 -0.0870 -0.0148 -0.2715
  380loPI   C4B 6080   3.884  12.754   7.929  0.3187  0.0146  0.1114
  381loPI    C1 6081   9.986   3.090   9.308 -0.1667 -0.2343  0.2204
  381loPI    C2 6082  10.023   3.291   9.652 -0.0366  0.0908  0.0205
  381loPI    C3 6083   9.678   3.302   9.449 -0.0378  0.0920  0.0225
  381loPI   PO4 6084  10.216   3.195   9.130  0.2759 -0.1508  0.0535
  381loPI   GL1 6085  10.352   3.243   8.700  0.3336 -0.2748  0.1260
  381loPI   GL2 6086  10.493   2.949   8.604 -0.3215  0.0527 -0.2968
  381loPI   C1A 6087  10.027   3.134   8.393  0.2445  0.2083  0.2616
  381loPI   C2A 6088   9.832   3.166   8.000  0.3584 -0.1830 -0.0929
  381loPI   C3A 6089   9.960   3.180   7.571 -0.1640 -0.1665 -0.1151
  381loPI   C4A 6090   9.758   2.921   7.198  0.0557 -0.0797 -0.3239
  381loPI   C5A 6091   9.605   2.793   6.852 -0.0222 -0.5646  0.1448
  381loPI   C6A 6092   9.584   2.366   6.740 -0.0759 -0.0107  0.0790
  381loPI   C1B 6093  10.276   2.689   8.310 -0.0271  0.0300 -0.1493
  381loPI   C2B 6094  10.180   2.849   7.960 -0.1970 -0.2836 -0.3654
  381loPI   C3B 6095  10.212   2.782   7.488 -0.0122  0.2283 -0.0998
  381loPI   C4B 6096  10.380   2.934   7.131 -0.2948 -0.0164  0.1660
  382loPI    C1 6097   4.973  16.336   9.623 -0.1010  0.0952  0.2221
  382loPI    C2 6098   5.331  16.513   9.626 -0.0362 -0.0263 -0.0461
  382loPI    C3 6099   5.196  16.331   9.955  0.1207  0.0734  0.0752
  382loPI   PO4 6100   4.968  16.306   9.328  0.0909  0.0768 -0.1032
  382loPI   GL1 6101   4.980  16.502   8.948 -0.0100  0.0061  0.0743
  382loPI   GL2 6102   5.158  16.802   8.788  0.2149 -0.0575  0.2886
  382loPI   C1A 6103   4.876  16.404   8.553 -0.0340 -0.1633 -0.2149
  382loPI   C2A 6104   4.836  16.370   8.145  0.0790  0.1312  0.1443
  382loPI   C3A 6105   4.696  16.243   7.837  0.3666  0.1734  0.2947
  382loPI   C4A 6106   4.713  16.059   7.521 -0.3199 -0.1814  0.0467
  382loPI   C5A 6107   4.734  16.168   7.135 -0.0745 -0.0788  0.2089
  382loPI   C6A 6108   4.829  16.104   6.758 -0.3389  0.1219 -0.0570
  382loPI   C1B 6109   5.186  16.741   8.320 -0.1983 -0.0166 -0.0874
  382loPI   C2B 6110   5.077  16.973   7.966  0.1179  0.2202 -0.1088
  382loPI   C3B 6111   5.012  17.065   7.553 -0.2482  0.2133  0.0197
  382loPI   C4B 6112   5.310  16.923   7.289 -0.4388 -0.0559  0.3103
  383loPI    C1 6113   5.917   5.982   9.652  0.0299  0.1857 -0.1003
  383loPI    C2 6114   5.647   5.704   9.749 -0.0471  0.1802 -0.3227
  383loPI    C3 6115   5.800   5.942  10.032  0.2974 -0.3288 -0.0631
  383loPI   PO4 6116   5.987   5.829   9.405  0.1137  0.0129 -0.2718
  383loPI   GL1 6117   6.170   5.617   9.087 -0.1365 -0.2311 -0.2708
  383loPI   GL2 6118   6.317   5.409   9.074  0.1976 -0.1150  0.0508
  383loPI   C1A 6119   5.996   5.754   8.748  0.1168  0.1957 -0.1268
  383loPI   C2A 6120   5.750   5.538   8.362 -0.1337 -0.2282  0.0835
  383loPI   C3A 6121   5.646   5.363   7.966 -0.2716  0.1146  0.1432
  383loPI   C4A 6122   5.431   5.410   7.588  0.0440  0.0482 -0.1102
  383loPI   C5A 6123   5.480   5.113   7.170 -0.1097 -0.0680  0.0513
  383loPI   C6A 6124   5.334   4.689   7.077  0.5285  0.0324  0.3190
  383loPI   C1B 6125   6.150   5.277   8.633  0.0989 -0.0811 -0.2645
  383loPI   C2B 6126   6.034   5.161   8.250  0.1093  0.0330 -0.2885
  383loPI   C3B 6127   5.951   4.925   7.822  0.0336 -0.2922 -0.2355
  383loPI   C4B 6128   6.372   5.043   7.545 -0.1682  0.1442  0.0530
  384loPI    C1 6129   6.619   9.570   9.391  0.0470 -0.0633  0.0264
  384loPI    C2 6130   6.617   9.830   9.694 -0.2604  0.0524 -0.0713
  384loPI    C3 6131   6.836   9.497   9.719  0.0659  0.2732  0.0929
  384loPI   PO4 6132   6.699   9.684   9.207  0.0624 -0.0592 -0.1673
  384loPI   GL1 6133   6.701   9.625   8.855 -0.2487 -0.2039 -0.2898
  384loPI   GL2 6134   6.925   9.471   8.794  0.4108 -0.1781 -0.0481
  384loPI   C1A 6135   6.451   9.720   8.467  0.2455 -0.1792 -0.1923
  384loPI   C2A 6136   6.342   9.803   7.984 -0.0956 -0.4546  0.1569
  384loPI   C3A 6137   6.269  10.102   7.690 -0.3057 -0.0902 -0.0574
  384loPI   C4A 6138   6.251  10.361   7.434  0.0187 -0.1927 -0.0519
  384loPI   C5A 6139   6.426  10.797   7.509  0.3325  0.0916 -0.0510
  384loPI   C6A 6140   6.163  11.207   7.256  0.1486 -0.0304 -0.0731
  384loPI   C1B 6141   7.180   9.235   8.599 -0.1191  0.3747 -0.1996
  384loPI   C2B 6142   7.717   9.271   8.315 -0.3108  0.1145 -0.0839
  384loPI   C3B 6143   8.088   9.125   8.280 -0.0278  0.0001 -0.0282
  384loPI   C4B 6144   8.339   9.138   8.648  0.0233 -0.0743  0.1297
  385loPI    C1 6145   7.578   4.863   9.540  0.1177 -0.1374  0.1242
  385loPI    C2 6146   7.851   4.941   9.258  0.0092 -0.0110  0.0529
  385loPI    C3 6147   7.967   4.812   9.619  0.1660  0.0890  0.0392
  385loPI   PO4 6148   7.463   5.117   9.570 -0.2568  0.4123  0.2039
  385loPI   GL1 6149   7.202   5.223   9.217  0.0966 -0.0607  0.1863
  385loPI   GL2 6150   7.098   5.086   9.111 -0.2627  0.2367 -0.1375
  385loPI   C1A 6151   7.318   5.466   8.830 -0.1524  0.1631 -0.0346
  385loPI   C2A 6152   7.533   5.337   8.443 -0.3053 -0.0835 -0.3265
  385loPI   C3A 6153   7.606   5.703   8.163 -0.2090  0.0213  0.0505
  385loPI   C4A 6154   7.698   6.190   8.256  0.1609  0.2058  0.0746
  385loPI   C5A 6155   7.979   6.288   8.041 -0.0254 -0.1143 -0.2121
  385loPI   C6A 6156   8.152   6.355   7.642  0.3889  0.1777 -0.0871
  385loPI   C1B 6157   7.122   4.958   8.729  0.1314 -0.2444 -0.0923
  385loPI   C2B 6158   7.017   4.909   8.260 -0.0793 -0.1847  0.2845
  385loPI   C3B 6159   6.654   4.819   7.862  0.0236  0.2214 -0.2336
  385loPI   C4B 6160   6.750   4.616   7.412 -0.0642 -0.2146 -0.2204
  386loPI    C1 6161  17.620   6.986   9.862  0.3594 -0.0473 -0.0141
  386loPI    C2 6162  17.733   7.198  10.182  0.1752 -0.1013  0.0878
  386loPI    C3 6163  17.390   6.992  10.189 -0.0067  0.1779 -0.2687
  386loPI   PO4 6164  17.883   6.925   9.826 -0.0245  0.0770 -0.0245
  386loPI   GL1 6165  18.040   7.096   9.421  0.4246  0.5198 -0.1591
  386loPI   GL2 6166  18.299   7.293   9.375 -0.1766  0.1769 -0.3939
  386loPI   C1A 6167  17.881   7.177   9.004  0.1637 -0.2748  0.2949
  386loPI   C2A 6168  17.605   7.375   8.788 -0.0631 -0.2435  0.1298
  386loPI   C3A 6169  17.304   7.383   8.564 -0.2234  0.2061 -0.1219
  386loPI   C4A 6170  17.124   7.270   8.200  0.5728  0.3659  0.0988
  386loPI   C5A 6171  17.028   7.129   7.819  0.0251  0.2585 -0.4143
  386loPI   C6A 6172  17.010   6.831   7.463 -0.0091 -0.1350  0.0522
  386loPI   C1B 6173  18.202   7.597   8.952 -0.1882  0.0451 -0.1774
  386loPI   C2B 6174  18.323   7.962   8.684  0.0578  0.0798 -0.4109
  386loPI   C3B 6175  18.175   8.364   8.446 -0.0664 -0.0777  0.2704
  386loPI   C4B 6176  18.082   8.553   8.015  0.1233 -0.3256  0.2295
  387loPI    C1 6177   9.702  14.428  10.000 -0.1762 -0.0971  0.0206
  387loPI    C2 6178   9.637  14.508  10.386  0.0241  0.3201 -0.0263
  387loPI    C3 6179   9.974  14.324  10.274 -0.1507 -0.0356  0.0188
  387loPI   PO4 6180   9.679  14.643   9.912  0.0986 -0.1076  0.1197
  387loPI   GL1 6181   9.814  14.745   9.470 -0.0893 -0.0587  0.3167
  387loPI   GL2 6182   9.481  14.709   9.371 -0.1478  0.0115  0.0526
  387loPI   C1A 6183  10.017  14.990   9.071 -0.1652 -0.2554 -0.0029
  387loPI   C2A 6184  10.153  14.708   8.734 -0.1396 -0.1009  0.1999
  387loPI   C3A 6185  10.134  14.682   8.248 -0.1376 -0.1442  0.1457
  387loPI   C4A 6186  10.259  14.715   7.881 -0.2640 -0.1494  0.1198
  387loPI   C5A 6187  10.081  14.654   7.404 -0.2156  0.1154  0.1183
  387loPI   C6A 6188  10.000  14.398   7.037  0.0361  0.2235  0.2270
  387loPI   C1B 6189   9.589  14.800   8.942 -0.3001  0.1360 -0.3013
  387loPI   C2B 6190   9.701  14.687   8.490  0.1665 -0.1006 -0.0879
  387loPI   C3B 6191   9.658  14.690   8.116  0.0732  0.0098  0.0377
  387loPI   C4B 6192   9.431  14.546   7.664  0.1232  0.0914  0.2130
  388loPI    C1 6193  11.541   3.103   9.567  0.0634  0.1472 -0.0662
  388loPI    C2 6194  11.286   3.359   9.737  0.0393  0.0495  0.0463
  388loPI    C3 6195  11.389   3.023   9.928  0.0338 -0.0484 -0.1204
  388loPI   PO4 6196  11.442   3.016   9.353 -0.0299 -0.2981  0.2791
  388loPI   GL1 6197  11.629   2.897   8.871  0.0188  0.1412  0.0268
  388loPI   GL2 6198  11.930   3.134   8.820 -0.0017  0.1065 -0.0311
  388loPI   C1A 6199  11.776   2.597   8.586  0.2607  0.1039 -0.0346
  388loPI   C2A 6200  11.839   2.492   8.162 -0.2183  0.1231 -0.1694
  388loPI   C3A 6201  11.973   2.736   7.699 -0.0731 -0.0663  0.1267
  388loPI   C4A 6202  12.229   2.703   7.281  0.0758 -0.2263  0.2712
  388loPI   C5A 6203  12.532   2.724   7.093 -0.0046 -0.3415  0.0520
  388loPI   C6A 6204  12.855   2.692   6.762  0.0163 -0.1580 -0.0098
  388loPI   C1B 6205  11.768   3.016   8.329  0.1692 -0.3923 -0.0724
  388loPI   C2B 6206  11.543   2.947   7.978  0.1919 -0.2301 -0.1355
  388loPI   C3B 6207  11.643   3.086   7.526  0.0360  0.3293  0.0329
  388loPI   C4B 6208  11.859   3.247   7.111  0.3016 -0.4462 -0.3832
  389loPI    C1 6209  18.352  18.182   9.476 -0.0128  0.0380  0.1085
  389loPI    C2 6210  18.057  17.948   9.341 -0.0389  0.1028  0.0527
  389loPI    C3 6211  18.250  17.852   9.678  0.2107 -0.2101 -0.1732
  389loPI   PO4 6212  18.403  18.329   9.239  0.1310 -0.5562 -0.0315
  389loPI   GL1 6213  18.843  18.370   8.995  0.0676  0.0622  0.0323
  389loPI   GL2 6214  19.090  18.561   8.825 -0.0227 -0.5679  0.4872
  389loPI   C1A 6215  18.747  18.146   8.655  0.0183  0.3269  0.1130
  389loPI   C2A 6216  18.861  17.909   8.253  0.0071 -0.1151 -0.2717
  389loPI   C3A 6217  18.747  17.952   7.910 -0.0651 -0.1185  0.1032
  389loPI   C4A 6218  18.886  17.859   7.477 -0.0167 -0.2227 -0.5937
  389loPI   C5A 6219  18.998  17.610   7.188 -0.2043  0.0845  0.2658
  389loPI   C6A 6220  19.149  17.531   6.722  0.2181  0.0442  0.2675
  389loPI   C1B 6221  18.994  18.488   8.447  0.1946 -0.0222 -0.0459
  389loPI   C2B 6222  19.171  18.374   7.994 -0.2530  0.0304 -0.3933
  389loPI   C3B 6223  19.183  18.156   7.698  0.4468  0.1708  0.0559
  389loPI   C4B 6224  19.368  18.077   7.345  0.1669  0.2434  0.1364
  390loPI    C1 6225  10.569   4.881   9.768  0.5187 -0.0790  0.0004
  390loPI    C2 6226  10.636   4.606   9.485 -0.1506 -0.2725  0.0115
  390loPI    C3 6227  10.659   4.506   9.872 -0.0314 -0.2154  0.0196
  390loPI   PO4 6228  10.691   5.098   9.682 -0.1159 -0.0584 -0.2358
  390loPI   GL1 6229  10.730   5.140   9.278  0.0089  0.2012 -0.0205
  390loPI   GL2 6230  10.764   5.448   9.263 -0.0262 -0.1360 -0.0134
  390loPI   C1A 6231  10.658   4.733   9.010  0.3422 -0.0765 -0.1636
  390loPI   C2A 6232  10.831   4.510   8.595 -0.0969 -0.3237  0.0319
  390loPI   C3A 6233  11.008   4.448   8.153  0.0671 -0.0025  0.3337
  390loPI   C4A 6234  10.855   4.229   7.813 -0.0923 -0.0544  0.0189
  390loPI   C5A 6235  10.602   4.333   7.501  0.2805  0.0391  0.2017
  390loPI   C6A 6236  10.267   4.348   7.200  0.2058  0.3055 -0.2406
  390loPI   C1B 6237  11.024   5.536   8.931 -0.0368 -0.2518  0.4057
  390loPI   C2B 6238  11.173   5.361   8.545  0.1027  0.0745 -0.1613
  390loPI   C3B 6239  11.345   5.316   8.172  0.2124 -0.1590  0.1214
  390loPI   C4B 6240  11.593   5.149   7.835 -0.0456 -0.1718  0.3183
  391loPI    C1 6241   3.764   5.895   9.874  0.0266  0.1441 -0.1359
  391loPI    C2 6242   3.694   6.279   9.961 -0.1015  0.0465  0.2063
  391loPI    C3 6243   3.888   6.046  10.223  0.2596 -0.0465 -0.1336
  391loPI   PO4 6244   3.568   5.762   9.786 -0.0044 -0.1777  0.0874
  391loPI   GL1 6245   3.308   5.752   9.430 -0.1123  0.0792  0.1567
  391loPI   GL2 6246   3.027   5.783   9.165 -0.1695 -0.2188  0.3760
  391loPI   C1A 6247   3.568   5.795   9.058 -0.0266  0.2944  0.0778
  391loPI   C2A 6248   3.850   5.769   8.838 -0.0842 -0.1844 -0.0693
  391loPI   C3A 6249   3.861   5.765   8.338 -0.3127 -0.1689 -0.0915
  391loPI   C4A 6250   4.030   5.709   7.945 -0.1839  0.0338 -0.1574
  391loPI   C5A 6251   4.013   5.855   7.540 -0.0660  0.1897 -0.4677
  391loPI   C6A 6252   3.835   5.891   7.208  0.1113 -0.0840 -0.3498
  391loPI   C1B 6253   3.105   5.685   8.726 -0.2085  0.0838  0.3484
  391loPI   C2B 6254   3.190   5.658   8.328  0.1631 -0.2859  0.0489
  391loPI   C3B 6255   3.193   5.860   7.891 -0.1493  0.0148 -0.2427
  391loPI   C4B 6256   2.967   5.829   7.445  0.3643  0.2607 -0.1087
  392loPI    C1 6257  14.574   1.281   9.604  0.0199  0.0507 -0.1832
  392loPI    C2 6258  14.613   1.521   9.922  0.1800 -0.0289 -0.1422
  392loPI    C3 6259  14.750   1.145   9.936 -0.4140 -0.2538 -0.0685
  392loPI   PO4 6260  14.633   1.366   9.457  0.0881 -0.2308  0.1659
  392loPI   GL1 6261  14.620   1.475   9.099  0.2625  0.5046  0.1857
  392loPI   GL2 6262  14.295   1.414   9.067 -0.0877  0.1606  0.2107
  392loPI   C1A 6263  14.517   1.606   8.663 -0.1938  0.2181  0.1552
  392loPI   C2A 6264  14.704   1.733   8.305  0.0324 -0.0491 -0.1797
  392loPI   C3A 6265  14.612   1.554   7.940 -0.0762  0.1888  0.4168
  392loPI   C4A 6266  14.557   1.374   7.630 -0.0476  0.1714 -0.2280
  392loPI   C5A 6267  14.567   1.258   7.194  0.2826  0.1839 -0.1298
  392loPI   C6A 6268  14.559   0.949   6.838 -0.5268 -0.0118  0.3036
  392loPI   C1B 6269  14.315   1.154   8.670  0.1589 -0.3748 -0.1002
  392loPI   C2B 6270  14.284   1.097   8.279  0.0223 -0.2111  0.2834
  392loPI   C3B 6271  14.352   1.030   7.890 -0.2405 -0.0295 -0.2109
  392loPI   C4B 6272  14.187   1.043   7.557  0.0970 -0.1651 -0.1919
  393loPI    C1 6273   0.614   0.343   9.729  0.0378 -0.2921 -0.2146
  393loPI    C2 6274   0.460   0.034   9.930  0.1713 -0.2087  0.0200
  393loPI    C3 6275   0.848   0.124   9.967  0.1278  0.0027 -0.0262
  393loPI   PO4 6276   0.510   0.312   9.458  0.2373 -0.1410 -0.3605
  393loPI   GL1 6277   0.550   0.110   9.073 -0.0280  0.2225 -0.1451
  393loPI   GL2 6278   0.814   0.216   8.996 -0.0807 -0.0410 -0.0304
  393loPI   C1A 6279   0.373   0.023   8.623  0.0949  0.0357  0.1185
  393loPI   C2A 6280   0.394   0.032   8.039  0.0019 -0.3680 -0.3325
  393loPI   C3A 6281   0.479   0.028   7.491  0.0408  0.2193  0.1188
  393loPI   C4A 6282   0.413  -0.035   7.077 -0.1588 -0.1137 -0.0792
  393loPI   C5A 6283   0.374  -0.346   6.770 -0.0450 -0.1852  0.0434
  393loPI   C6A 6284   0.690  -0.420   6.433  0.1689  0.0024 -0.0007
  393loPI   C1B 6285   0.904   0.086   8.587  0.1092  0.1223 -0.1809
  393loPI   C2B 6286   0.968   0.076   8.019 -0.1013 -0.0189  0.1088
  393loPI   C3B 6287   0.960  -0.091   7.571  0.0421  0.1985  0.2347
  393loPI   C4B 6288   0.906   0.061   7.254  0.1227 -0.3610 -0.0760
  394loPI    C1 6289  10.372  19.400   9.990 -0.0283  0.1731  0.0864
  394loPI    C2 6290  10.737  19.391  10.152  0.0631  0.1597 -0.1169
  394loPI    C3 6291  10.517  19.057  10.136  0.0249  0.1763  0.0414
  394loPI   PO4 6292  10.479  19.519   9.779 -0.0738  0.2415 -0.0442
  394loPI   GL1 6293  10.751  19.378   9.377  0.2646  0.1593  0.0084
  394loPI   GL2 6294  10.774  19.008   9.319  0.0607  0.3817  0.4058
  394loPI   C1A 6295  10.808  19.667   8.956  0.0229 -0.2844  0.1902
  394loPI   C2A 6296  10.756  19.800   8.452 -0.3319 -0.0432  0.0679
  394loPI   C3A 6297  10.712  19.880   8.079  0.1096  0.1120  0.0659
  394loPI   C4A 6298  10.661  20.067   7.724 -0.1517  0.1658  0.2069
  394loPI   C5A 6299  10.574  20.327   7.355  0.3168  0.0204  0.0075
  394loPI   C6A 6300  10.587  20.678   7.090 -0.1576  0.2529 -0.0301
  394loPI   C1B 6301  10.600  18.807   8.935 -0.3877  0.0363  0.0712
  394loPI   C2B 6302  10.821  18.885   8.474 -0.1499 -0.1601  0.0008
  394loPI   C3B 6303  10.942  18.841   8.010  0.3258  0.0546 -0.1846
  394loPI   C4B 6304  11.135  19.100   7.849 -0.0715  0.1243 -0.2422
  395loPI    C1 6305   8.750   3.294   9.591  0.1156 -0.2763 -0.3694
  395loPI    C2 6306   9.090   3.114   9.481  0.3527  0.0822 -0.2388
  395loPI    C3 6307   8.962   3.086   9.859  0.1088 -0.2465 -0.3409
  395loPI   PO4 6308   8.779   3.498   9.410  0.1671  0.1394 -0.1983
  395loPI   GL1 6309   8.979   3.412   9.024  0.3736 -0.0631  0.1159
  395loPI   GL2 6310   8.765   3.205   9.022 -0.0408  0.1715 -0.1969
  395loPI   C1A 6311   8.864   3.392   8.632 -0.1968 -0.1356  0.0410
  395loPI   C2A 6312   9.052   3.291   8.268  0.0917 -0.2122  0.0985
  395loPI   C3A 6313   9.042   3.281   7.804  0.1582  0.3933 -0.0977
  395loPI   C4A 6314   9.033   3.294   7.430 -0.0491  0.3271 -0.2914
  395loPI   C5A 6315   9.273   3.173   7.153  0.0734 -0.0444 -0.1318
  395loPI   C6A 6316   9.548   3.271   6.862  0.1434  0.0754 -0.1523
  395loPI   C1B 6317   9.004   2.935   8.662 -0.0079 -0.0587  0.1520
  395loPI   C2B 6318   8.888   2.720   8.234 -0.1116  0.0624 -0.2913
  395loPI   C3B 6319   8.958   2.771   7.787 -0.0202 -0.1319  0.2795
  395loPI   C4B 6320   8.669   2.670   7.574  0.0289 -0.1088  0.0538
  396loPI    C1 6321   1.592   4.532   9.784  0.2209 -0.0654  0.0605
  396loPI    C2 6322   1.395   4.199   9.884 -0.1448  0.1715  0.1463
  396loPI    C3 6323   1.582   4.413  10.166 -0.2474  0.2507  0.1548
  396loPI   PO4 6324   1.639   4.507   9.565 -0.2100  0.0485 -0.0125
  396loPI   GL1 6325   1.422   4.622   9.164 -0.1143 -0.1928 -0.0019
  396loPI   GL2 6326   1.415   4.978   9.070  0.1558  0.1940 -0.0184
  396loPI   C1A 6327   1.291   4.411   8.873 -0.2380 -0.2185  0.2091
  396loPI   C2A 6328   1.119   4.208   8.582  0.0404 -0.1370  0.0643
  396loPI   C3A 6329   1.233   4.242   8.102 -0.0434  0.1855 -0.1879
  396loPI   C4A 6330   1.278   4.222   7.655  0.2082 -0.1307 -0.0399
  396loPI   C5A 6331   1.200   4.049   7.267  0.1279  0.1439  0.3581
  396loPI   C6A 6332   1.190   3.991   6.851 -0.3298 -0.3541  0.1018
  396loPI   C1B 6333   1.331   5.325   8.749 -0.3251  0.1363  0.0640
  396loPI   C2B 6334   1.363   5.559   8.360 -0.0664 -0.0522  0.1304
  396loPI   C3B 6335   1.031   5.714   8.119 -0.0581 -0.2258 -0.0944
  396loPI   C4B 6336   1.048   6.170   7.945 -0.0004 -0.2500 -0.2980
  397loPI    C1 6337  18.536   9.762   9.644  0.2080 -0.0836  0.2144
  397loPI    C2 6338  18.552  10.086   9.878 -0.0190 -0.0052  0.1247
  397loPI    C3 6339  18.883   9.953   9.696  0.0471  0.2640  0.0435
  397loPI   PO4 6340  18.275   9.641   9.833  0.0480 -0.1894 -0.0500
  397loPI   GL1 6341  17.871   9.798   9.815 -0.4650  0.1866 -0.1426
  397loPI   GL2 6342  17.659   9.979   9.649  0.0279  0.0882  0.1001
  397loPI   C1A 6343  17.887   9.554   9.314 -0.1072 -0.2125  0.1803
  397loPI   C2A 6344  17.976   9.530   8.946 -0.3329 -0.1272 -0.0525
  397loPI   C3A 6345  18.291   9.495   8.601  0.1330 -0.1439  0.1812
  397loPI   C4A 6346  18.574   9.644   8.331 -0.1583  0.4392  0.0743
  397loPI   C5A 6347  18.819   9.479   7.964 -0.0652  0.0690 -0.0938
  397loPI   C6A 6348  18.759   9.289   7.490 -0.2324  0.0688  0.0822
  397loPI   C1B 6349  17.925   9.996   9.240  0.2266  0.1201  0.0106
  397loPI   C2B 6350  18.288   9.831   9.154 -0.2164  0.1188 -0.1706
  397loPI   C3B 6351  18.585   9.509   9.028 -0.1283  0.1878  0.0427
  397loPI   C4B 6352  18.910   9.581   8.694  0.2122 -0.0217  0.0444
  398loPI    C1 6353  17.114   8.303   9.924 -0.1524 -0.0359  0.0687
  398loPI    C2 6354  17.272   8.141   9.594  0.1446  0.0366  0.1718
  398loPI    C3 6355  17.218   7.917   9.921 -0.1946 -0.0472  0.0622
  398loPI   PO4 6356  16.798   8.348   9.855 -0.2847  0.0466 -0.1027
  398loPI   GL1 6357  16.774   8.516   9.455  0.2514 -0.0129  0.1905
  398loPI   GL2 6358  16.863   8.190   9.304  0.4468  0.0747  0.0162
  398loPI   C1A 6359  16.881   8.652   9.077 -0.0743  0.2778 -0.0659
  398loPI   C2A 6360  16.686   8.744   8.641 -0.0657 -0.0116  0.0674
  398loPI   C3A 6361  16.699   8.776   8.215 -0.2031 -0.1805 -0.0145
  398loPI   C4A 6362  16.740   8.716   7.736 -0.0905 -0.2690  0.0978
  398loPI   C5A 6363  16.734   8.851   7.417  0.1780  0.1396  0.2990
  398loPI   C6A 6364  16.680   9.041   7.020 -0.0133  0.0578  0.1193
  398loPI   C1B 6365  16.795   8.263   8.804  0.2667 -0.1969 -0.0662
  398loPI   C2B 6366  16.808   8.254   8.385  0.3761  0.0689  0.0621
  398loPI   C3B 6367  16.911   8.184   8.071 -0.1980 -0.1299 -0.0646
  398loPI   C4B 6368  16.917   8.119   7.639  0.0645 -0.1060 -0.3209
  399loPI    C1 6369   4.445   3.409   9.345  0.4037  0.0925  0.1488
  399loPI    C2 6370   4.242   3.737   9.450  0.0609  0.0042 -0.2144
  399loPI    C3 6371   4.511   3.579   9.701 -0.3157  0.1243  0.2809
  399loPI   PO4 6372   4.306   3.285   9.248  0.2622 -0.3273  0.0840
  399loPI   GL1 6373   4.137   3.111   8.917 -0.3690 -0.2529 -0.0521
  399loPI   GL2 6374   4.225   3.420   8.746  0.2567 -0.3617 -0.0817
  399loPI   C1A 6375   4.000   3.028   8.540 -0.0787  0.0823  0.1648
  399loPI   C2A 6376   3.758   3.025   8.108 -0.2532  0.0627 -0.0238
  399loPI   C3A 6377   3.603   3.129   7.720 -0.0110 -0.1755  0.1352
  399loPI   C4A 6378   3.503   3.157   7.193 -0.0716 -0.1174  0.2356
  399loPI   C5A 6379   3.569   3.597   6.955  0.3484 -0.3431 -0.2324
  399loPI   C6A 6380   3.879   3.864   7.104 -0.1806  0.0713 -0.3417
  399loPI   C1B 6381   4.212   3.709   8.356  0.0781  0.3099  0.2203
  399loPI   C2B 6382   4.312   4.157   8.127  0.0991  0.3103  0.0988
  399loPI   C3B 6383   4.211   4.506   7.867  0.0779  0.0591 -0.1526
  399loPI   C4B 6384   4.368   4.850   8.051 -0.0064  0.0611  0.2262
  400loPI    C1 6385  19.084  15.230   9.241  0.0614 -0.1881  0.1769
  400loPI    C2 6386  19.038  14.928   9.499 -0.0549 -0.2758  0.0551
  400loPI    C3 6387  18.841  14.925   9.151 -0.0676 -0.0522  0.0591
  400loPI   PO4 6388  19.338  15.229   9.256  0.0477 -0.0504  0.2294
  400loPI   GL1 6389  19.609  15.440   8.966  0.0500 -0.1660 -0.1579
  400loPI   GL2 6390  19.701  15.162   8.745 -0.3005 -0.2087 -0.1197
  400loPI   C1A 6391  19.420  15.556   8.538  0.1250 -0.2463 -0.1783
  400loPI   C2A 6392  19.430  15.179   8.142  0.1406  0.3151 -0.4527
  400loPI   C3A 6393  19.576  15.274   7.745  0.1546  0.0394  0.1679
  400loPI   C4A 6394  19.503  15.429   7.349  0.3236 -0.0830  0.1665
  400loPI   C5A 6395  19.432  15.674   7.049 -0.2576 -0.1192  0.1684
  400loPI   C6A 6396  19.132  15.906   6.944 -0.0523  0.1284 -0.0562
  400loPI   C1B 6397  20.044  15.079   8.369  0.0008  0.2773  0.1604
  400loPI   C2B 6398  20.036  14.972   7.950  0.2392  0.1074 -0.1250
  400loPI   C3B 6399  20.321  15.003   7.713 -0.1621  0.0543  0.3071
  400loPI   C4B 6400  20.453  14.985   7.219 -0.0853  0.2721  0.0311
  401loPI    C1 6401  18.951   6.152   9.706  0.1947  0.0108 -0.0143
  401loPI    C2 6402  18.802   5.919   9.417  0.2950 -0.2093  0.1087
  401loPI    C3 6403  18.792   5.797   9.798  0.2230  0.0505  0.1923
  401loPI   PO4 6404  18.749   6.432   9.635  0.1480  0.1906  0.0716
  401loPI   GL1 6405  18.708   6.696   9.223 -0.0534  0.0768  0.1231
  401loPI   GL2 6406  18.794   7.140   9.151 -0.0602 -0.0567  0.0104
  401loPI   C1A 6407  18.305   6.853   9.084 -0.0688 -0.1134 -0.4040
  401loPI   C2A 6408  18.200   6.829   8.677  0.0892 -0.1586 -0.0116
  401loPI   C3A 6409  17.951   7.155   8.501  0.5149 -0.1397  0.0908
  401loPI   C4A 6410  17.978   7.589   8.431 -0.2663  0.5501  0.0029
  401loPI   C5A 6411  17.949   7.962   8.199 -0.2381  0.0961 -0.2291
  401loPI   C6A 6412  18.108   7.843   7.686  0.0849  0.1015  0.0946
  401loPI   C1B 6413  18.651   7.027   8.707  0.1987 -0.1632 -0.1445
  401loPI   C2B 6414  18.510   6.904   8.310  0.0010  0.0419  0.3123
  401loPI   C3B 6415  18.125   6.960   8.121  0.0450 -0.3371 -0.0949
  401loPI   C4B 6416  17.938   6.778   7.771 -0.3490  0.0093  0.2147
  402loPI    C1 6417  18.218   4.951   9.483  0.0524  0.1350  0.3532
  402loPI    C2 6418  18.111   4.626   9.276  0.1314  0.0769  0.4031
  402loPI    C3 6419  17.836   4.900   9.374  0.1165  0.1730  0.1043
  402loPI   PO4 6420  18.383   5.118   9.377 -0.1821 -0.1093 -0.1251
  402loPI   GL1 6421  18.479   5.257   9.016  0.0940 -0.2397 -0.1357
  402loPI   GL2 6422  18.060   5.116   8.963  0.1938 -0.0248 -0.1157
  402loPI   C1A 6423  18.429   5.218   8.607  0.0106 -0.1452 -0.1081
  402loPI   C2A 6424  18.615   5.209   8.123  0.1447  0.1434 -0.5022
  402loPI   C3A 6425  18.832   5.308   7.752 -0.0342  0.1674 -0.2043
  402loPI   C4A 6426  19.051   5.302   7.347 -0.0409  0.1502 -0.0939
  402loPI   C5A 6427  19.135   4.944   7.102 -0.1758 -0.1360 -0.2110
  402loPI   C6A 6428  18.886   4.599   6.944  0.4739  0.3645 -0.0772
  402loPI   C1B 6429  18.066   4.821   8.583  0.0467  0.0876 -0.4448
  402loPI   C2B 6430  18.122   4.963   8.222 -0.2205 -0.0601 -0.2141
  402loPI   C3B 6431  18.038   4.775   7.885 -0.0833 -0.1680 -0.0445
  402loPI   C4B 6432  18.069   4.637   7.362  0.1152 -0.2069 -0.1049
  403loPI    C1 6433  12.089  18.949   9.678 -0.2931  0.0342  0.2844
  403loPI    C2 6434  12.409  19.010   9.909 -0.2317  0.0042  0.2076
  403loPI    C3 6435  12.050  19.139  10.028 -0.2106 -0.0638  0.3471
  403loPI   PO4 6436  12.220  19.063   9.439  0.1834  0.0747 -0.0617
  403loPI   GL1 6437  12.360  19.162   9.040  0.1542 -0.0036 -0.0913
  403loPI   GL2 6438  12.032  19.404   8.940  0.3200  0.0529 -0.2989
  403loPI   C1A 6439  12.392  18.818   8.655 -0.1916 -0.3774 -0.4610
  403loPI   C2A 6440  12.585  18.614   8.265 -0.0904 -0.2491  0.1556
  403loPI   C3A 6441  12.747  18.326   7.876  0.1229  0.0960  0.1683
  403loPI   C4A 6442  12.815  18.350   7.468 -0.1157  0.1435  0.1051
  403loPI   C5A 6443  12.546  18.371   7.152  0.0646 -0.0999 -0.0328
  403loPI   C6A 6444  12.354  18.432   6.826  0.0248  0.5047  0.1302
  403loPI   C1B 6445  11.903  18.989   8.840  0.1090 -0.2019  0.0962
  403loPI   C2B 6446  11.881  18.521   8.773  0.0956 -0.0717  0.4348
  403loPI   C3B 6447  11.634  18.241   8.513  0.1660  0.1206 -0.0749
  403loPI   C4B 6448  11.303  18.144   8.325 -0.0158  0.0476  0.0895
  404loPI    C1 6449  15.453   9.209   9.915 -0.0963 -0.0885  0.0287
  404loPI    C2 6450  15.537   9.385  10.264 -0.0841  0.0176 -0.0277
  404loPI    C3 6451  15.699   9.031  10.175  0.0988  0.0993 -0.0247
  404loPI   PO4 6452  15.484   9.356   9.755 -0.0433 -0.3707 -0.3190
  404loPI   GL1 6453  15.505   9.344   9.382  0.0882 -0.2388  0.1014
  404loPI   GL2 6454  15.606   9.091   9.126  0.3463  0.0936 -0.1889
  404loPI   C1A 6455  15.388   9.438   8.878 -0.4065 -0.0542 -0.1850
  404loPI   C2A 6456  15.378   9.563   8.491  0.3082 -0.1039 -0.2905
  404loPI   C3A 6457  15.541   9.504   8.058  0.2705 -0.0495 -0.1685
  404loPI   C4A 6458  15.427   9.636   7.627 -0.0409  0.0700  0.2879
  404loPI   C5A 6459  15.321   9.715   7.274  0.2510 -0.1110  0.0425
  404loPI   C6A 6460  15.105   9.467   6.990  0.0950 -0.0927  0.0584
  404loPI   C1B 6461  15.644   9.081   8.548 -0.1905  0.1097  0.0647
  404loPI   C2B 6462  15.711   8.981   8.157 -0.2079  0.1431 -0.4248
  404loPI   C3B 6463  15.459   8.748   7.907 -0.0866 -0.1450  0.1847
  404loPI   C4B 6464  15.555   8.753   7.570  0.3239 -0.0391 -0.1354
  405loPI    C1 6465   6.311  14.511   9.805  0.1513  0.2013  0.0631
  405loPI    C2 6466   6.221  14.188  10.022 -0.0010 -0.0050 -0.2986
  405loPI    C3 6467   6.087  14.548  10.134 -0.1324 -0.1171 -0.0884
  405loPI   PO4 6468   6.323  14.292   9.471 -0.1303  0.0196  0.0432
  405loPI   GL1 6469   6.090  14.323   9.012 -0.1790 -0.2323 -0.1463
  405loPI   GL2 6470   6.071  14.037   9.054  0.0989  0.7134  0.2082
  405loPI   C1A 6471   6.037  14.235   8.546  0.0587 -0.1224 -0.2870
  405loPI   C2A 6472   6.251  14.240   8.271 -0.4530 -0.1581  0.0190
  405loPI   C3A 6473   6.256  14.149   7.835 -0.2942  0.1550 -0.0244
  405loPI   C4A 6474   6.040  14.055   7.383 -0.0051 -0.0007  0.4716
  405loPI   C5A 6475   6.031  13.675   7.070  0.2593 -0.2032 -0.1322
  405loPI   C6A 6476   6.380  13.501   6.886  0.2451 -0.4300  0.3065
  405loPI   C1B 6477   6.009  13.735   8.692 -0.1839 -0.3482 -0.4217
  405loPI   C2B 6478   5.905  13.712   8.275 -0.0377 -0.1288  0.2259
  405loPI   C3B 6479   5.793  13.830   7.827 -0.1293 -0.0640  0.1394
  405loPI   C4B 6480   5.580  14.043   7.619  0.1295 -0.1213  0.0349
  406loPI    C1 6481  10.776  11.955   9.620 -0.2386 -0.1264 -0.2644
  406loPI    C2 6482  11.049  12.067   9.890 -0.3505 -0.0346 -0.1887
  406loPI    C3 6483  10.660  12.093   9.976 -0.3813 -0.4164 -0.1955
  406loPI   PO4 6484  10.715  11.812   9.530  0.0539 -0.2645 -0.1353
  406loPI   GL1 6485  10.776  11.524   9.108 -0.0969 -0.0345  0.1117
  406loPI   GL2 6486  11.041  11.432   9.197 -0.4193 -0.3306 -0.1089
  406loPI   C1A 6487  10.731  11.303   8.809  0.4161 -0.1398  0.0227
  406loPI   C2A 6488  10.664  11.233   8.362  0.2895  0.0848 -0.0751
  406loPI   C3A 6489  10.778  11.175   7.962  0.3305 -0.2543  0.1112
  406loPI   C4A 6490  10.993  11.308   7.682  0.0801  0.2323  0.0968
  406loPI   C5A 6491  11.298  11.257   7.400  0.1085 -0.1351 -0.0247
  406loPI   C6A 6492  11.552  10.954   7.302  0.0363 -0.0904  0.2401
  406loPI   C1B 6493  11.266  11.476   8.767 -0.0985 -0.1973 -0.0015
  406loPI   C2B 6494  11.362  11.700   8.432  0.1041  0.3148  0.1892
  406loPI   C3B 6495  11.177  12.103   8.267  0.1299 -0.0253 -0.0640
  406loPI   C4B 6496  10.997  12.212   7.911  0.1198  0.1823 -0.2455
  407loPI    C1 6497   7.443   6.073   9.619  0.0313  0.0224 -0.1107
  407loPI    C2 6498   7.147   5.944   9.855 -0.0820  0.0898 -0.2147
  407loPI    C3 6499   7.497   6.052  10.015 -0.0340 -0.2059 -0.1121
  407loPI   PO4 6500   7.364   6.282   9.474  0.1106 -0.2387 -0.0262
  407loPI   GL1 6501   7.207   6.219   9.148  0.1598  0.0694 -0.1546
  407loPI   GL2 6502   7.180   5.968   8.993 -0.1262  0.1473  0.0967
  407loPI   C1A 6503   7.203   6.486   8.785  0.1330  0.0749  0.0406
  407loPI   C2A 6504   7.351   6.622   8.429 -0.2815  0.0915  0.1871
  407loPI   C3A 6505   7.416   6.598   8.131  0.5292 -0.0911  0.0950
  407loPI   C4A 6506   7.603   6.613   7.785 -0.2026 -0.0589  0.0180
  407loPI   C5A 6507   7.771   6.717   7.455  0.0740 -0.1332  0.3060
  407loPI   C6A 6508   7.396   6.685   7.104  0.0445 -0.0338 -0.1358
  407loPI   C1B 6509   7.227   5.850   8.501 -0.0796 -0.0231  0.0659
  407loPI   C2B 6510   6.964   5.844   8.104  0.2673  0.1652 -0.0878
  407loPI   C3B 6511   6.608   5.997   8.077 -0.0371 -0.2006  0.0158
  407loPI   C4B 6512   6.260   5.980   7.783  0.3672 -0.3001 -0.0126
  408loPI    C1 6513  14.880  11.540   9.329 -0.0513 -0.1411 -0.0885
  408loPI    C2 6514  14.599  11.544   9.614 -0.0959  0.2449 -0.1333
  408loPI    C3 6515  14.987  11.554   9.714 -0.1071  0.1638 -0.0816
  408loPI   PO4 6516  14.766  11.757   9.153  0.0383  0.3432  0.2089
  408loPI   GL1 6517  14.758  11.650   8.616 -0.0006  0.1860  0.0749
  408loPI   GL2 6518  14.887  11.930   8.720  0.0423  0.3580 -0.1159
  408loPI   C1A 6519  14.447  11.649   8.244 -0.0492 -0.1801 -0.1891
  408loPI   C2A 6520  14.130  11.724   7.932 -0.2486 -0.3304  0.0818
  408loPI   C3A 6521  13.888  11.366   7.578  0.2445  0.1623  0.0757
  408loPI   C4A 6522  13.825  11.334   7.039 -0.3705 -0.1853 -0.0581
  408loPI   C5A 6523  13.823  10.998   6.694  0.2315  0.2354  0.0417
  408loPI   C6A 6524  13.867  10.579   6.816 -0.0706 -0.0567  0.1616
  408loPI   C1B 6525  15.239  11.672   8.596  0.1436 -0.2584  0.3559
  408loPI   C2B 6526  15.386  11.745   8.195  0.0706 -0.1359 -0.0872
  408loPI   C3B 6527  15.315  11.914   7.978 -0.3174 -0.1810  0.0210
  408loPI   C4B 6528  15.204  12.271   7.731  0.0939 -0.0145  0.2915
  409loPI    C1 6529  17.868   9.083  10.168  0.0741 -0.0160  0.1368
  409loPI    C2 6530  17.575   9.243  10.387 -0.1334 -0.2102  0.0049
  409loPI    C3 6531  17.808   9.478  10.163 -0.6024 -0.1079 -0.3924
  409loPI   PO4 6532  17.695   8.870   9.975  0.0190 -0.0960  0.1196
  409loPI   GL1 6533  17.618   8.813   9.549 -0.1237 -0.0498  0.1909
  409loPI   GL2 6534  17.473   8.605   9.354  0.1285 -0.1224 -0.0679
  409loPI   C1A 6535  17.785   9.032   9.140  0.3032 -0.2133  0.0571
  409loPI   C2A 6536  17.753   9.110   8.706  0.0478 -0.0712  0.1828
  409loPI   C3A 6537  17.470   9.200   8.270 -0.3793  0.1110 -0.3404
  409loPI   C4A 6538  17.430   9.057   7.849  0.0836 -0.3157 -0.2134
  409loPI   C5A 6539  17.231   8.939   7.489  0.1235 -0.1733 -0.2480
  409loPI   C6A 6540  17.168   9.033   7.075 -0.0517  0.2606  0.3507
  409loPI   C1B 6541  17.265   8.429   8.946 -0.2346  0.2770 -0.1171
  409loPI   C2B 6542  17.251   8.226   8.547 -0.1846  0.1830  0.0470
  409loPI   C3B 6543  17.570   8.290   8.260 -0.2654  0.1887  0.2350
  409loPI   C4B 6544  17.753   8.161   7.812  0.1507 -0.0460 -0.0781
  410loPI    C1 6545   6.660   3.670   9.858 -0.1241 -0.2482 -0.1332
  410loPI    C2 6546   6.541   3.507  10.203 -0.0363  0.1344  0.0843
  410loPI    C3 6547   6.890   3.700  10.184 -0.0518  0.1374 -0.2151
  410loPI   PO4 6548   6.479   3.835   9.759  0.0799 -0.0642  0.0300
  410loPI   GL1 6549   6.450   3.868   9.213 -0.3326  0.1252  0.0191
  410loPI   GL2 6550   6.727   4.064   9.088 -0.0138  0.0346 -0.0169
  410loPI   C1A 6551   6.164   3.746   8.918  0.2430  0.1113  0.0618
  410loPI   C2A 6552   6.127   3.759   8.489  0.0486  0.1007 -0.0189
  410loPI   C3A 6553   5.962   3.782   8.058 -0.1622 -0.1620  0.1451
  410loPI   C4A 6554   5.624   3.769   7.671  0.0850  0.0698  0.1019
  410loPI   C5A 6555   5.524   3.742   7.220 -0.1288 -0.0325 -0.0984
  410loPI   C6A 6556   5.741   3.544   6.806  0.2096  0.0798  0.2944
  410loPI   C1B 6557   6.638   4.048   8.630  0.0291 -0.0847 -0.0339
  410loPI   C2B 6558   6.304   4.193   8.291  0.2998 -0.2472 -0.1925
  410loPI   C3B 6559   5.841   4.265   8.099  0.0961 -0.2158  0.0785
  410loPI   C4B 6560   5.596   4.500   7.865 -0.1274  0.0529 -0.1881
  411loPI    C1 6561   7.988  18.733   9.816 -0.0944 -0.0254 -0.0853
  411loPI    C2 6562   8.091  19.000  10.095  0.1539  0.0745 -0.2697
  411loPI    C3 6563   8.283  18.649  10.073 -0.1158 -0.0882 -0.0812
  411loPI   PO4 6564   7.897  18.837   9.577 -0.2243 -0.1733  0.0479
  411loPI   GL1 6565   7.657  19.066   9.210 -0.0775  0.1828 -0.1082
  411loPI   GL2 6566   7.518  19.343   9.062 -0.4677  0.2824  0.1959
  411loPI   C1A 6567   7.965  19.062   8.861  0.4294 -0.3014 -0.2268
  411loPI   C2A 6568   8.106  18.926   8.486  0.0418 -0.0494  0.2828
  411loPI   C3A 6569   8.223  18.843   7.990 -0.0395  0.0532  0.3673
  411loPI   C4A 6570   8.551  18.763   7.646 -0.7675  0.1609 -0.1133
  411loPI   C5A 6571   8.672  18.606   7.359  0.0747  0.0972 -0.1912
  411loPI   C6A 6572   8.963  18.667   6.992  0.1667 -0.1159  0.1412
  411loPI   C1B 6573   7.623  19.350   8.557 -0.3821  0.2747 -0.0152
  411loPI   C2B 6574   7.913  19.267   8.195  0.1448  0.2039 -0.0740
  411loPI   C3B 6575   8.048  19.232   7.725 -0.0105 -0.0201  0.1776
  411loPI   C4B 6576   8.147  18.982   7.330  0.2292  0.1478  0.1247
  412loPI    C1 6577  16.105   8.724  10.099 -0.0858  0.1248  0.1067
  412loPI    C2 6578  16.084   8.695  10.497 -0.1141  0.2199  0.1126
  412loPI    C3 6579  15.833   8.485  10.268  0.1524 -0.1313  0.1340
  412loPI   PO4 6580  16.163   8.955  10.042 -0.0616 -0.1340  0.2206
  412loPI   GL1 6581  16.266   9.102   9.558  0.2674 -0.3518  0.1151
  412loPI   GL2 6582  16.076   9.385   9.472 -0.0661  0.0107 -0.2111
  412loPI   C1A 6583  16.371   8.778   9.291  0.0895 -0.0496 -0.2604
  412loPI   C2A 6584  16.335   8.527   8.903  0.0041  0.3292  0.2643
  412loPI   C3A 6585  16.298   8.440   8.430 -0.1560  0.1476  0.0361
  412loPI   C4A 6586  16.447   8.367   7.927 -0.1522  0.1244 -0.0120
  412loPI   C5A 6587  16.469   8.398   7.402  0.1218 -0.1352  0.0504
  412loPI   C6A 6588  16.613   8.554   6.977 -0.0048 -0.0857 -0.3488
  412loPI   C1B 6589  16.095   9.114   9.086 -0.2996 -0.1677 -0.1059
  412loPI   C2B 6590  16.168   9.000   8.709 -0.0064 -0.1322 -0.2162
  412loPI   C3B 6591  16.218   8.959   8.255 -0.0525 -0.1669 -0.0018
  412loPI   C4B 6592  16.456   9.164   7.842  0.2298 -0.1906  0.1985
  413loPI    C1 6593  13.341  17.529   9.969 -0.2297 -0.2249 -0.0008
  413loPI    C2 6594  13.126  17.317  10.231 -0.1640  0.0175  0.2537
  413loPI    C3 6595  13.345  17.627  10.357  0.0439  0.0007 -0.0576
  413loPI   PO4 6596  13.188  17.651   9.800  0.0160 -0.2936  0.1167
  413loPI   GL1 6597  13.000  17.667   9.294  0.0633  0.0999 -0.3101
  413loPI   GL2 6598  13.212  17.863   9.127 -0.0336  0.1474 -0.0548
  413loPI   C1A 6599  12.723  17.981   8.941  0.3396  0.1577 -0.2232
  413loPI   C2A 6600  12.550  17.957   8.569 -0.2292 -0.1139 -0.2488
  413loPI   C3A 6601  12.550  17.876   8.106  0.1307  0.1680  0.0367
  413loPI   C4A 6602  12.437  17.712   7.651 -0.0237  0.1829 -0.0624
  413loPI   C5A 6603  12.524  17.860   7.146  0.1032  0.1965  0.1168
  413loPI   C6A 6604  12.792  18.075   6.842 -0.2031  0.0076  0.2166
  413loPI   C1B 6605  13.033  17.725   8.691 -0.3195 -0.0902  0.0134
  413loPI   C2B 6606  13.080  17.847   8.313 -0.0351 -0.0794 -0.0101
  413loPI   C3B 6607  13.175  18.086   7.973  0.3460 -0.0322 -0.2245
  413loPI   C4B 6608  13.216  18.025   7.646  0.1606  0.1373 -0.3108
  414loPI    C1 6609   8.904  13.235   9.657  0.0802  0.4200  0.2100
  414loPI    C2 6610   8.781  13.240  10.037 -0.2248 -0.4122  0.1435
  414loPI    C3 6611   8.516  13.186   9.742  0.0270  0.0918 -0.1897
  414loPI   PO4 6612   9.083  13.149   9.636 -0.0834 -0.0254 -0.0821
  414loPI   GL1 6613   9.201  12.996   9.204  0.1441  0.2217 -0.2407
  414loPI   GL2 6614   9.503  12.917   9.326 -0.1597  0.1736  0.3984
  414loPI   C1A 6615   9.350  13.241   8.808  0.1268 -0.1459  0.1719
  414loPI   C2A 6616   9.603  13.108   8.489  0.2114  0.0451 -0.1878
  414loPI   C3A 6617   9.493  13.125   8.125  0.1670  0.1960  0.1684
  414loPI   C4A 6618   9.448  13.153   7.649  0.0414 -0.3709  0.3985
  414loPI   C5A 6619   9.028  13.027   7.488 -0.1681 -0.3087 -0.2045
  414loPI   C6A 6620   8.781  13.123   7.048 -0.1284  0.1713  0.1029
  414loPI   C1B 6621   9.368  12.766   8.793 -0.0734  0.2633  0.0650
  414loPI   C2B 6622   9.305  12.657   8.371 -0.6893  0.2964 -0.0126
  414loPI   C3B 6623   9.170  12.408   7.985  0.5907  0.0279  0.1068
  414loPI   C4B 6624   8.821  12.482   7.718  0.1733  0.0782  0.1359
  415loPI    C1 6625  17.986   0.399   9.117  0.1294  0.1713 -0.0461
  415loPI    C2 6626  18.276   0.590   8.919 -0.1097  0.3899 -0.1930
  415loPI    C3 6627  18.017   0.797   9.142 -0.0933  0.1861  0.0188
  415loPI   PO4 6628  18.036   0.182   9.148  0.0628 -0.2567  0.2392
  415loPI   GL1 6629  18.143  -0.108   8.815  0.0383 -0.0811 -0.0550
  415loPI   GL2 6630  18.044   0.162   8.616  0.0272 -0.0630  0.1050
  415loPI   C1A 6631  18.212  -0.557   8.610  0.2707  0.0663  0.1852
  415loPI   C2A 6632  18.131  -0.795   8.302 -0.2312  0.1474 -0.2693
  415loPI   C3A 6633  17.950  -0.995   7.839  0.2509 -0.0932  0.0350
  415loPI   C4A 6634  18.042  -1.193   7.524 -0.0593 -0.3252  0.3650
  415loPI   C5A 6635  18.221  -1.080   7.063 -0.1084  0.1525 -0.4549
  415loPI   C6A 6636  18.105  -1.384   6.717  0.1071  0.2930 -0.1855
  415loPI   C1B 6637  17.865   0.079   8.244 -0.2432 -0.2352 -0.0306
  415loPI   C2B 6638  17.831   0.035   7.824  0.3268 -0.4449 -0.2064
  415loPI   C3B 6639  17.776  -0.140   7.353  0.0394 -0.1617 -0.0479
  415loPI   C4B 6640  17.902  -0.371   7.160  0.0059  0.0695 -0.1738
  416loPI    C1 6641   5.535   1.259   9.679 -0.1814 -0.0826 -0.2014
  416loPI    C2 6642   5.217   1.482   9.581  0.0441  0.3474  0.0119
  416loPI    C3 6643   5.240   1.316   9.944  0.0488  0.2859 -0.0163
  416loPI   PO4 6644   5.512   1.068   9.560  0.0670  0.1206  0.1515
  416loPI   GL1 6645   5.590   0.994   9.165  0.1829  0.0719 -0.0107
  416loPI   GL2 6646   5.772   0.710   9.103 -0.0347 -0.3468 -0.1364
  416loPI   C1A 6647   5.870   1.051   8.803  0.0373  0.1761 -0.0199
  416loPI   C2A 6648   6.035   1.214   8.436  0.0094 -0.0096 -0.1739
  416loPI   C3A 6649   6.294   1.148   8.173 -0.1430  0.0654  0.2553
  416loPI   C4A 6650   6.371   1.136   7.672 -0.0170  0.1933  0.0552
  416loPI   C5A 6651   6.543   1.113   7.273 -0.2040 -0.2409 -0.3975
  416loPI   C6A 6652   6.626   1.188   6.945 -0.1293 -0.0654  0.2164
  416loPI   C1B 6653   6.020   0.645   8.633  0.0141  0.0016 -0.3489
  416loPI   C2B 6654   6.062   0.656   8.174 -0.1742 -0.3127  0.0302
  416loPI   C3B 6655   6.056   0.653   7.788  0.2573 -0.0911 -0.2112
  416loPI   C4B 6656   6.188   0.676   7.438  0.0620 -0.0532  0.0090
  417loPI    C1 6657   7.285  12.654   9.602 -0.0504 -0.0432 -0.0092
  417loPI    C2 6658   7.598  12.899   9.640 -0.0395 -0.0465 -0.0761
  417loPI    C3 6659   7.513  12.637   9.930  0.1740 -0.2245 -0.1713
  417loPI   PO4 6660   7.290  12.523   9.273 -0.1552  0.0229 -0.1517
  417loPI   GL1 6661   7.221  12.251   8.887 -0.0976  0.1616  0.1106
  417loPI   GL2 6662   7.456  12.207   8.670  0.0934  0.3642 -0.2069
  417loPI   C1A 6663   7.114  12.381   8.345  0.0234  0.2809  0.0550
  417loPI   C2A 6664   7.164  12.293   7.892 -0.0843  0.1773 -0.2284
  417loPI   C3A 6665   7.071  12.084   7.576 -0.3731 -0.0800  0.0275
  417loPI   C4A 6666   6.921  12.330   7.232 -0.2648 -0.0082  0.1170
  417loPI   C5A 6667   6.513  12.569   7.122 -0.1818 -0.1346 -0.1961
  417loPI   C6A 6668   6.027  12.554   7.169  0.0917  0.1209  0.0015
  417loPI   C1B 6669   7.577  12.220   8.228 -0.2996 -0.2299 -0.4792
  417loPI   C2B 6670   7.564  12.029   7.756  0.0089 -0.2619 -0.4914
  417loPI   C3B 6671   7.534  11.868   7.343 -0.1823  0.0862 -0.1330
  417loPI   C4B 6672   7.226  11.948   7.038  0.4043 -0.1565  0.1093
  418loPI    C1 6673   5.756   5.311  10.093 -0.0545 -0.0146 -0.1039
  418loPI    C2 6674   5.738   4.963  10.289 -0.4717 -0.0786 -0.2454
  418loPI    C3 6675   5.519   5.273  10.413 -0.0243  0.1721 -0.0583
  418loPI   PO4 6676   5.689   5.152   9.783  0.1329 -0.0189 -0.1116
  418loPI   GL1 6677   5.722   5.417   9.388  0.0252 -0.0017 -0.1431
  418loPI   GL2 6678   5.414   5.460   9.379 -0.2923 -0.3573 -0.1187
  418loPI   C1A 6679   5.776   5.321   9.009 -0.1449 -0.1171 -0.0978
  418loPI   C2A 6680   5.503   5.235   8.678 -0.2682 -0.1404 -0.0577
  418loPI   C3A 6681   5.246   5.343   8.260 -0.2434  0.1288  0.0028
  418loPI   C4A 6682   4.953   5.367   7.917 -0.3591 -0.3108  0.0889
  418loPI   C5A 6683   4.764   5.004   7.796  0.0505 -0.0113 -0.0880
  418loPI   C6A 6684   4.419   4.853   7.547 -0.3527 -0.4274 -0.0427
  418loPI   C1B 6685   5.344   5.626   9.003 -0.0014 -0.1916  0.2887
  418loPI   C2B 6686   5.332   5.794   8.474  0.1715  0.2291 -0.2427
  418loPI   C3B 6687   5.352   5.758   8.000 -0.0018 -0.1882 -0.2501
  418loPI   C4B 6688   5.121   5.963   7.666 -0.0051 -0.0192  0.1017
  419loPI    C1 6689   2.743  11.955  10.472  0.1929 -0.1720  0.0585
  419loPI    C2 6690   2.720  12.286  10.695 -0.0384 -0.2299  0.1237
  419loPI    C3 6691   3.077  12.141  10.588  0.0632  0.2113 -0.1647
  419loPI   PO4 6692   2.516  11.955  10.220  0.0033 -0.1146 -0.3919
  419loPI   GL1 6693   2.501  11.831   9.837  0.0281  0.0395 -0.1014
  419loPI   GL2 6694   2.812  11.925   9.713  0.1772  0.6395  0.0450
  419loPI   C1A 6695   2.255  12.048   9.450 -0.1947 -0.0718  0.0013
  419loPI   C2A 6696   2.277  11.882   9.000 -0.0283 -0.6964  0.0390
  419loPI   C3A 6697   2.743  11.916   8.711  0.0400 -0.1164 -0.3152
  419loPI   C4A 6698   3.041  11.961   8.469 -0.1267  0.2464  0.2692
  419loPI   C5A 6699   3.445  11.941   8.051  0.0160  0.0573 -0.2201
  419loPI   C6A 6700   3.701  11.830   7.730 -0.0461 -0.0582  0.0083
  419loPI   C1B 6701   2.770  11.965   9.255 -0.1812  0.3670  0.0487
  419loPI   C2B 6702   2.898  12.307   9.008 -0.2193 -0.0627  0.1044
  419loPI   C3B 6703   2.968  12.754   9.068  0.1185 -0.1647  0.0254
  419loPI   C4B 6704   2.928  12.956   8.726  0.0270 -0.0120 -0.1296
  420loPI    C1 6705  14.585   0.376   9.756 -0.1151 -0.0697 -0.0067
  420loPI    C2 6706  14.314   0.410  10.048  0.1400 -0.2489  0.2579
  420loPI    C3 6707  14.590   0.122  10.065  0.3525 -0.0661 -0.0038
  420loPI   PO4 6708  14.464   0.355   9.526  0.0706  0.0722  0.0893
  420loPI   GL1 6709  14.441   0.435   9.055  0.0773 -0.0231  0.1440
  420loPI   GL2 6710  14.156   0.602   9.255 -0.2351 -0.0724  0.3041
  420loPI   C1A 6711  14.712   0.275   8.769  0.3751  0.0853 -0.1111
  420loPI   C2A 6712  14.733   0.020   8.464  0.3308 -0.2754  0.0929
  420loPI   C3A 6713  14.931  -0.133   8.054 -0.3905  0.1225  0.0343
  420loPI   C4A 6714  15.103  -0.038   7.641  0.1962  0.1435  0.1647
  420loPI   C5A 6715  14.864  -0.049   7.226 -0.0279 -0.1931 -0.2844
  420loPI   C6A 6716  14.684  -0.009   6.868 -0.3169  0.1878  0.0670
  420loPI   C1B 6717  13.899   0.933   9.031 -0.1775 -0.1560 -0.0077
  420loPI   C2B 6718  13.579   1.060   8.917 -0.1135  0.0755 -0.1361
  420loPI   C3B 6719  13.500   0.999   8.473  0.0150 -0.1592 -0.0117
  420loPI   C4B 6720  13.389   0.827   8.124 -0.0256 -0.2017  0.0834
  421loPI    C1 6721  11.675   4.851   9.619 -0.0576  0.0399  0.0391
  421loPI    C2 6722  11.983   5.083   9.726 -0.0887  0.1037 -0.0086
  421loPI    C3 6723  11.632   5.249   9.630 -0.2515  0.0128  0.4107
  421loPI   PO4 6724  11.720   4.634   9.500  0.1787 -0.1720 -0.0562
  421loPI   GL1 6725  11.719   4.518   9.043  0.2475 -0.2179  0.1134
  421loPI   GL2 6726  11.803   4.511   8.676  0.1858  0.1911 -0.1104
  421loPI   C1A 6727  11.281   4.479   8.795 -0.0304 -0.0088  0.1770
  421loPI   C2A 6728  11.386   4.253   8.403  0.0604  0.2665 -0.1045
  421loPI   C3A 6729  11.541   3.968   8.263 -0.0636  0.1558 -0.1037
  421loPI   C4A 6730  11.753   3.955   7.941  0.3235 -0.1350 -0.2081
  421loPI   C5A 6731  11.780   4.103   7.527  0.2216 -0.2244 -0.2971
  421loPI   C6A 6732  11.661   4.438   7.248 -0.3611  0.2811 -0.1297
  421loPI   C1B 6733  11.904   4.391   8.228  0.1011  0.0064 -0.0763
  421loPI   C2B 6734  12.123   4.273   7.815  0.0141  0.3682 -0.1427
  421loPI   C3B 6735  12.309   4.070   7.408 -0.1268  0.1971 -0.2917
  421loPI   C4B 6736  12.483   3.520   7.460 -0.1063 -0.1501 -0.1498
  422loPI    C1 6737  19.194   2.830   9.749 -0.0268 -0.1055  0.2823
  422loPI    C2 6738  19.510   3.067   9.690 -0.2671  0.0954 -0.2666
  422loPI    C3 6739  19.377   3.000  10.061  0.3142  0.1351 -0.0402
  422loPI   PO4 6740  19.256   2.579   9.566  0.4654 -0.3362 -0.1306
  422loPI   GL1 6741  19.345   2.717   9.145  0.3143 -0.2191  0.3273
  422loPI   GL2 6742  19.571   2.400   9.117  0.4298  0.0133 -0.0825
  422loPI   C1A 6743  19.249   2.644   8.739 -0.1262 -0.2791 -0.1473
  422loPI   C2A 6744  19.279   2.653   8.287  0.1485 -0.3700  0.0321
  422loPI   C3A 6745  19.092   2.619   7.816 -0.0950  0.1425 -0.0982
  422loPI   C4A 6746  18.904   2.740   7.475  0.0568 -0.0518  0.0269
  422loPI   C5A 6747  19.122   2.767   7.035  0.0326 -0.0193  0.0607
  422loPI   C6A 6748  19.384   2.622   6.767  0.3827  0.0189  0.2452
  422loPI   C1B 6749  19.533   2.243   8.666 -0.1815  0.4233  0.1859
  422loPI   C2B 6750  19.577   2.277   8.237 -0.0187 -0.2143  0.0168
  422loPI   C3B 6751  19.567   2.407   7.814 -0.3465  0.2072  0.1636
  422loPI   C4B 6752  19.447   2.464   7.376  0.0564 -0.0086  0.1473
  423loPI    C1 6753  18.362   5.598   9.635 -0.1062  0.0639  0.4131
  423loPI    C2 6754  18.569   5.312   9.824  0.1497  0.1600  0.2828
  423loPI    C3 6755  18.169   5.313   9.839  0.1445 -0.2219  0.2592
  423loPI   PO4 6756  18.442   5.607   9.341 -0.0058  0.1195 -0.0105
  423loPI   GL1 6757  18.427   5.774   9.013 -0.1766 -0.1666 -0.0777
  423loPI   GL2 6758  18.788   5.668   8.974  0.0227 -0.2222 -0.0380
  423loPI   C1A 6759  18.142   5.678   8.689  0.1351 -0.2172  0.4224
  423loPI   C2A 6760  17.850   5.367   8.453 -0.3141 -0.4473  0.0672
  423loPI   C3A 6761  18.009   5.484   8.108 -0.0830  0.5391 -0.0596
  423loPI   C4A 6762  18.340   5.653   7.985  0.1862  0.2949 -0.0630
  423loPI   C5A 6763  18.420   5.792   7.556  0.2956  0.0665 -0.2044
  423loPI   C6A 6764  18.621   6.212   7.441 -0.2443 -0.2283  0.2567
  423loPI   C1B 6765  18.818   5.532   8.495  0.1479  0.0401  0.0820
  423loPI   C2B 6766  18.811   5.686   8.123  0.2013 -0.1717  0.0281
  423loPI   C3B 6767  18.955   5.785   7.693  0.1754 -0.2027 -0.1861
  423loPI   C4B 6768  18.831   5.821   7.194  0.2261 -0.0484  0.1032
  424loPI    C1 6769   7.870  19.573   9.421 -0.3655 -0.3571  0.1788
  424loPI    C2 6770   8.099  19.274   9.288  0.1179  0.1106 -0.0840
  424loPI    C3 6771   8.116  19.383   9.673  0.1446 -0.0194 -0.0477
  424loPI   PO4 6772   7.846  19.752   9.210  0.0583  0.0789 -0.1591
  424loPI   GL1 6773   7.379  19.877   9.066  0.1493 -0.0567  0.1197
  424loPI   GL2 6774   7.281  20.155   8.902 -0.0894  0.0069 -0.1078
  424loPI   C1A 6775   7.635  19.819   8.637 -0.2658 -0.3658 -0.3095
  424loPI   C2A 6776   7.708  19.820   8.233 -0.3876 -0.3991 -0.2418
  424loPI   C3A 6777   7.666  19.561   7.867  0.0509 -0.0803  0.4421
  424loPI   C4A 6778   7.810  19.542   7.465  0.2200  0.0192  0.0219
  424loPI   C5A 6779   7.809  19.717   7.149  0.1617  0.1664 -0.0537
  424loPI   C6A 6780   7.921  20.137   7.128 -0.1020 -0.1647  0.2206
  424loPI   C1B 6781   7.053  19.990   8.668 -0.1130  0.0578  0.0397
  424loPI   C2B 6782   6.817  19.947   8.229  0.0264  0.0722  0.0193
  424loPI   C3B 6783   6.727  19.616   7.887  0.4031 -0.0564  0.0317
  424loPI   C4B 6784   6.506  19.341   7.871  0.0587  0.1176 -0.0591
  425loPI    C1 6785   0.338   9.912  10.394 -0.0743  0.1970  0.0217
  425loPI    C2 6786   0.336   9.593  10.634 -0.0024 -0.0229 -0.2645
  425loPI    C3 6787   0.513   9.931  10.753  0.2650 -0.2119 -0.1131
  425loPI   PO4 6788   0.446   9.847  10.189  0.1020 -0.0724 -0.2489
  425loPI   GL1 6789   0.454  10.143   9.773  0.0641 -0.1332 -0.1588
  425loPI   GL2 6790   0.673  10.192   9.847 -0.3965  0.0584  0.2356
  425loPI   C1A 6791   0.544   9.966   9.393 -0.0903  0.1481 -0.0928
  425loPI   C2A 6792   0.600   9.871   8.985  0.0202  0.0481 -0.0232
  425loPI   C3A 6793   0.802   9.563   8.793  0.0120 -0.0396  0.1424
  425loPI   C4A 6794   0.898   9.534   8.366  0.2579  0.1960 -0.0679
  425loPI   C5A 6795   0.655   9.751   7.996 -0.0146  0.0351  0.1159
  425loPI   C6A 6796   0.469   9.773   7.523 -0.0877  0.1625 -0.0806
  425loPI   C1B 6797   0.876  10.374   9.543 -0.0084  0.2030 -0.1664
  425loPI   C2B 6798   1.113  10.331   9.299 -0.1963 -0.3781 -0.1668
  425loPI   C3B 6799   1.080  10.110   8.890  0.1135  0.0431  0.1273
  425loPI   C4B 6800   1.241   9.840   8.644  0.1188 -0.1025 -0.0692
  426loPI    C1 6801   9.956  11.694   9.622 -0.0405  0.2049  0.0594
  426loPI    C2 6802   9.966  11.859   9.986  0.1093 -0.0409  0.1701
  426loPI    C3 6803  10.303  11.726   9.819  0.0347  0.0337 -0.0431
  426loPI   PO4 6804   9.881  11.877   9.416 -0.3004 -0.2716 -0.1901
  426loPI   GL1 6805   9.705  11.861   8.987 -0.1119  0.1305  0.0118
  426loPI   GL2 6806   9.366  11.780   8.982  0.2323 -0.0686  0.1315
  426loPI   C1A 6807   9.841  11.911   8.579  0.0027 -0.0945 -0.3648
  426loPI   C2A 6808   9.910  11.842   8.092 -0.0055  0.2184  0.1179
  426loPI   C3A 6809  10.151  11.885   7.655 -0.0290  0.1360  0.2453
  426loPI   C4A 6810  10.267  11.889   7.241  0.2531  0.0792 -0.5285
  426loPI   C5A 6811  10.541  11.742   7.028  0.2234 -0.3744  0.2190
  426loPI   C6A 6812  10.565  11.842   6.629  0.0400 -0.1363  0.1451
  426loPI   C1B 6813   9.361  11.786   8.509 -0.1435  0.1782  0.0192
  426loPI   C2B 6814   9.353  11.691   8.047 -0.0353  0.2158  0.1098
  426loPI   C3B 6815   9.447  11.633   7.647  0.1172  0.2494  0.1477
  426loPI   C4B 6816   9.813  11.688   7.323 -0.1170  0.0919 -0.2242
  427loPI    C1 6817   6.023  19.372   9.362  0.0829 -0.1272  0.1617
  427loPI    C2 6818   6.207  19.704   9.234 -0.1004 -0.0154  0.1839
  427loPI    C3 6819   6.401  19.446   9.470 -0.0309  0.1918  0.3564
  427loPI   PO4 6820   5.887  19.295   9.184  0.1009 -0.2205  0.2711
  427loPI   GL1 6821   6.019  19.230   8.760 -0.0716  0.5938  0.4065
  427loPI   GL2 6822   6.116  18.947   8.901 -0.0819 -0.2583  0.1307
  427loPI   C1A 6823   6.123  19.368   8.342 -0.0622  0.1309 -0.1309
  427loPI   C2A 6824   6.060  19.442   7.920 -0.0286 -0.1834  0.0024
  427loPI   C3A 6825   5.864  19.553   7.512  0.0469 -0.0497  0.1025
  427loPI   C4A 6826   5.691  19.492   7.111  0.2859 -0.0224 -0.5003
  427loPI   C5A 6827   5.685  19.669   6.740 -0.0112  0.0421  0.1291
  427loPI   C6A 6828   6.074  19.782   6.559  0.0942 -0.1247  0.0359
  427loPI   C1B 6829   6.346  18.946   8.478 -0.0967  0.1769  0.0130
  427loPI   C2B 6830   6.454  18.896   8.070  0.0845 -0.0266 -0.5995
  427loPI   C3B 6831   6.625  18.890   7.625  0.1225 -0.0681 -0.3417
  427loPI   C4B 6832   6.469  18.861   7.238  0.0241 -0.0151 -0.2040
  428loPI    C1 6833   0.126   5.641   9.983 -0.1484 -0.0530 -0.1170
  428loPI    C2 6834   0.385   5.668  10.287 -0.0622  0.0805 -0.2013
  428loPI    C3 6835   0.036   5.863  10.303 -0.2260 -0.2205 -0.0212
  428loPI   PO4 6836   0.239   5.617   9.811 -0.0782  0.0534  0.1021
  428loPI   GL1 6837   0.159   5.604   9.446 -0.0915  0.1450  0.0731
  428loPI   GL2 6838   0.199   5.305   9.335 -0.1083  0.3599  0.2703
  428loPI   C1A 6839   0.102   5.788   9.041  0.3802 -0.4428 -0.3064
  428loPI   C2A 6840   0.006   5.803   8.675  0.0777  0.1199  0.2651
  428loPI   C3A 6841   0.177   5.736   8.181  0.1907 -0.2527 -0.5738
  428loPI   C4A 6842   0.245   5.469   7.845  0.1331  0.0362  0.0251
  428loPI   C5A 6843   0.364   5.180   7.482 -0.0540  0.1935  0.0047
  428loPI   C6A 6844   0.219   4.993   7.076  0.1470  0.3426  0.1422
  428loPI   C1B 6845   0.418   5.361   8.953 -0.1156 -0.1555 -0.0467
  428loPI   C2B 6846   0.251   5.253   8.623 -0.0476  0.0123  0.1312
  428loPI   C3B 6847   0.364   5.105   8.163  0.2081  0.3593  0.0392
  428loPI   C4B 6848   0.603   4.878   7.902  0.1518  0.0701 -0.1540
  429loPI    C1 6849  11.640  10.721   9.632  0.0595 -0.1624 -0.1874
  429loPI    C2 6850  11.744  10.444   9.902 -0.0573 -0.0558 -0.0308
  429loPI    C3 6851  11.706  10.827  10.012 -0.1888 -0.0247 -0.1805
  429loPI   PO4 6852  11.459  10.726   9.462  0.0029  0.1644  0.0587
  429loPI   GL1 6853  11.512  10.712   9.111  0.0930  0.1754 -0.2940
  429loPI   GL2 6854  11.345  11.035   9.015  0.1607 -0.0082 -0.1502
  429loPI   C1A 6855  11.660  10.700   8.676  0.1681  0.2910 -0.2433
  429loPI   C2A 6856  11.451  10.597   8.252 -0.0582 -0.1125  0.2752
  429loPI   C3A 6857  11.078  10.757   8.149 -0.2061 -0.1502  0.2419
  429loPI   C4A 6858  11.068  10.728   7.674  0.0845  0.4705  0.0218
  429loPI   C5A 6859  11.121  10.817   7.217  0.0812 -0.0995 -0.2025
  429loPI   C6A 6860  10.971  10.781   6.794 -0.2714 -0.1462 -0.2164
  429loPI   C1B 6861  11.151  11.030   8.592  0.3313 -0.2608  0.1236
  429loPI   C2B 6862  11.145  11.250   8.302 -0.7803 -0.1132  0.2171
  429loPI   C3B 6863  11.339  11.484   7.935  0.1916 -0.1274  0.3334
  429loPI   C4B 6864  11.313  11.848   7.786  0.1582  0.1129 -0.0837
  430loPI    C1 6865  13.105   9.498   9.725  0.0163 -0.2084 -0.0720
  430loPI    C2 6866  12.722   9.397   9.668 -0.0572 -0.0538  0.1344
  430loPI    C3 6867  12.881   9.378  10.035  0.1023 -0.0125  0.0680
  430loPI   PO4 6868  13.168   9.515   9.472 -0.2099 -0.1065 -0.0873
  430loPI   GL1 6869  13.055   9.613   9.145  0.4056  0.3323  0.0658
  430loPI   GL2 6870  13.268   9.844   9.021 -0.1176 -0.1098  0.0698
  430loPI   C1A 6871  12.815   9.628   8.782  0.0309 -0.2113 -0.2073
  430loPI   C2A 6872  12.798   9.889   8.354 -0.1441 -0.0030 -0.1742
  430loPI   C3A 6873  12.935   9.873   7.869 -0.0907  0.0389 -0.1224
  430loPI   C4A 6874  12.725   9.818   7.488 -0.3140  0.2518  0.1168
  430loPI   C5A 6875  12.304   9.710   7.263 -0.1903 -0.0348  0.1506
  430loPI   C6A 6876  12.015   9.423   7.044  0.2877  0.1267 -0.1943
  430loPI   C1B 6877  13.209   9.816   8.606  0.0351  0.0502 -0.0103
  430loPI   C2B 6878  13.186   9.680   8.172 -0.1140  0.2038 -0.0667
  430loPI   C3B 6879  13.372   9.587   7.733 -0.4601 -0.0516 -0.0353
  430loPI   C4B 6880  13.134   9.578   7.359  0.2607 -0.4482 -0.1094
  431loPI    C1 6881   7.898   3.003   9.681  0.0302  0.0611  0.2413
  431loPI    C2 6882   7.651   2.920   9.984  0.0373  0.0722  0.2502
  431loPI    C3 6883   7.649   3.284   9.818 -0.2399 -0.0473 -0.0172
  431loPI   PO4 6884   7.869   2.718   9.310 -0.1591 -0.1454  0.1252
  431loPI   GL1 6885   7.791   2.553   8.895 -0.0634 -0.3433 -0.2618
  431loPI   GL2 6886   7.615   2.431   8.747  0.1116 -0.1176 -0.1413
  431loPI   C1A 6887   7.975   2.861   8.611 -0.0450 -0.1470 -0.1888
  431loPI   C2A 6888   8.039   3.190   8.239 -0.2532 -0.2144  0.0386
  431loPI   C3A 6889   8.170   3.343   7.844  0.0550  0.3943 -0.3819
  431loPI   C4A 6890   8.016   3.330   7.424 -0.1737 -0.1026  0.4277
  431loPI   C5A 6891   8.097   3.498   6.927  0.0196 -0.2515 -0.1957
  431loPI   C6A 6892   8.050   3.671   6.619 -0.0347  0.1726 -0.2181
  431loPI   C1B 6893   7.786   2.335   8.340 -0.0431 -0.1969  0.4633
  431loPI   C2B 6894   7.873   2.389   7.952  0.5088 -0.3863  0.0394
  431loPI   C3B 6895   7.947   2.393   7.453 -0.2164  0.2099  0.1388
  431loPI   C4B 6896   7.910   2.128   7.188 -0.2117 -0.0180 -0.1053
  432loPI    C1 6897   4.802  17.441   9.316 -0.0871  0.1004  0.0490
  432loPI    C2 6898   4.538  17.628   9.551  0.0892  0.3283  0.0690
  432loPI    C3 6899   4.924  17.613   9.656  0.0768 -0.0602  0.0731
  432loPI   PO4 6900   4.591  17.452   9.094  0.0153 -0.0290 -0.2540
  432loPI   GL1 6901   4.617  17.561   8.633  0.0775 -0.3492 -0.0821
  432loPI   GL2 6902   4.471  17.781   8.738 -0.2111  0.1142 -0.0206
  432loPI   C1A 6903   4.495  17.447   8.137  0.2726 -0.1994 -0.1680
  432loPI   C2A 6904   4.348  17.709   7.956  0.2397  0.2387 -0.2292
  432loPI   C3A 6905   4.321  17.797   7.494 -0.4023 -0.1685 -0.3378
  432loPI   C4A 6906   4.484  17.676   7.030 -0.0985  0.1374 -0.1037
  432loPI   C5A 6907   4.766  17.614   6.689  0.2579  0.1270  0.1924
  432loPI   C6A 6908   4.778  17.367   6.306 -0.1953  0.1814  0.0205
  432loPI   C1B 6909   4.341  17.940   8.359 -0.0281  0.2798  0.0134
  432loPI   C2B 6910   3.911  18.035   8.198 -0.2006  0.0061 -0.1569
  432loPI   C3B 6911   3.585  18.264   8.260  0.0160  0.0395  0.1025
  432loPI   C4B 6912   3.201  18.493   8.406 -0.0370 -0.1027 -0.0211
  433loPI    C1 6913   5.182   4.057   9.875 -0.3628 -0.2929 -0.0471
  433loPI    C2 6914   4.892   4.190  10.116 -0.1269  0.0051  0.0792
  433loPI    C3 6915   5.265   4.151  10.255 -0.0465 -0.0967 -0.1609
  433loPI   PO4 6916   5.054   3.948   9.677  0.1300  0.1638  0.0192
  433loPI   GL1 6917   5.065   3.882   9.182  0.1698  0.1534  0.2400
  433loPI   GL2 6918   5.116   4.242   9.156  0.0460  0.1290  0.0775
  433loPI   C1A 6919   4.997   3.852   8.767  0.2956  0.1924  0.1494
  433loPI   C2A 6920   4.685   3.572   8.539  0.0986 -0.3367 -0.1927
  433loPI   C3A 6921   4.701   3.502   8.129 -0.1469  0.0969  0.0904
  433loPI   C4A 6922   4.883   3.327   7.865  0.3572  0.1310  0.2050
  433loPI   C5A 6923   4.976   3.234   7.374 -0.1164 -0.0055 -0.1577
  433loPI   C6A 6924   4.774   3.323   6.885  0.0743  0.2837  0.2830
  433loPI   C1B 6925   4.918   4.483   8.813  0.0822 -0.0745 -0.0346
  433loPI   C2B 6926   5.041   4.459   8.416  0.1533 -0.0459 -0.3889
  433loPI   C3B 6927   4.743   4.477   8.046 -0.2619  0.1369 -0.1949
  433loPI   C4B 6928   4.597   4.344   7.570  0.1177  0.0494  0.0769
  434loPI    C1 6929  10.643   5.257  10.197  0.0485  0.0529 -0.1335
  434loPI    C2 6930  10.423   4.926  10.248  0.0301  0.0594 -0.1705
  434loPI    C3 6931  10.822   4.901  10.236  0.0255  0.0267 -0.2637
  434loPI   PO4 6932  10.454   5.400  10.031 -0.0488 -0.3774 -0.3997
  434loPI   GL1 6933  10.351   5.398   9.568  0.1974  0.0904 -0.0082
  434loPI   GL2 6934  10.270   5.078   9.387  0.4632  0.1572  0.0232
  434loPI   C1A 6935  10.141   5.605   9.221 -0.2922  0.0046 -0.0750
  434loPI   C2A 6936  10.403   5.786   8.983 -0.0958 -0.1909  0.2630
  434loPI   C3A 6937  10.746   5.908   8.729  0.0041  0.2177 -0.0765
  434loPI   C4A 6938  11.124   5.916   8.633 -0.0739 -0.6447 -0.2758
  434loPI   C5A 6939  11.360   6.182   8.321 -0.0119  0.1919  0.1556
  434loPI   C6A 6940  11.118   6.123   7.902  0.0111  0.3550 -0.1048
  434loPI   C1B 6941  10.385   5.228   8.943 -0.1578  0.2868 -0.1539
  434loPI   C2B 6942  10.536   5.483   8.600  0.0898  0.1187 -0.1680
  434loPI   C3B 6943  10.691   5.598   8.362 -0.2505  0.0933  0.1363
  434loPI   C4B 6944  11.086   5.748   8.184 -0.1999 -0.5277  0.1276
  435loPI    C1 6945   9.149  14.237   9.981 -0.0674  0.0256 -0.0235
  435loPI    C2 6946   9.262  14.182  10.361 -0.1011  0.2039  0.0130
  435loPI    C3 6947   8.873  14.183  10.265 -0.0843 -0.1419 -0.0707
  435loPI   PO4 6948   9.299  14.133   9.830  0.1804  0.1537 -0.2813
  435loPI   GL1 6949   9.593  14.184   9.598  0.2075 -0.2506 -0.0339
  435loPI   GL2 6950   9.891  14.221   9.546 -0.1721 -0.1340  0.0711
  435loPI   C1A 6951   9.520  14.283   9.136  0.1955  0.1338  0.2574
  435loPI   C2A 6952   9.781  14.240   8.836 -0.3125  0.2494 -0.3049
  435loPI   C3A 6953   9.873  14.144   8.379 -0.1061 -0.0131  0.1529
  435loPI   C4A 6954   9.828  14.275   7.876  0.1792 -0.2438  0.3160
  435loPI   C5A 6955   9.870  14.138   7.488 -0.1160 -0.1194  0.2633
  435loPI   C6A 6956   9.588  14.226   7.203  0.3200  0.0384 -0.0992
  435loPI   C1B 6957  10.050  14.432   9.209 -0.1158 -0.0625 -0.0540
  435loPI   C2B 6958  10.453  14.553   9.064 -0.0698 -0.2859 -0.1906
  435loPI   C3B 6959  10.664  14.488   8.654  0.4683  0.0261  0.1178
  435loPI   C4B 6960  10.653  14.572   8.183  0.0359 -0.0684  0.0585
  436loPI    C1 6961   2.171   3.865   9.623 -0.3264  0.0881  0.0387
  436loPI    C2 6962   2.182   3.633   9.949 -0.0916  0.0724  0.0211
  436loPI    C3 6963   2.427   3.948   9.919 -0.1198  0.0803 -0.1356
  436loPI   PO4 6964   2.146   3.760   9.402 -0.0216 -0.0416 -0.2779
  436loPI   GL1 6965   2.356   3.663   9.088 -0.0427  0.2303  0.1275
  436loPI   GL2 6966   2.414   3.315   9.010  0.0849 -0.0511  0.0133
  436loPI   C1A 6967   2.216   3.592   8.649 -0.4024  0.0531  0.2204
  436loPI   C2A 6968   2.062   3.714   8.247 -0.0207  0.1311 -0.0265
  436loPI   C3A 6969   1.824   3.602   7.780  0.0758  0.2888 -0.2034
  436loPI   C4A 6970   1.756   3.498   7.384  0.0989 -0.0632  0.2561
  436loPI   C5A 6971   1.954   3.477   6.993  0.0747 -0.3006 -0.1907
  436loPI   C6A 6972   1.875   3.571   6.593 -0.4862  0.2031 -0.0069
  436loPI   C1B 6973   2.159   3.012   8.709 -0.2292  0.3208  0.3027
  436loPI   C2B 6974   1.965   2.860   8.326 -0.1510 -0.2207  0.1290
  436loPI   C3B 6975   1.748   2.832   7.941 -0.3117  0.0606  0.0217
  436loPI   C4B 6976   1.584   3.109   7.672 -0.2058  0.1656  0.0645
  437loPI    C1 6977  10.282   5.932   9.916  0.0290 -0.0649 -0.0812
  437loPI    C2 6978   9.926   6.059  10.046  0.0878  0.2311 -0.2009
  437loPI    C3 6979  10.153   5.826  10.279 -0.0644  0.2672 -0.0144
  437loPI   PO4 6980  10.245   6.154   9.699  0.1229  0.0258  0.4633
  437loPI   GL1 6981  10.117   6.271   9.421  0.0508 -0.4341  0.0780
  437loPI   GL2 6982  10.502   6.471   9.346  0.0076 -0.1382  0.1472
  437loPI   C1A 6983  10.059   6.594   9.029 -0.1167 -0.1640 -0.0342
  437loPI   C2A 6984  10.020   6.493   8.707 -0.1195  0.1823 -0.0563
  437loPI   C3A 6985  10.054   6.572   8.396 -0.0834  0.2650 -0.4538
  437loPI   C4A 6986  10.195   6.328   8.035  0.0964 -0.0105 -0.2029
  437loPI   C5A 6987  10.247   6.465   7.625 -0.0904 -0.1028  0.2018
  437loPI   C6A 6988  10.377   6.607   7.159 -0.0975 -0.0042  0.0434
  437loPI   C1B 6989  10.455   6.298   8.968 -0.1540  0.0570  0.0110
  437loPI   C2B 6990  10.441   6.271   8.497 -0.0577 -0.0129  0.1351
  437loPI   C3B 6991  10.624   6.067   8.225 -0.2166  0.3629 -0.0457
  437loPI   C4B 6992  10.651   6.249   7.739  0.0832  0.1023 -0.0565
  438loPI    C1 6993  10.531   2.597   9.290 -0.0475 -0.1210 -0.0020
  438loPI    C2 6994  10.419   2.907   9.518  0.1163 -0.0975  0.0478
  438loPI    C3 6995  10.281   2.540   9.597  0.0322 -0.0602  0.0748
  438loPI   PO4 6996  10.424   2.678   9.050  0.0228  0.1480 -0.0879
  438loPI   GL1 6997  10.127   2.473   8.737  0.0243 -0.1604 -0.1167
  438loPI   GL2 6998  10.018   2.776   8.694 -0.3913  0.0827  0.1176
  438loPI   C1A 6999  10.199   2.196   8.465 -0.2613 -0.0556  0.0165
  438loPI   C2A 7000  10.100   2.260   8.049  0.2429 -0.2488  0.3876
  438loPI   C3A 7001  10.317   2.322   7.653  0.3213 -0.2059 -0.1379
  438loPI   C4A 7002  10.489   2.348   7.245  0.0468  0.1111 -0.4858
  438loPI   C5A 7003  10.606   2.513   6.809  0.0817  0.2962  0.0389
  438loPI   C6A 7004  10.940   2.453   6.447  0.1464  0.4163  0.0344
  438loPI   C1B 7005   9.789   2.637   8.309 -0.1768 -0.0233  0.4233
  438loPI   C2B 7006   9.758   2.583   7.901 -0.0336 -0.0018 -0.4801
  438loPI   C3B 7007   9.827   2.421   7.475 -0.2078  0.0986 -0.0319
  438loPI   C4B 7008  10.031   2.521   7.046  0.1161 -0.0772 -0.3907
  439loPI    C1 7009   8.074   5.910   9.894  0.0212  0.1280 -0.0394
  439loPI    C2 7010   8.366   6.183   9.903  0.1256  0.0224 -0.1721
  439loPI    C3 7011   8.444   5.802  10.000  0.0197  0.0042 -0.1565
  439loPI   PO4 7012   7.905   5.909   9.734 -0.0437 -0.1799 -0.1709
  439loPI   GL1 7013   7.903   5.929   9.301 -0.2128  0.0791  0.2260
  439loPI   GL2 7014   7.733   6.137   9.185 -0.2486  0.4104 -0.1045
  439loPI   C1A 7015   8.129   5.849   9.000 -0.2626  0.1572  0.1115
  439loPI   C2A 7016   8.369   5.614   8.752 -0.1543 -0.1042  0.1540
  439loPI   C3A 7017   8.255   5.553   8.415  0.0042  0.0726 -0.2120
  439loPI   C4A 7018   8.133   5.731   8.078 -0.0998 -0.3398 -0.0369
  439loPI   C5A 7019   7.825   5.727   7.726 -0.0178  0.0734  0.0653
  439loPI   C6A 7020   7.443   6.067   7.842  0.0989  0.0740 -0.0640
  439loPI   C1B 7021   7.744   6.323   8.809 -0.1313 -0.2597  0.0896
  439loPI   C2B 7022   7.833   6.636   8.500  0.1126  0.1315  0.0976
  439loPI   C3B 7023   7.975   6.803   8.176 -0.0104  0.1305 -0.3079
  439loPI   C4B 7024   8.081   6.894   7.809  0.0844 -0.4725 -0.1413
  440loPI    C1 7025  13.068  15.502   9.859 -0.0238  0.1382 -0.1120
  440loPI    C2 7026  13.295  15.187   9.954 -0.0856  0.1157 -0.0385
  440loPI    C3 7027  12.921  15.213  10.093 -0.0363  0.2861  0.0653
  440loPI   PO4 7028  13.157  15.578   9.675 -0.2271 -0.1123 -0.1713
  440loPI   GL1 7029  13.199  15.370   9.381  0.2557  0.0888 -0.0824
  440loPI   GL2 7030  12.890  15.490   9.265  0.3822  0.3730  0.0959
  440loPI   C1A 7031  13.273  15.645   8.996  0.2929 -0.1596  0.0406
  440loPI   C2A 7032  13.307  15.823   8.474  0.0035  0.1224 -0.1489
  440loPI   C3A 7033  13.327  16.084   8.171 -0.2021 -0.0665 -0.2864
  440loPI   C4A 7034  13.217  15.964   7.861 -0.0983  0.0524 -0.3402
  440loPI   C5A 7035  13.137  16.106   7.484 -0.3885  0.2943 -0.0404
  440loPI   C6A 7036  12.922  16.335   7.203  0.0454 -0.1584 -0.1497
  440loPI   C1B 7037  12.724  15.651   8.887 -0.2267 -0.1050  0.1329
  440loPI   C2B 7038  12.846  15.442   8.576  0.0039  0.2272 -0.2168
  440loPI   C3B 7039  12.666  15.471   8.146  0.1130  0.1221  0.1766
  440loPI   C4B 7040  12.599  15.400   7.619  0.1989 -0.1448  0.0405
  441loPI    C1 7041   3.967  14.541   9.691 -0.2141  0.1943  0.0586
  441loPI    C2 7042   3.943  14.639   9.304 -0.0637  0.2049  0.0515
  441loPI    C3 7043   3.632  14.465   9.485 -0.0281 -0.0776 -0.1512
  441loPI   PO4 7044   4.133  14.359   9.689 -0.1089  0.1411 -0.1513
  441loPI   GL1 7045   4.080  14.143   9.374 -0.1089 -0.2101 -0.2269
  441loPI   GL2 7046   4.340  14.217   9.292  0.1892  0.2130 -0.2105
  441loPI   C1A 7047   4.083  14.057   8.894 -0.2379 -0.1369  0.2603
  441loPI   C2A 7048   4.094  13.955   8.419  0.0395 -0.1652 -0.0690
  441loPI   C3A 7049   4.340  13.930   8.047  0.0213  0.0524  0.0561
  441loPI   C4A 7050   4.359  14.187   7.598  0.0344  0.1670  0.2132
  441loPI   C5A 7051   4.333  14.613   7.272  0.1945 -0.1074  0.0082
  441loPI   C6A 7052   4.059  14.829   7.092 -0.1317 -0.2918 -0.0167
  441loPI   C1B 7053   4.625  14.463   9.027 -0.0992 -0.0965  0.0803
  441loPI   C2B 7054   4.688  14.452   8.568  0.4252 -0.2678  0.1261
  441loPI   C3B 7055   4.359  14.428   8.243  0.2772  0.3017  0.1455
  441loPI   C4B 7056   3.934  14.460   8.173 -0.0395  0.2650 -0.0604
  442loPI    C1 7057   0.497   7.851   9.774  0.0938  0.0141  0.0169
  442loPI    C2 7058   0.398   7.605  10.074 -0.0659  0.1968  0.1159
  442loPI    C3 7059   0.359   8.001  10.118 -0.0403  0.2280 -0.1278
  442loPI   PO4 7060   0.285   7.912   9.594 -0.1733  0.0594  0.1428
  442loPI   GL1 7061   0.285   7.938   9.206 -0.0837  0.1396 -0.0812
  442loPI   GL2 7062   0.679   7.907   9.143  0.1002 -0.2117 -0.3308
  442loPI   C1A 7063  -0.001   7.974   8.969 -0.1102 -0.1402 -0.1733
  442loPI   C2A 7064   0.045   8.015   8.570  0.1528 -0.0089  0.1163
  442loPI   C3A 7065  -0.031   7.895   8.183 -0.2294  0.1435 -0.3302
  442loPI   C4A 7066  -0.186   7.950   7.835  0.0367  0.1340  0.2038
  442loPI   C5A 7067   0.204   8.047   7.641 -0.1812  0.1154  0.0029
  442loPI   C6A 7068   0.192   7.882   7.204  0.0651  0.0304 -0.0453
  442loPI   C1B 7069   0.547   7.739   8.790  0.0321 -0.0986 -0.1591
  442loPI   C2B 7070   0.349   7.584   8.500  0.2514 -0.0201  0.1143
  442loPI   C3B 7071   0.249   7.532   8.063 -0.1810 -0.1589 -0.0460
  442loPI   C4B 7072   0.436   7.558   7.684  0.1472  0.0740 -0.1127
  443loPI    C1 7073   7.032   5.594   9.528  0.0032 -0.0048 -0.1178
  443loPI    C2 7074   6.752   5.631   9.812  0.1290 -0.1145  0.0220
  443loPI    C3 7075   7.042   5.358   9.851  0.1112 -0.1738 -0.2432
  443loPI   PO4 7076   6.911   5.654   9.351  0.1142  0.2099  0.0213
  443loPI   GL1 7077   6.652   5.768   8.944 -0.1002 -0.2302  0.3002
  443loPI   GL2 7078   6.787   5.436   8.878  0.2850 -0.2853  0.0354
  443loPI   C1A 7079   6.421   5.760   8.554 -0.1626  0.0244 -0.0543
  443loPI   C2A 7080   6.410   5.568   8.247 -0.0816  0.1059  0.0543
  443loPI   C3A 7081   6.164   5.420   7.845  0.2644 -0.3662  0.1155
  443loPI   C4A 7082   6.204   5.539   7.443  0.4692  0.0888 -0.1944
  443loPI   C5A 7083   6.283   5.857   7.010  0.1798  0.1640 -0.0399
  443loPI   C6A 7084   6.484   6.144   6.909 -0.2627 -0.2718 -0.0219
  443loPI   C1B 7085   6.907   5.489   8.431  0.1998 -0.1002 -0.0782
  443loPI   C2B 7086   7.173   5.391   8.115  0.3059  0.2656  0.0414
  443loPI   C3B 7087   7.301   5.568   7.697 -0.0198  0.1297  0.0765
  443loPI   C4B 7088   7.563   5.750   7.344  0.0810 -0.0200 -0.0398
  444loPI    C1 7089  16.183  19.146   9.922  0.0954 -0.2122  0.0720
  444loPI    C2 7090  15.786  19.170   9.965  0.0973  0.0164 -0.0250
  444loPI    C3 7091  16.002  18.948  10.219 -0.1034 -0.1959 -0.0368
  444loPI   PO4 7092  16.173  19.119   9.554 -0.1834 -0.2243 -0.2633
  444loPI   GL1 7093  16.146  19.285   9.192  0.2148  0.1530 -0.0957
  444loPI   GL2 7094  16.271  19.530   9.042  0.0641  0.2779  0.0545
  444loPI   C1A 7095  15.964  19.203   8.829  0.0545 -0.1546  0.1999
  444loPI   C2A 7096  15.788  19.358   8.442 -0.0870 -0.0253  0.0303
  444loPI   C3A 7097  15.772  19.733   8.366 -0.4705 -0.0492 -0.0630
  444loPI   C4A 7098  16.016  19.888   8.067 -0.1546  0.0027  0.0288
  444loPI   C5A 7099  16.198  19.958   7.668  0.0495  0.0228 -0.2389
  444loPI   C6A 7100  16.137  20.284   7.375 -0.0283 -0.1196  0.0125
  444loPI   C1B 7101  16.403  19.444   8.523  0.0732  0.0261  0.0874
  444loPI   C2B 7102  16.255  19.469   8.108 -0.1477 -0.1528  0.1063
  444loPI   C3B 7103  16.085  19.499   7.743 -0.1083 -0.0453  0.0397
  444loPI   C4B 7104  16.121  19.580   7.253 -0.1523 -0.2718  0.0532
  445loPI    C1 7105   7.870   3.496   9.450  0.0587  0.0433 -0.1201
  445loPI    C2 7106   7.688   3.213   9.233 -0.2204  0.0382  0.1151
  445loPI    C3 7107   7.670   3.596   9.119  0.0868 -0.0243 -0.1578
  445loPI   PO4 7108   8.101   3.458   9.457  0.2004 -0.0410 -0.0120
  445loPI   GL1 7109   8.354   3.468   9.177 -0.1906  0.0594 -0.0566
  445loPI   GL2 7110   8.182   3.130   9.074  0.1173  0.0818 -0.0683
  445loPI   C1A 7111   8.258   3.701   8.887  0.1653 -0.2094 -0.5022
  445loPI   C2A 7112   8.335   3.596   8.471 -0.1386  0.0486 -0.0246
  445loPI   C3A 7113   8.600   3.566   8.049 -0.3225  0.3300 -0.1516
  445loPI   C4A 7114   8.529   3.725   7.627  0.0689 -0.2566 -0.1208
  445loPI   C5A 7115   8.159   3.855   7.320  0.3082  0.1581 -0.0484
  445loPI   C6A 7116   7.788   4.064   7.259  0.1370  0.2545  0.0872
  445loPI   C1B 7117   7.903   3.340   8.721 -0.3272  0.1615 -0.1166
  445loPI   C2B 7118   7.784   3.588   8.474 -0.0582 -0.2430  0.1334
  445loPI   C3B 7119   7.521   3.924   8.218  0.1196 -0.3593  0.1519
  445loPI   C4B 7120   7.656   3.970   7.723  0.0401 -0.3516 -0.0756
  446loPI    C1 7121   6.402  10.196   9.373 -0.1840  0.0384 -0.0790
  446loPI    C2 7122   6.072  10.405   9.456 -0.2121 -0.0574  0.0529
  446loPI    C3 7123   6.268  10.216   9.749  0.0412  0.1168 -0.0010
  446loPI   PO4 7124   6.305   9.983   9.127  0.1605  0.1698  0.1881
  446loPI   GL1 7125   5.870   9.956   8.850 -0.1719 -0.2876  0.3985
  446loPI   GL2 7126   5.608   9.948   8.807 -0.2047  0.0313 -0.2285
  446loPI   C1A 7127   6.037   9.922   8.507 -0.2166 -0.2318  0.2062
  446loPI   C2A 7128   6.163  10.249   8.201 -0.2699  0.0307  0.2553
  446loPI   C3A 7129   6.460  10.581   8.006 -0.0223  0.2354 -0.0681
  446loPI   C4A 7130   6.400  11.017   7.934 -0.0940  0.1892  0.3901
  446loPI   C5A 7131   6.036  11.326   7.753 -0.1217 -0.0789  0.0174
  446loPI   C6A 7132   6.151  11.686   7.548  0.1029 -0.1456 -0.1628
  446loPI   C1B 7133   5.574   9.924   8.417 -0.0513 -0.1060  0.0703
  446loPI   C2B 7134   5.790   9.948   8.086  0.1209 -0.0016 -0.2117
  446loPI   C3B 7135   5.763   9.987   7.645 -0.1400 -0.0129  0.2876
  446loPI   C4B 7136   5.763  10.358   7.402  0.1708 -0.0997 -0.1551
  447loPI    C1 7137   6.663   5.179   9.593  0.4074 -0.1474 -0.0719
  447loPI    C2 7138   6.558   4.796   9.635  0.0094 -0.0395 -0.0367
  447loPI    C3 7139   6.642   5.017   9.958 -0.0395 -0.0227 -0.0354
  447loPI   PO4 7140   6.659   5.168   9.334 -0.1545  0.0619  0.0708
  447loPI   GL1 7141   6.623   4.754   9.089  0.1058  0.0607  0.1045
  447loPI   GL2 7142   6.584   4.980   8.832 -0.1742  0.2704  0.0991
  447loPI   C1A 7143   6.549   4.516   8.563  0.0785 -0.1801 -0.1027
  447loPI   C2A 7144   6.715   4.475   8.205 -0.1135  0.1044 -0.2107
  447loPI   C3A 7145   7.036   4.525   7.785 -0.0753  0.0849  0.1912
  447loPI   C4A 7146   7.359   4.311   7.420  0.0404 -0.2739  0.0710
  447loPI   C5A 7147   7.226   4.077   7.031 -0.1794 -0.4015  0.1287
  447loPI   C6A 7148   7.359   4.134   6.567 -0.0439 -0.0008  0.0294
  447loPI   C1B 7149   6.507   4.991   8.347  0.1863  0.1871 -0.1747
  447loPI   C2B 7150   6.729   5.287   7.949  0.2193  0.0890 -0.2298
  447loPI   C3B 7151   6.602   5.695   7.623  0.1602  0.0128 -0.1963
  447loPI   C4B 7152   6.568   6.061   7.434 -0.0688  0.1232 -0.1051
  448loPI    C1 7153  14.454  10.695   9.937 -0.1648  0.3843  0.0010
  448loPI    C2 7154  14.846  10.637   9.990 -0.1811  0.2474 -0.0259
  448loPI    C3 7155  14.626  10.793  10.285 -0.1859 -0.0803  0.1486
  448loPI   PO4 7156  14.363  10.841   9.746  0.3087 -0.1399  0.1901
  448loPI   GL1 7157  14.400  10.912   9.256 -0.2684  0.0958  0.0111
  448loPI   GL2 7158  14.489  11.207   9.264  0.2096 -0.1426  0.3093
  448loPI   C1A 7159  14.344  10.813   8.841 -0.2014 -0.6118  0.2324
  448loPI   C2A 7160  14.400  10.527   8.534 -0.1715  0.1324 -0.0756
  448loPI   C3A 7161  14.370  10.588   8.100  0.1999  0.0306  0.1347
  448loPI   C4A 7162  14.353  10.709   7.634  0.1799  0.1162 -0.3309
  448loPI   C5A 7163  14.598  10.519   7.283 -0.0026  0.1961  0.2303
  448loPI   C6A 7164  14.964  10.525   7.236  0.0342 -0.2157  0.0784
  448loPI   C1B 7165  14.590  11.261   8.804 -0.0441  0.2366 -0.0091
  448loPI   C2B 7166  14.486  11.086   8.407  0.0698  0.1032  0.3460
  448loPI   C3B 7167  14.464  11.233   7.947  0.1218  0.2267  0.2330
  448loPI   C4B 7168  14.491  11.275   7.529  0.2742 -0.1953  0.0042
  449loPI    C1 7169  17.052   7.476   9.721  0.0388  0.0683 -0.0430
  449loPI    C2 7170  17.252   7.432  10.065 -0.0702 -0.0357  0.0075
  449loPI    C3 7171  16.852   7.433  10.065 -0.0702  0.0415 -0.1096
  449loPI   PO4 7172  17.289   7.564   9.570 -0.0622 -0.4348 -0.1916
  449loPI   GL1 7173  17.179   7.757   9.256 -0.0255  0.1546  0.0353
  449loPI   GL2 7174  16.842   7.617   9.320 -0.0193  0.1055 -0.0394
  449loPI   C1A 7175  16.922   7.774   8.842  0.5742 -0.1699  0.3491
  449loPI   C2A 7176  17.013   7.774   8.402  0.1339  0.0106 -0.0735
  449loPI   C3A 7177  17.293   7.862   7.974  0.0189  0.0864 -0.1459
  449loPI   C4A 7178  17.258   7.630   7.671 -0.0937 -0.2660 -0.1972
  449loPI   C5A 7179  17.612   7.685   7.410 -0.2215  0.0735 -0.1296
  449loPI   C6A 7180  17.878   7.488   7.291 -0.1573  0.2671 -0.0373
  449loPI   C1B 7181  17.086   7.272   9.049  0.1251 -0.2724 -0.2854
  449loPI   C2B 7182  17.063   6.958   8.741 -0.0215 -0.2343  0.1894
  449loPI   C3B 7183  16.983   6.760   8.298  0.2055 -0.1220 -0.1261
  449loPI   C4B 7184  16.841   6.598   7.889  0.2845  0.0399 -0.1770
  450loPI    C1 7185  14.958  16.472   9.580 -0.2142 -0.4014  0.2248
  450loPI    C2 7186  15.186  16.726   9.789  0.2152 -0.1631 -0.4945
  450loPI    C3 7187  15.063  16.383   9.955  0.2186  0.1794  0.2555
  450loPI   PO4 7188  14.859  16.598   9.407  0.0129  0.2113 -0.1185
  450loPI   GL1 7189  14.782  16.862   9.075 -0.1917 -0.2114 -0.0842
  450loPI   GL2 7190  14.669  17.073   9.102 -0.3984 -0.0699 -0.0087
  450loPI   C1A 7191  14.690  16.686   8.707  0.0490 -0.3251  0.0821
  450loPI   C2A 7192  14.658  16.731   8.181 -0.1267 -0.2855 -0.0103
  450loPI   C3A 7193  14.667  16.730   7.750 -0.2028  0.1574 -0.0947
  450loPI   C4A 7194  14.365  16.503   7.490  0.0891 -0.1954 -0.1241
  450loPI   C5A 7195  14.067  16.216   7.180 -0.0696 -0.2833 -0.1299
  450loPI   C6A 7196  13.756  16.101   7.045 -0.0589  0.0241 -0.1739
  450loPI   C1B 7197  14.719  17.176   8.623 -0.2819 -0.0763  0.2926
  450loPI   C2B 7198  14.855  17.222   8.337 -0.5533 -0.1933  0.1031
  450loPI   C3B 7199  14.884  17.174   7.875  0.0705 -0.2792  0.1511
  450loPI   C4B 7200  14.641  17.242   7.728  0.2255 -0.0031  0.0375
  451loPI    C1 7201  19.365  12.760   9.460 -0.1105 -0.0243  0.0750
  451loPI    C2 7202  19.564  12.432   9.348  0.1395  0.0020  0.4258
  451loPI    C3 7203  19.412  12.457   9.717  0.2952  0.3581  0.4704
  451loPI   PO4 7204  19.519  12.964   9.303  0.2156  0.0883 -0.0308
  451loPI   GL1 7205  19.804  13.060   8.924 -0.0463 -0.3118 -0.1635
  451loPI   GL2 7206  19.742  12.727   8.949 -0.0098 -0.1652 -0.1143
  451loPI   C1A 7207  19.827  12.910   8.512 -0.1705  0.3140  0.1861
  451loPI   C2A 7208  20.027  12.931   8.119 -0.2713 -0.0800  0.3040
  451loPI   C3A 7209  20.301  12.893   7.713 -0.2256  0.0239 -0.0350
  451loPI   C4A 7210  20.489  13.048   7.406 -0.1303 -0.0777 -0.0528
  451loPI   C5A 7211  20.726  13.377   7.289  0.0762 -0.3061 -0.1101
  451loPI   C6A 7212  20.678  13.875   7.215  0.2718  0.0779 -0.0514
  451loPI   C1B 7213  20.155  12.762   8.908  0.1519  0.1079 -0.1094
  451loPI   C2B 7214  20.231  12.593   8.480 -0.0933  0.1071  0.0566
  451loPI   C3B 7215  20.356  12.497   8.050  0.0781  0.2281  0.1415
  451loPI   C4B 7216  20.441  12.143   7.857  0.0178  0.1203  0.2585
  452loPI    C1 7217  11.023   3.869   9.530 -0.0099 -0.1893 -0.2245
  452loPI    C2 7218  11.044   4.257   9.624  0.0671 -0.2140 -0.1387
  452loPI    C3 7219  11.251   3.988   9.836 -0.2216 -0.3364 -0.0057
  452loPI   PO4 7220  11.079   3.888   9.318  0.2782  0.2381  0.0148
  452loPI   GL1 7221  10.905   3.765   8.904 -0.3739 -0.0443 -0.1754
  452loPI   GL2 7222  10.998   3.499   8.762  0.2535 -0.3088 -0.1312
  452loPI   C1A 7223  10.970   3.978   8.540  0.2132  0.0081 -0.2432
  452loPI   C2A 7224  10.977   3.846   8.088 -0.0231  0.1412 -0.0911
  452loPI   C3A 7225  11.236   3.932   7.747  0.1057 -0.1945 -0.2663
  452loPI   C4A 7226  11.272   3.849   7.316 -0.0457  0.0940  0.2583
  452loPI   C5A 7227  11.685   3.794   7.015 -0.1699 -0.2274  0.2347
  452loPI   C6A 7228  11.818   4.164   6.806  0.0987 -0.3329 -0.1174
  452loPI   C1B 7229  10.826   3.345   8.389 -0.1142 -0.0765 -0.2615
  452loPI   C2B 7230  10.878   3.220   7.977 -0.0982  0.2882  0.2374
  452loPI   C3B 7231  11.104   2.943   7.791 -0.0297 -0.3526 -0.1440
  452loPI   C4B 7232  11.080   2.561   7.606  0.0286  0.3593 -0.1956
  453loPI    C1 7233   6.731   8.834   9.766 -0.0833 -0.2698  0.1874
  453loPI    C2 7234   6.864   9.120  10.013 -0.1547 -0.1025  0.0345
  453loPI    C3 7235   6.639   8.822  10.155 -0.3497  0.0929  0.1413
  453loPI   PO4 7236   6.677   9.016   9.574 -0.1615 -0.3555  0.0615
  453loPI   GL1 7237   6.466   8.742   9.266  0.0028  0.1595  0.0629
  453loPI   GL2 7238   6.186   8.484   9.236  0.1100  0.0047  0.0285
  453loPI   C1A 7239   6.631   8.991   8.970  0.0331 -0.2848 -0.2253
  453loPI   C2A 7240   6.589   9.208   8.542  0.2300 -0.0550 -0.1163
  453loPI   C3A 7241   6.669   9.320   8.156  0.0347  0.0046  0.1362
  453loPI   C4A 7242   6.822   9.024   7.740 -0.1695  0.1466  0.1287
  453loPI   C5A 7243   7.173   9.163   7.377  0.2549  0.0351  0.2959
  453loPI   C6A 7244   7.491   9.364   7.240 -0.1095  0.0450 -0.0370
  453loPI   C1B 7245   6.378   8.477   8.826 -0.2453 -0.2449 -0.2345
  453loPI   C2B 7246   6.509   8.426   8.399 -0.2826  0.3196 -0.0583
  453loPI   C3B 7247   6.805   8.111   8.311  0.1092 -0.1089 -0.2514
  453loPI   C4B 7248   6.931   7.863   8.014  0.0413  0.3424 -0.0732
  454loPI    C1 7249   3.213   7.268   9.709 -0.3883 -0.0044 -0.0219
  454loPI    C2 7250   3.032   7.411  10.036 -0.1746 -0.1943  0.1828
  454loPI    C3 7251   3.224   7.060  10.051  0.1654 -0.0228 -0.0431
  454loPI   PO4 7252   3.257   7.433   9.575  0.2288  0.0257 -0.1916
  454loPI   GL1 7253   3.246   7.484   9.164 -0.0858 -0.0243  0.0132
  454loPI   GL2 7254   3.554   7.322   9.135 -0.0610  0.3833 -0.0125
  454loPI   C1A 7255   3.464   7.746   8.922 -0.0862  0.2072  0.3400
  454loPI   C2A 7256   3.375   8.016   8.626  0.3336 -0.0647  0.2143
  454loPI   C3A 7257   3.273   8.216   8.230 -0.2666  0.1424  0.0828
  454loPI   C4A 7258   3.376   8.177   7.773  0.0454  0.1113  0.0295
  454loPI   C5A 7259   3.352   8.341   7.334 -0.0111 -0.1191 -0.1127
  454loPI   C6A 7260   3.128   8.262   7.004 -0.1655 -0.1649  0.0751
  454loPI   C1B 7261   3.459   7.264   8.726 -0.0011 -0.0854 -0.1733
  454loPI   C2B 7262   3.629   6.909   8.317 -0.0634 -0.0861  0.2600
  454loPI   C3B 7263   3.475   6.502   7.993 -0.2459 -0.2042  0.0815
  454loPI   C4B 7264   3.201   6.539   7.651 -0.3149 -0.2213  0.1542
  455loPI    C1 7265   8.669   0.179   9.460  0.0316 -0.1237 -0.0198
  455loPI    C2 7266   8.630   0.551   9.603 -0.1615 -0.0814 -0.1784
  455loPI    C3 7267   8.833   0.277   9.812  0.0358  0.1290 -0.0896
  455loPI   PO4 7268   8.410   0.077   9.377 -0.1048  0.1485 -0.1742
  455loPI   GL1 7269   8.352   0.013   8.981 -0.1827 -0.0434  0.0324
  455loPI   GL2 7270   8.042  -0.050   8.762 -0.1159 -0.1289 -0.2409
  455loPI   C1A 7271   8.484  -0.385   8.766  0.3126  0.3328 -0.1303
  455loPI   C2A 7272   8.589  -0.503   8.356  0.0456  0.4395 -0.0450
  455loPI   C3A 7273   8.546  -0.292   7.979 -0.5205 -0.0098 -0.0469
  455loPI   C4A 7274   8.597  -0.405   7.584 -0.4760 -0.1291  0.0637
  455loPI   C5A 7275   8.785  -0.538   7.242 -0.2199 -0.3226  0.0770
  455loPI   C6A 7276   9.027  -0.440   6.916 -0.1686 -0.2361  0.0170
  455loPI   C1B 7277   8.291  -0.080   8.368 -0.1396 -0.1593  0.2905
  455loPI   C2B 7278   8.146   0.070   8.025 -0.1473 -0.2114 -0.0436
  455loPI   C3B 7279   8.351   0.073   7.615  0.5821  0.2326  0.2385
  455loPI   C4B 7280   8.348   0.301   7.168  0.1463 -0.0103  0.2572
  456loPI    C1 7281  12.933   0.475   9.566 -0.2269 -0.3250  0.2898
  456loPI    C2 7282  12.763   0.837   9.569 -0.1074 -0.2643  0.0182
  456loPI    C3 7283  12.641   0.556   9.826 -0.2913 -0.0734  0.1421
  456loPI   PO4 7284  12.952   0.372   9.365 -0.2016  0.0858 -0.3288
  456loPI   GL1 7285  12.777   0.146   9.156  0.0461  0.0886  0.0833
  456loPI   GL2 7286  12.800  -0.179   9.092  0.4787 -0.0707 -0.0620
  456loPI   C1A 7287  13.003   0.107   8.735  0.1818  0.2781 -0.1292
  456loPI   C2A 7288  13.153   0.233   8.416 -0.1662  0.0067  0.0389
  456loPI   C3A 7289  13.341   0.350   8.086  0.3344 -0.1354  0.3681
  456loPI   C4A 7290  13.320   0.420   7.730 -0.0163  0.4416  0.1102
  456loPI   C5A 7291  13.245   0.303   7.325 -0.5353 -0.1079  0.0923
  456loPI   C6A 7292  13.528   0.459   6.946  0.1342  0.3065 -0.4301
  456loPI   C1B 7293  12.767  -0.362   8.699  0.0949 -0.4423 -0.1550
  456loPI   C2B 7294  12.511  -0.456   8.272  0.0784  0.1350  0.1431
  456loPI   C3B 7295  12.240  -0.623   7.961  0.0996  0.2524  0.2633
  456loPI   C4B 7296  11.914  -0.990   7.781 -0.1455 -0.0409 -0.1797
  457loPI    C1 7297  18.516   3.648  10.112  0.1235  0.2634  0.1170
  457loPI    C2 7298  18.535   3.308  10.322  0.3434  0.1163 -0.1357
  457loPI    C3 7299  18.795   3.603  10.396 -0.0181  0.3444  0.2709
  457loPI   PO4 7300  18.468   3.564   9.888 -0.2764  0.3580  0.0076
  457loPI   GL1 7301  18.313   3.591   9.410 -0.0739 -0.1700 -0.1283
  457loPI   GL2 7302  18.589   3.485   9.399  0.4016  0.1011 -0.3625
  457loPI   C1A 7303  18.066   3.501   9.031 -0.2437  0.2138  0.0314
  457loPI   C2A 7304  18.380   3.443   8.610 -0.4490 -0.3832 -0.1585
  457loPI   C3A 7305  18.581   3.460   8.262  0.3539 -0.1626 -0.6635
  457loPI   C4A 7306  19.008   3.522   8.091  0.4380 -0.2938  0.1178
  457loPI   C5A 7307  19.156   3.521   7.644  0.1162  0.2538 -0.1186
  457loPI   C6A 7308  19.131   3.239   7.205 -0.2437  0.0868 -0.1430
  457loPI   C1B 7309  18.807   3.507   9.083 -0.1372  0.1590 -0.1638
  457loPI   C2B 7310  18.963   3.570   8.626  0.1431  0.3040  0.0244
  457loPI   C3B 7311  19.356   3.585   8.423 -0.0796  0.1474 -0.0734
  457loPI   C4B 7312  19.527   3.712   8.088  0.0242  0.1745 -0.2780
  458loPI    C1 7313   8.793   6.855   9.857 -0.0292  0.1065  0.1182
  458loPI    C2 7314   9.107   6.612   9.807  0.0081  0.1939 -0.0834
  458loPI    C3 7315   9.059   6.808  10.153  0.0286 -0.0262  0.0463
  458loPI   PO4 7316   8.723   7.006   9.574 -0.0280  0.0435 -0.1487
  458loPI   GL1 7317   8.444   7.023   9.271 -0.1050 -0.0320  0.1054
  458loPI   GL2 7318   8.400   7.368   9.171 -0.1337 -0.3727 -0.2537
  458loPI   C1A 7319   8.602   6.643   9.079  0.0305  0.1977  0.3104
  458loPI   C2A 7320   8.965   6.574   8.888  0.0728  0.0518  0.3586
  458loPI   C3A 7321   9.205   6.449   8.493 -0.0001 -0.0104  0.3486
  458loPI   C4A 7322   9.308   6.606   8.085 -0.1336  0.2397  0.0933
  458loPI   C5A 7323   9.236   6.386   7.749 -0.2163 -0.0247  0.0819
  458loPI   C6A 7324   9.150   6.201   7.322 -0.0946 -0.1556  0.1779
  458loPI   C1B 7325   8.447   7.071   8.732  0.0188 -0.0046  0.0456
  458loPI   C2B 7326   8.400   7.098   8.186  0.2905 -0.0210  0.0651
  458loPI   C3B 7327   8.588   6.957   7.823  0.1526  0.1960 -0.1316
  458loPI   C4B 7328   8.681   7.058   7.441 -0.2419 -0.0708 -0.0045
  459loPI    C1 7329   2.113  16.171   9.692 -0.0775 -0.0674 -0.1440
  459loPI    C2 7330   2.136  16.303   9.315 -0.0317  0.0335 -0.1063
  459loPI    C3 7331   1.822  16.400   9.542  0.0203  0.1102 -0.0666
  459loPI   PO4 7332   2.288  15.928   9.720 -0.0881 -0.0455  0.1053
  459loPI   GL1 7333   2.580  15.806   9.326 -0.0762 -0.2002 -0.0987
  459loPI   GL2 7334   2.306  15.756   9.121  0.3131  0.0982  0.6840
  459loPI   C1A 7335   2.749  15.963   8.989 -0.0349 -0.1520  0.3317
  459loPI   C2A 7336   2.908  16.205   8.581  0.1727 -0.1309  0.1244
  459loPI   C3A 7337   2.901  16.323   8.128  0.1197 -0.2667 -0.0449
  459loPI   C4A 7338   2.889  16.153   7.743  0.1823  0.1486 -0.2343
  459loPI   C5A 7339   3.113  16.112   7.400 -0.0530  0.4594  0.0967
  459loPI   C6A 7340   3.474  15.929   7.302  0.0877  0.0040 -0.0847
  459loPI   C1B 7341   2.231  15.553   8.748  0.0155 -0.0857 -0.3738
  459loPI   C2B 7342   2.400  15.900   8.485 -0.0530 -0.4665 -0.1140
  459loPI   C3B 7343   2.690  15.841   8.193 -0.0838 -0.1230  0.3229
  459loPI   C4B 7344   2.501  15.755   7.794 -0.5048  0.3163  0.0248
  460loPI    C1 7345  13.127  13.142   9.823  0.1038 -0.1364 -0.0632
  460loPI    C2 7346  13.281  12.869  10.072 -0.2334 -0.1571  0.1295
  460loPI    C3 7347  13.250  13.250  10.189 -0.0722 -0.0981 -0.0147
  460loPI   PO4 7348  13.156  13.118   9.591  0.0367  0.0300  0.1558
  460loPI   GL1 7349  12.913  12.961   9.195  0.2391 -0.1722 -0.3048
  460loPI   GL2 7350  13.133  12.635   9.171  0.0141  0.3278  0.0778
  460loPI   C1A 7351  12.807  12.846   8.723 -0.0650  0.1958 -0.4241
  460loPI   C2A 7352  12.855  12.773   8.267 -0.2377 -0.2286 -0.1803
  460loPI   C3A 7353  12.872  12.836   7.786  0.0561  0.0221 -0.1074
  460loPI   C4A 7354  12.589  12.633   7.430 -0.2255 -0.1069  0.0017
  460loPI   C5A 7355  12.691  12.878   7.084 -0.0798 -0.1513  0.0454
  460loPI   C6A 7356  12.411  13.206   6.831 -0.0853 -0.4529 -0.0688
  460loPI   C1B 7357  12.615  12.502   9.171  0.0449  0.0033 -0.0067
  460loPI   C2B 7358  12.539  12.456   8.745 -0.0205 -0.0779  0.0213
  460loPI   C3B 7359  12.632  12.318   8.295 -0.0419  0.0786 -0.0404
  460loPI   C4B 7360  12.504  12.541   8.020  0.1282  0.2309  0.2155
  461loPI    C1 7361  18.388   0.916   9.627 -0.1952 -0.1731  0.2617
  461loPI    C2 7362  18.108   1.196   9.680  0.1288  0.1875  0.1245
  461loPI    C3 7363  18.314   1.056   9.994 -0.0223  0.1118  0.1912
  461loPI   PO4 7364  18.482   0.969   9.364  0.0041 -0.1325 -0.0005
  461loPI   GL1 7365  18.539   1.191   8.951  0.3010 -0.0314 -0.1926
  461loPI   GL2 7366  18.650   0.916   8.842  0.1710  0.0754  0.0446
  461loPI   C1A 7367  18.600   1.374   8.632 -0.0165  0.3467  0.1126
  461loPI   C2A 7368  18.475   1.485   8.195  0.1653  0.0219 -0.0585
  461loPI   C3A 7369  18.185   1.468   7.973  0.0072  0.0726  0.1423
  461loPI   C4A 7370  18.245   1.665   7.661 -0.2894 -0.1575  0.0484
  461loPI   C5A 7371  18.443   1.344   7.312 -0.2605 -0.3511 -0.0780
  461loPI   C6A 7372  18.211   0.909   7.240  0.1526 -0.0341 -0.2200
  461loPI   C1B 7373  18.841   0.751   8.357 -0.0253  0.3241  0.1879
  461loPI   C2B 7374  18.963   0.894   7.992 -0.0145  0.1477 -0.0343
  461loPI   C3B 7375  19.159   0.941   7.522 -0.2495 -0.0648  0.1199
  461loPI   C4B 7376  18.919   0.964   7.141  0.0138 -0.1096  0.0125
  462loPI    C1 7377   7.411   6.584   9.843 -0.0029  0.0015  0.0615
  462loPI    C2 7378   7.095   6.405  10.013 -0.0567  0.0756  0.0402
  462loPI    C3 7379   7.410   6.510  10.236 -0.0056 -0.0859  0.0454
  462loPI   PO4 7380   7.379   6.747   9.680 -0.1075 -0.0500 -0.1106
  462loPI   GL1 7381   7.563   6.710   9.254 -0.2859  0.0534 -0.0627
  462loPI   GL2 7382   7.194   6.795   9.203 -0.0854 -0.1412  0.0115
  462loPI   C1A 7383   7.519   6.918   8.789 -0.0151 -0.0345  0.0814
  462loPI   C2A 7384   7.202   7.072   8.565 -0.0247 -0.1934 -0.0401
  462loPI   C3A 7385   7.163   7.434   8.256  0.5888 -0.1962 -0.1460
  462loPI   C4A 7386   7.285   7.457   7.861 -0.1230  0.1288  0.2113
  462loPI   C5A 7387   7.471   7.607   7.416 -0.1395  0.2190  0.1179
  462loPI   C6A 7388   7.678   7.795   7.007  0.3826 -0.2094 -0.1979
  462loPI   C1B 7389   6.782   6.831   8.931 -0.2340  0.3364 -0.0180
  462loPI   C2B 7390   6.796   6.810   8.525 -0.1974  0.1987 -0.0106
  462loPI   C3B 7391   7.001   6.841   8.162 -0.2377 -0.1527  0.0980
  462loPI   C4B 7392   7.117   6.947   7.758  0.2775  0.1716 -0.0658
  463loPI    C1 7393  18.287  19.368   9.291  0.0222 -0.1948 -0.2842
  463loPI    C2 7394  18.316  19.186   9.646  0.3435 -0.0102 -0.2116
  463loPI    C3 7395  18.001  19.419   9.566  0.2802 -0.0354 -0.0397
  463loPI   PO4 7396  18.500  19.313   9.155  0.2342  0.3793 -0.1794
  463loPI   GL1 7397  18.682  19.266   8.748 -0.2563 -0.1776 -0.1840
  463loPI   GL2 7398  18.681  19.528   8.806 -0.1785  0.0700  0.2019
  463loPI   C1A 7399  18.708  18.910   8.460  0.0067  0.2584  0.2459
  463loPI   C2A 7400  18.926  18.838   8.053 -0.0960  0.2371 -0.1921
  463loPI   C3A 7401  18.872  19.072   7.728 -0.2081 -0.0535 -0.4749
  463loPI   C4A 7402  18.906  19.291   7.290  0.0336 -0.0773 -0.2181
  463loPI   C5A 7403  19.062  19.373   6.808 -0.1680 -0.2976  0.0096
  463loPI   C6A 7404  19.209  19.103   6.462 -0.0268  0.1529 -0.1469
  463loPI   C1B 7405  18.530  19.544   8.344 -0.4535  0.1882 -0.0262
  463loPI   C2B 7406  18.320  19.312   8.068  0.2305  0.1878  0.2082
  463loPI   C3B 7407  18.393  18.928   7.887  0.1556  0.1434 -0.0445
  463loPI   C4B 7408  18.436  18.792   7.464 -0.0933  0.3014 -0.6522
  464loPI    C1 7409  17.745   1.421   9.425  0.0383  0.0311 -0.0817
  464loPI    C2 7410  17.551   1.172   9.671  0.0853  0.0644 -0.0107
  464loPI    C3 7411  17.575   1.562   9.758  0.2507  0.0480  0.0209
  464loPI   PO4 7412  17.722   1.226   9.101 -0.1550 -0.4109 -0.2663
  464loPI   GL1 7413  18.008   1.404   8.764  0.0300  0.3327 -0.2836
  464loPI   GL2 7414  18.098   1.166   8.750  0.0258 -0.0551  0.0233
  464loPI   C1A 7415  17.968   1.694   8.440  0.0759 -0.0950  0.0699
  464loPI   C2A 7416  18.026   1.952   8.052  0.0079  0.0153  0.3447
  464loPI   C3A 7417  17.956   2.169   7.585  0.2332  0.0968  0.0495
  464loPI   C4A 7418  17.898   2.268   7.152 -0.0548 -0.2426  0.2257
  464loPI   C5A 7419  17.810   2.509   6.719 -0.1668 -0.0469  0.0250
  464loPI   C6A 7420  17.588   2.880   6.460  0.2247  0.1767  0.0093
  464loPI   C1B 7421  18.260   1.046   8.406  0.1600  0.1380  0.0136
  464loPI   C2B 7422  18.400   0.898   8.070  0.2002  0.0147 -0.0107
  464loPI   C3B 7423  18.500   0.835   7.663  0.0069  0.0105  0.1434
  464loPI   C4B 7424  18.537   0.532   7.263  0.1022  0.0280  0.2034
  465loPI    C1 7425  14.421   3.253   9.686 -0.0180 -0.0975  0.3740
  465loPI    C2 7426  14.520   2.999   9.393  0.0645  0.2493  0.0950
  465loPI    C3 7427  14.141   3.023   9.518  0.0241  0.1180 -0.0010
  465loPI   PO4 7428  14.528   3.561   9.663  0.1833  0.1247 -0.2524
  465loPI   GL1 7429  14.464   3.804   9.393 -0.1938 -0.2144 -0.0119
  465loPI   GL2 7430  14.593   4.077   9.190  0.1263 -0.4431 -0.1967
  465loPI   C1A 7431  14.372   3.685   8.942  0.1183  0.1176 -0.0897
  465loPI   C2A 7432  14.415   3.827   8.535  0.2407  0.1361 -0.1340
  465loPI   C3A 7433  14.492   4.186   8.255  0.0553 -0.1017 -0.0487
  465loPI   C4A 7434  14.577   4.187   7.814 -0.2157 -0.1682  0.0882
  465loPI   C5A 7435  14.409   4.205   7.367 -0.0581  0.3527 -0.0757
  465loPI   C6A 7436  14.030   4.088   7.250  0.1385  0.2157  0.2317
  465loPI   C1B 7437  14.232   4.167   8.913  0.2370 -0.1159 -0.1211
  465loPI   C2B 7438  13.778   4.268   8.756 -0.1424 -0.3795  0.2305
  465loPI   C3B 7439  13.604   4.355   8.389  0.4214 -0.0319 -0.1704
  465loPI   C4B 7440  13.618   4.258   7.983 -0.0176  0.0458 -0.2440
  466loPI    C1 7441  13.476   0.234   9.830 -0.1072 -0.0527  0.0153
  466loPI    C2 7442  13.779   0.230  10.092 -0.1441 -0.3703  0.0579
  466loPI    C3 7443  13.449   0.015  10.164 -0.3869 -0.0212  0.0156
  466loPI   PO4 7444  13.456   0.453   9.741  0.0667  0.2397  0.1799
  466loPI   GL1 7445  13.537   0.404   9.264 -0.1571  0.4572 -0.1993
  466loPI   GL2 7446  13.331   0.138   9.101  0.0877  0.0689 -0.0133
  466loPI   C1A 7447  13.812   0.489   8.929  0.0195  0.3623 -0.2732
  466loPI   C2A 7448  14.142   0.528   8.714 -0.0166  0.0167 -0.3688
  466loPI   C3A 7449  14.498   0.627   8.360 -0.1167  0.1254  0.1567
  466loPI   C4A 7450  14.764   0.828   8.109 -0.0739  0.0656  0.4561
  466loPI   C5A 7451  14.949   1.145   7.785 -0.0332  0.1617  0.2506
  466loPI   C6A 7452  15.108   1.602   7.596 -0.1260  0.0229  0.1901
  466loPI   C1B 7453  13.608   0.004   8.787  0.5000  0.5185  0.2232
  466loPI   C2B 7454  13.719   0.083   8.444 -0.0954  0.0874 -0.1834
  466loPI   C3B 7455  13.862   0.018   8.084 -0.2915  0.1912 -0.0218
  466loPI   C4B 7456  13.928   0.188   7.744 -0.0638  0.0303 -0.0366
  467loPI    C1 7457   5.030   1.926   9.633 -0.0330  0.0062  0.0482
  467loPI    C2 7458   4.775   1.621   9.680 -0.1416  0.0907  0.0091
  467loPI    C3 7459   4.858   1.861   9.989 -0.1657  0.1070  0.0030
  467loPI   PO4 7460   4.856   2.124   9.426 -0.3392  0.3137  0.2846
  467loPI   GL1 7461   4.764   2.179   9.023 -0.0659  0.4251 -0.1180
  467loPI   GL2 7462   4.571   2.208   8.861 -0.0464 -0.1187  0.2499
  467loPI   C1A 7463   5.048   2.170   8.656 -0.1167 -0.4859  0.1186
  467loPI   C2A 7464   5.149   2.032   8.305  0.5230  0.0254 -0.1014
  467loPI   C3A 7465   5.045   1.899   7.806  0.1943  0.0399 -0.2876
  467loPI   C4A 7466   4.992   1.993   7.411  0.1661 -0.0769 -0.0829
  467loPI   C5A 7467   5.188   1.819   7.115  0.2186 -0.0517 -0.0299
  467loPI   C6A 7468   5.311   1.491   6.834 -0.1611 -0.0993 -0.0690
  467loPI   C1B 7469   4.371   2.176   8.460  0.0375 -0.1121  0.0231
  467loPI   C2B 7470   4.147   2.202   8.036 -0.0776  0.2312 -0.0324
  467loPI   C3B 7471   4.043   2.276   7.601  0.0825  0.2502 -0.0676
  467loPI   C4B 7472   3.675   2.257   7.403 -0.0139 -0.0431  0.1189
  468loPI    C1 7473  14.332  13.846   9.491 -0.0588 -0.0004  0.0038
  468loPI    C2 7474  14.528  13.762   9.829 -0.0699  0.0338  0.0186
  468loPI    C3 7475  14.133  13.822   9.837 -0.0607  0.0958  0.0096
  468loPI   PO4 7476  14.329  13.720   9.314  0.0681 -0.1848  0.6002
  468loPI   GL1 7477  14.149  13.645   8.973  0.3301  0.0209  0.0008
  468loPI   GL2 7478  14.030  13.921   8.879  0.0736 -0.0907  0.0965
  468loPI   C1A 7479  14.089  13.562   8.483 -0.0303  0.1903 -0.2085
  468loPI   C2A 7480  14.288  13.825   8.108  0.0727 -0.0791 -0.2548
  468loPI   C3A 7481  14.295  13.767   7.681 -0.3101  0.2754  0.0461
  468loPI   C4A 7482  13.984  13.764   7.372 -0.1030  0.2139 -0.0892
  468loPI   C5A 7483  13.946  14.073   7.060  0.0230  0.1560  0.0546
  468loPI   C6A 7484  14.107  14.430   6.952  0.0221 -0.3555 -0.1151
  468loPI   C1B 7485  14.177  14.079   8.632 -0.1740 -0.0781  0.1319
  468loPI   C2B 7486  14.190  14.316   8.197  0.1302  0.0522 -0.1061
  468loPI   C3B 7487  14.430  14.267   7.785  0.4124 -0.2545 -0.0528
  468loPI   C4B 7488  14.658  14.508   7.452  0.0661  0.4302 -0.0486
  469loPI    C1 7489   6.164  18.373   9.877 -0.4365  0.0631 -0.2167
  469loPI    C2 7490   5.905  18.398  10.181 -0.1062  0.2999  0.0538
  469loPI    C3 7491   6.295  18.354  10.255 -0.0945 -0.4341 -0.3496
  469loPI   PO4 7492   6.032  18.515   9.677  0.1596 -0.0826 -0.1311
  469loPI   GL1 7493   6.220  18.479   9.214 -0.2784  0.3540 -0.0025
  469loPI   GL2 7494   6.537  18.319   9.104 -0.0608 -0.0549 -0.0657
  469loPI   C1A 7495   6.197  18.409   8.713  0.1011 -0.1235 -0.0048
  469loPI   C2A 7496   6.212  18.412   8.224  0.2132 -0.1219 -0.1210
  469loPI   C3A 7497   6.390  18.410   7.795  0.1004 -0.0886  0.0825
  469loPI   C4A 7498   6.811  18.500   7.435 -0.0287  0.0302  0.1598
  469loPI   C5A 7499   6.805  18.671   6.948  0.0455  0.2246  0.0037
  469loPI   C6A 7500   6.858  18.922   6.588 -0.2222  0.1740 -0.0519
  469loPI   C1B 7501   6.760  17.979   8.840  0.0560 -0.0920 -0.1368
  469loPI   C2B 7502   6.991  17.883   8.555 -0.2119  0.1637 -0.3786
  469loPI   C3B 7503   7.364  17.785   8.284  0.1802  0.1649  0.2739
  469loPI   C4B 7504   7.728  18.040   8.168 -0.2718 -0.0830 -0.0319
  470loPI    C1 7505  17.061  10.635   9.770  0.1389  0.0376  0.0118
  470loPI    C2 7506  16.713  10.568   9.956  0.1483  0.0784  0.0441
  470loPI    C3 7507  16.984  10.811  10.121  0.1236  0.1790 -0.0619
  470loPI   PO4 7508  17.135  10.416   9.564 -0.2141  0.0760  0.2025
  470loPI   GL1 7509  17.234  10.224   9.149  0.3364  0.0058 -0.2324
  470loPI   GL2 7510  17.189  10.444   8.940  0.2111  0.1070  0.1848
  470loPI   C1A 7511  17.605  10.137   8.745  0.0658  0.1342  0.1073
  470loPI   C2A 7512  17.662   9.994   8.216  0.0872 -0.0572 -0.0798
  470loPI   C3A 7513  17.795   9.652   7.894 -0.0937  0.3082  0.2898
  470loPI   C4A 7514  17.484   9.410   7.483  0.0374 -0.0867  0.1330
  470loPI   C5A 7515  17.657   9.050   7.266 -0.0952 -0.2460  0.3380
  470loPI   C6A 7516  18.028   8.667   7.114  0.1199 -0.3029  0.2082
  470loPI   C1B 7517  17.180  10.195   8.497 -0.1485  0.0592  0.0450
  470loPI   C2B 7518  17.234  10.178   7.996  0.1020  0.2758  0.0573
  470loPI   C3B 7519  17.587  10.132   7.648 -0.1659  0.4307 -0.2198
  470loPI   C4B 7520  18.040  10.058   7.642 -0.0157  0.1569 -0.0735
  471loPI    C1 7521   1.604  17.584   9.647  0.0403  0.2830  0.0390
  471loPI    C2 7522   1.292  17.451   9.857 -0.0442  0.0114 -0.2515
  471loPI    C3 7523   1.467  17.796   9.957 -0.2210 -0.0021  0.1226
  471loPI   PO4 7524   1.548  17.400   9.435  0.1960  0.0671 -0.0996
  471loPI   GL1 7525   1.827  17.433   9.136 -0.1825  0.0011 -0.3292
  471loPI   GL2 7526   1.950  17.104   9.142 -0.0294  0.1607  0.1485
  471loPI   C1A 7527   1.526  17.479   8.735 -0.1171  0.0463  0.1990
  471loPI   C2A 7528   1.177  17.437   8.572 -0.1741  0.0420 -0.0593
  471loPI   C3A 7529   1.261  17.595   8.183  0.0974 -0.3218 -0.1258
  471loPI   C4A 7530   1.568  17.832   7.831  0.3223  0.0801  0.0148
  471loPI   C5A 7531   1.841  17.928   7.551  0.1315  0.1766  0.1659
  471loPI   C6A 7532   2.053  17.813   7.191  0.2740 -0.2272 -0.0181
  471loPI   C1B 7533   1.722  17.044   8.791  0.3143  0.2038  0.1146
  471loPI   C2B 7534   1.500  17.064   8.510 -0.0086  0.1889 -0.1516
  471loPI   C3B 7535   1.645  16.909   8.072  0.2226  0.2064  0.3427
  471loPI   C4B 7536   1.424  16.673   7.713  0.1350  0.2378 -0.0237
  472loPI    C1 7537  16.531  17.420   9.747 -0.1659 -0.0831 -0.0615
  472loPI    C2 7538  16.355  17.244  10.060 -0.1941 -0.0427 -0.0548
  472loPI    C3 7539  16.725  17.138   9.953 -0.1835 -0.0548 -0.0059
  472loPI   PO4 7540  16.407  17.339   9.557 -0.0705 -0.0135 -0.1917
  472loPI   GL1 7541  16.349  17.395   9.021 -0.0346 -0.0037 -0.0510
  472loPI   GL2 7542  16.088  17.331   8.814 -0.1556  0.3432  0.0730
  472loPI   C1A 7543  16.482  17.675   8.681 -0.0988 -0.1541  0.2969
  472loPI   C2A 7544  16.413  18.196   8.598 -0.2312 -0.1994 -0.1073
  472loPI   C3A 7545  16.551  18.639   8.485  0.2330  0.4492 -0.0286
  472loPI   C4A 7546  16.653  19.035   8.178 -0.0931  0.0083  0.0299
  472loPI   C5A 7547  16.665  19.084   7.676 -0.0417 -0.1726  0.1824
  472loPI   C6A 7548  16.867  19.054   7.251 -0.2375  0.0244  0.1304
  472loPI   C1B 7549  15.859  17.328   8.386  0.5606 -0.4007 -0.1495
  472loPI   C2B 7550  15.696  17.377   7.977  0.1824 -0.0942  0.1581
  472loPI   C3B 7551  15.657  17.537   7.610  0.2546  0.4655 -0.0710
  472loPI   C4B 7552  15.438  17.357   7.209 -0.1460 -0.1423 -0.0338
  473loPI    C1 7553   7.547  10.832   9.448  0.0344 -0.3464 -0.0189
  473loPI    C2 7554   7.237  10.808   9.195 -0.0406  0.0854  0.0248
  473loPI    C3 7555   7.196  10.686   9.574 -0.0869 -0.0698 -0.0294
  473loPI   PO4 7556   7.729  10.776   9.263  0.0401  0.1912  0.1054
  473loPI   GL1 7557   7.561  10.664   8.820  0.0609  0.0788 -0.1069
  473loPI   GL2 7558   7.924  10.848   8.688 -0.0725  0.0977 -0.2722
  473loPI   C1A 7559   7.451  10.811   8.402  0.1397 -0.0225 -0.1159
  473loPI   C2A 7560   7.505  10.614   7.957 -0.0322  0.1628 -0.0667
  473loPI   C3A 7561   7.550  10.336   7.550 -0.1176 -0.2495  0.1681
  473loPI   C4A 7562   7.702  10.319   7.129  0.0747 -0.1835 -0.2864
  473loPI   C5A 7563   7.892  10.356   6.669  0.0005  0.3917 -0.1325
  473loPI   C6A 7564   8.128  10.407   6.298 -0.3232 -0.1108  0.1752
  473loPI   C1B 7565   8.316  10.978   8.487  0.0081 -0.1240 -0.1294
  473loPI   C2B 7566   8.394  11.098   8.086  0.0363 -0.0050 -0.1035
  473loPI   C3B 7567   8.324  10.955   7.703 -0.1306  0.0906  0.2077
  473loPI   C4B 7568   8.391  10.918   7.208  0.2058  0.0875  0.1937
  474loPI    C1 7569   4.579   4.076   9.636 -0.0707  0.0137 -0.2422
  474loPI    C2 7570   4.804   4.407   9.629 -0.0460 -0.0006 -0.1391
  474loPI    C3 7571   4.458   4.404   9.830 -0.0495 -0.0355 -0.1453
  474loPI   PO4 7572   4.633   3.995   9.408 -0.0883 -0.1552 -0.3070
  474loPI   GL1 7573   4.584   4.003   8.984  0.0456  0.5700  0.1752
  474loPI   GL2 7574   4.323   3.878   8.927 -0.2315  0.2200  0.1853
  474loPI   C1A 7575   4.690   4.119   8.515  0.2479 -0.1095  0.0646
  474loPI   C2A 7576   4.953   3.958   8.274  0.1669  0.0873 -0.1234
  474loPI   C3A 7577   4.841   3.925   7.854  0.2091  0.1106 -0.0620
  474loPI   C4A 7578   4.636   3.773   7.508 -0.0620  0.0465  0.0828
  474loPI   C5A 7579   4.632   3.993   7.176  0.1746 -0.1406  0.2994
  474loPI   C6A 7580   4.303   4.113   6.845  0.3006 -0.0353  0.3013
  474loPI   C1B 7581   4.222   4.229   8.656  0.1874  0.1024  0.0687
  474loPI   C2B 7582   4.439   4.560   8.496  0.0219  0.1810  0.0210
  474loPI   C3B 7583   4.579   4.895   8.503  0.0339  0.0753 -0.1322
  474loPI   C4B 7584   4.723   5.150   8.311 -0.0711 -0.0412 -0.1738
  475loPI    C1 7585   8.126   5.372   9.999 -0.1014  0.1538 -0.0797
  475loPI    C2 7586   8.071   5.106  10.292 -0.2982  0.1501 -0.1183
  475loPI    C3 7587   7.773   5.187  10.038 -0.1203  0.1323 -0.3351
  475loPI   PO4 7588   8.337   5.316   9.809 -0.0322  0.0100 -0.0060
  475loPI   GL1 7589   8.325   5.075   9.410 -0.1196  0.1616  0.1117
  475loPI   GL2 7590   8.356   5.327   9.225 -0.0549 -0.1447 -0.1922
  475loPI   C1A 7591   8.122   4.985   8.874 -0.1188 -0.1337  0.2427
  475loPI   C2A 7592   8.005   5.058   8.407 -0.0660  0.0488  0.2101
  475loPI   C3A 7593   7.996   5.287   8.037  0.2493 -0.1609 -0.1544
  475loPI   C4A 7594   7.737   5.247   7.639  0.3608 -0.1831 -0.0485
  475loPI   C5A 7595   7.528   4.914   7.415  0.1025 -0.1793 -0.2108
  475loPI   C6A 7596   7.191   4.728   7.241 -0.0499 -0.0397 -0.2554
  475loPI   C1B 7597   8.569   5.209   8.935  0.2754 -0.1367  0.3572
  475loPI   C2B 7598   8.508   5.117   8.548  0.1235 -0.1236 -0.3273
  475loPI   C3B 7599   8.603   5.304   8.123  0.1649  0.0360  0.1909
  475loPI   C4B 7600   8.767   5.571   7.826  0.0048  0.2728 -0.1068
  476loPI    C1 7601  12.349  15.364  10.051 -0.0117  0.1486 -0.1510
  476loPI    C2 7602  12.224  15.729   9.946  0.1947  0.2225 -0.1442
  476loPI    C3 7603  12.062  15.545  10.263  0.1790  0.3609 -0.0710
  476loPI   PO4 7604  12.421  15.219   9.875  0.0259 -0.2273  0.0076
  476loPI   GL1 7605  12.365  15.359   9.487 -0.1254  0.2090  0.7358
  476loPI   GL2 7606  12.341  15.591   9.187  0.0703 -0.0585 -0.1827
  476loPI   C1A 7607  11.982  15.154   9.247 -0.2620  0.0280 -0.1161
  476loPI   C2A 7608  12.024  15.023   8.867 -0.1363  0.1982 -0.0783
  476loPI   C3A 7609  12.092  14.944   8.460 -0.1340 -0.0578 -0.0961
  476loPI   C4A 7610  11.962  14.717   8.095 -0.1368 -0.0827  0.1541
  476loPI   C5A 7611  11.817  14.441   7.651  0.0914 -0.1523 -0.0987
  476loPI   C6A 7612  11.974  14.415   7.151 -0.1297  0.1479  0.0610
  476loPI   C1B 7613  12.086  15.680   8.928 -0.0553  0.1769  0.1838
  476loPI   C2B 7614  11.749  15.905   8.645 -0.0791 -0.0947  0.0292
  476loPI   C3B 7615  11.357  15.861   8.389 -0.1032  0.0442  0.0563
  476loPI   C4B 7616  11.310  15.922   7.913 -0.0585 -0.1642 -0.3197
  477loPI    C1 7617   0.592   1.549   9.505 -0.0989  0.1638  0.0420
  477loPI    C2 7618   0.414   1.731   9.813 -0.2521 -0.0946  0.1098
  477loPI    C3 7619   0.787   1.592   9.851 -0.0554  0.3805 -0.0082
  477loPI   PO4 7620   0.612   1.714   9.314  0.1545  0.0015  0.4527
  477loPI   GL1 7621   0.861   1.670   8.950 -0.0997 -0.2509 -0.4351
  477loPI   GL2 7622   0.607   1.512   8.833  0.0378  0.1180  0.2007
  477loPI   C1A 7623   0.991   1.353   8.578  0.1797 -0.1186 -0.0955
  477loPI   C2A 7624   1.288   1.429   8.176  0.1496 -0.0535 -0.1105
  477loPI   C3A 7625   1.332   1.492   7.775 -0.1364 -0.2802  0.4749
  477loPI   C4A 7626   1.418   1.814   7.566  0.0005 -0.2119  0.0569
  477loPI   C5A 7627   1.412   2.232   7.282 -0.1937 -0.1170  0.2599
  477loPI   C6A 7628   1.744   2.471   7.051  0.0981  0.3702  0.3781
  477loPI   C1B 7629   0.499   1.435   8.435 -0.2220  0.0729  0.1100
  477loPI   C2B 7630   0.564   1.316   7.997  0.0394  0.3352 -0.0636
  477loPI   C3B 7631   0.527   1.233   7.436  0.1610  0.2086 -0.2996
  477loPI   C4B 7632   0.483   1.236   7.055  0.3920 -0.1773 -0.0168
  478loPI    C1 7633  16.319   3.210   9.577 -0.2161  0.1623 -0.0596
  478loPI    C2 7634  16.258   2.828   9.678  0.0547  0.1641  0.1204
  478loPI    C3 7635  16.283   3.109   9.962  0.3021  0.2474  0.0191
  478loPI   PO4 7636  16.461   3.245   9.395  0.1214 -0.2481 -0.0859
  478loPI   GL1 7637  16.416   3.164   9.012 -0.2442  0.3067 -0.3381
  478loPI   GL2 7638  16.686   2.949   8.929 -0.0770  0.0962  0.0810
  478loPI   C1A 7639  16.559   3.385   8.626  0.1194 -0.1138  0.1483
  478loPI   C2A 7640  16.507   3.362   8.139 -0.1031  0.1202  0.2445
  478loPI   C3A 7641  16.334   3.566   7.689  0.1104 -0.1227 -0.0916
  478loPI   C4A 7642  16.003   3.629   7.448  0.4401 -0.2117 -0.2211
  478loPI   C5A 7643  15.676   3.635   7.166 -0.1986 -0.2499 -0.1683
  478loPI   C6A 7644  15.698   3.865   6.749 -0.0581 -0.1493 -0.2436
  478loPI   C1B 7645  16.417   2.911   8.581  0.2429  0.1247 -0.4790
  478loPI   C2B 7646  16.335   2.868   8.055 -0.1288  0.2915  0.0543
  478loPI   C3B 7647  16.354   2.662   7.555  0.2489 -0.1411 -0.2744
  478loPI   C4B 7648  16.358   2.812   7.137 -0.1163  0.2562 -0.1183
  479loPI    C1 7649   6.988  18.544   9.426 -0.0087 -0.1122 -0.1476
  479loPI    C2 7650   6.951  18.148   9.384 -0.0529 -0.1404  0.1349
  479loPI    C3 7651   6.979  18.308   9.749  0.0480  0.1109  0.0194
  479loPI   PO4 7652   6.921  18.617   9.254  0.2824 -0.1539 -0.1099
  479loPI   GL1 7653   6.973  18.454   8.825  0.2256 -0.2530  0.0705
  479loPI   GL2 7654   7.302  18.441   9.023  0.1114  0.1188  0.3594
  479loPI   C1A 7655   6.697  18.404   8.517 -0.0409 -0.0858 -0.0632
  479loPI   C2A 7656   6.651  18.078   8.249 -0.1181  0.0297  0.3819
  479loPI   C3A 7657   6.818  17.664   8.015 -0.3439  0.1358  0.0959
  479loPI   C4A 7658   7.029  17.669   7.550  0.0395 -0.1488  0.2151
  479loPI   C5A 7659   7.009  17.684   7.042 -0.2287 -0.2206 -0.1617
  479loPI   C6A 7660   7.120  17.560   6.653  0.0207 -0.3365  0.3047
  479loPI   C1B 7661   7.374  18.250   8.684  0.1067 -0.1351 -0.0923
  479loPI   C2B 7662   7.253  18.263   8.276  0.0171 -0.0576 -0.0603
  479loPI   C3B 7663   7.072  18.182   7.885  0.0994  0.2791 -0.1612
  479loPI   C4B 7664   6.599  18.024   7.605  0.0744 -0.0340 -0.0939
  480loPI    C1 7665  11.583  17.820   9.719 -0.1174  0.1100 -0.1435
  480loPI    C2 7666  11.679  17.622  10.053 -0.0547 -0.1704 -0.3232
  480loPI    C3 7667  11.297  17.645   9.937 -0.1250  0.2582 -0.0333
  480loPI   PO4 7668  11.705  17.700   9.495 -0.0945  0.1419  0.2196
  480loPI   GL1 7669  11.566  17.623   9.177  0.1077 -0.0853 -0.1406
  480loPI   GL2 7670  11.635  17.178   9.318 -0.1674 -0.0092 -0.0291
  480loPI   C1A 7671  11.394  17.333   8.932  0.0816  0.0466 -0.1833
  480loPI   C2A 7672  11.096  17.336   8.508 -0.1405 -0.2401  0.0543
  480loPI   C3A 7673  11.293  17.262   8.165 -0.0387 -0.1134 -0.0684
  480loPI   C4A 7674  11.442  17.355   7.749  0.1278 -0.1257 -0.4785
  480loPI   C5A 7675  11.577  17.342   7.360 -0.0987 -0.0665  0.3203
  480loPI   C6A 7676  11.830  17.184   7.008  0.0457 -0.0257 -0.2163
  480loPI   C1B 7677  11.894  17.024   9.001  0.1376 -0.1021 -0.2352
  480loPI   C2B 7678  12.111  17.076   8.687 -0.0431  0.3267  0.1697
  480loPI   C3B 7679  12.222  16.870   8.276 -0.1464 -0.1722  0.0238
  480loPI   C4B 7680  12.284  16.897   7.782  0.4871  0.0905  0.0783
  481loPI    C1 7681  16.559  19.485   9.441  0.1120  0.1012  0.2088
  481loPI    C2 7682  16.577  19.429   9.837  0.0901 -0.0361  0.1908
  481loPI    C3 7683  16.708  19.144   9.588  0.0768  0.0378  0.0986
  481loPI   PO4 7684  16.599  19.793   9.324  0.0051 -0.0787 -0.1759
  481loPI   GL1 7685  16.728  19.573   8.907 -0.0315 -0.1285 -0.0807
  481loPI   GL2 7686  16.820  19.391   8.714 -0.2905  0.0660 -0.0217
  481loPI   C1A 7687  16.693  19.872   8.512  0.1984 -0.0201  0.0547
  481loPI   C2A 7688  16.953  20.036   8.136  0.2778  0.3057  0.0228
  481loPI   C3A 7689  17.295  20.057   7.910 -0.1955 -0.2280  0.2545
  481loPI   C4A 7690  17.472  19.935   7.529  0.1930 -0.0837  0.1424
  481loPI   C5A 7691  17.582  19.888   7.059  0.3551 -0.0953 -0.0733
  481loPI   C6A 7692  17.863  19.829   6.693 -0.1273  0.1247  0.2658
  481loPI   C1B 7693  16.917  19.505   8.225  0.2444 -0.0246  0.0142
  481loPI   C2B 7694  16.772  19.555   7.862 -0.0033 -0.0321 -0.3004
  481loPI   C3B 7695  16.597  19.556   7.410  0.2923  0.2203 -0.1373
  481loPI   C4B 7696  16.576  19.994   7.205 -0.1267  0.0909 -0.1409
  482loPI    C1 7697  19.605   8.167   9.952  0.0819  0.2462  0.1660
  482loPI    C2 7698  19.234   8.141  10.098  0.0336 -0.1008 -0.0068
  482loPI    C3 7699  19.548   8.086  10.339 -0.0383 -0.3203  0.0385
  482loPI   PO4 7700  19.580   8.226   9.744 -0.0724  0.1947 -0.1391
  482loPI   GL1 7701  19.675   8.395   9.319 -0.1071 -0.2425 -0.0510
  482loPI   GL2 7702  19.383   8.620   9.246  0.0606  0.0665  0.0575
  482loPI   C1A 7703  19.767   8.433   8.883 -0.0872  0.0509  0.1761
  482loPI   C2A 7704  19.653   8.550   8.447  0.2326  0.2197 -0.0301
  482loPI   C3A 7705  19.793   8.416   8.074 -0.1064 -0.3726  0.1241
  482loPI   C4A 7706  20.132   8.520   7.729 -0.1191 -0.0844  0.0937
  482loPI   C5A 7707  20.378   8.889   7.491  0.0967 -0.1238  0.1764
  482loPI   C6A 7708  20.597   9.139   7.240 -0.0310  0.0684  0.1750
  482loPI   C1B 7709  19.472   8.851   8.842  0.0909 -0.1295  0.1019
  482loPI   C2B 7710  19.791   9.105   8.696 -0.2418 -0.2667  0.0823
  482loPI   C3B 7711  20.076   9.194   8.285  0.2851  0.1477 -0.0509
  482loPI   C4B 7712  19.928   9.432   7.952 -0.2407 -0.1095  0.1724
  483loPI    C1 7713   8.258   2.651   9.703  0.3891 -0.1892 -0.0583
  483loPI    C2 7714   8.441   2.923   9.473 -0.2394  0.1972 -0.1243
  483loPI    C3 7715   8.468   2.946   9.871  0.3118 -0.0890 -0.1361
  483loPI   PO4 7716   8.306   2.429   9.557 -0.0444  0.0341  0.0679
  483loPI   GL1 7717   8.256   2.444   9.099 -0.1729 -0.0904  0.0649
  483loPI   GL2 7718   8.422   2.158   9.031 -0.0284 -0.2913 -0.1305
  483loPI   C1A 7719   8.262   2.378   8.601  0.0406 -0.0972  0.1105
  483loPI   C2A 7720   8.208   2.708   8.226  0.1644 -0.1761  0.0708
  483loPI   C3A 7721   8.118   2.858   7.784 -0.1384 -0.1286 -0.0662
  483loPI   C4A 7722   8.205   2.900   7.315 -0.2710 -0.3412 -0.0093
  483loPI   C5A 7723   8.350   2.587   7.131  0.2078  0.2185  0.1249
  483loPI   C6A 7724   8.458   2.254   6.883  0.1725  0.1484  0.0826
  483loPI   C1B 7725   8.546   1.810   8.599 -0.1164 -0.2663 -0.0615
  483loPI   C2B 7726   8.655   1.889   8.176  0.1208  0.1773 -0.3832
  483loPI   C3B 7727   8.486   1.715   7.870  0.2505 -0.0994  0.0772
  483loPI   C4B 7728   8.324   1.397   7.570  0.1464 -0.0169  0.2604
  484loPI    C1 7729  11.343  19.384   9.614 -0.2113  0.1197  0.0766
  484loPI    C2 7730  11.591  19.441   9.922  0.0045 -0.0829 -0.0570
  484loPI    C3 7731  11.202  19.381   9.988  0.0621 -0.2053  0.1819
  484loPI   PO4 7732  11.295  19.125   9.424 -0.1610  0.0364  0.4196
  484loPI   GL1 7733  11.406  18.991   8.968 -0.0278  0.0181  0.0033
  484loPI   GL2 7734  11.093  19.188   8.856 -0.1387  0.0470  0.0441
  484loPI   C1A 7735  11.420  18.772   8.607  0.0561  0.0511  0.3124
  484loPI   C2A 7736  11.325  18.582   8.182  0.0377 -0.0578  0.1995
  484loPI   C3A 7737  11.340  18.638   7.742 -0.0987  0.1659 -0.1020
  484loPI   C4A 7738  11.515  18.936   7.458 -0.1341 -0.1703  0.0345
  484loPI   C5A 7739  11.900  19.233   7.374 -0.2140 -0.1039  0.1882
  484loPI   C6A 7740  12.262  19.220   7.135  0.0474 -0.2253 -0.1091
  484loPI   C1B 7741  11.014  19.293   8.394 -0.0866  0.1199 -0.4328
  484loPI   C2B 7742  10.839  19.394   8.064  0.0635 -0.0940 -0.0290
  484loPI   C3B 7743  10.890  19.568   7.629  0.1612 -0.1491  0.5764
  484loPI   C4B 7744  10.794  19.834   7.303  0.1570  0.1038  0.1559
  485loPI    C1 7745  16.402   5.781   9.678 -0.0043  0.0943 -0.0137
  485loPI    C2 7746  16.179   5.552   9.438  0.2377 -0.1612 -0.0004
  485loPI    C3 7747  16.012   5.860   9.632 -0.1175 -0.3866  0.0624
  485loPI   PO4 7748  16.636   5.776   9.661  0.0825  0.1006  0.0151
  485loPI   GL1 7749  16.950   5.715   9.295 -0.2950  0.0449  0.1056
  485loPI   GL2 7750  17.122   6.005   9.069 -0.3324 -0.2509 -0.1294
  485loPI   C1A 7751  17.212   5.536   8.958 -0.0132 -0.3346  0.3458
  485loPI   C2A 7752  17.291   5.465   8.492 -0.3385 -0.2912 -0.1073
  485loPI   C3A 7753  17.452   5.505   8.028  0.0298  0.0670 -0.1313
  485loPI   C4A 7754  17.691   5.757   7.901 -0.0348 -0.0761  0.0861
  485loPI   C5A 7755  17.535   6.165   7.763 -0.1714  0.0409 -0.1123
  485loPI   C6A 7756  17.692   6.395   7.545  0.2083 -0.2245  0.4040
  485loPI   C1B 7757  16.824   5.768   8.664 -0.1621 -0.1051 -0.1866
  485loPI   C2B 7758  16.989   5.833   8.252  0.1307  0.1748  0.1261
  485loPI   C3B 7759  17.125   5.807   7.821 -0.1290 -0.0575  0.1791
  485loPI   C4B 7760  16.993   5.817   7.425  0.0268  0.0963  0.0269
  486loPI    C1 7761   7.745  15.815   9.432 -0.3232  0.0037  0.0692
  486loPI    C2 7762   7.747  15.975   9.798 -0.0747 -0.1104  0.1200
  486loPI    C3 7763   7.631  15.596   9.747  0.0102 -0.1334  0.0985
  486loPI   PO4 7764   7.978  15.791   9.290 -0.1768  0.0838 -0.3049
  486loPI   GL1 7765   8.113  15.691   8.878  0.2849  0.1392 -0.0331
  486loPI   GL2 7766   7.768  15.636   8.891  0.3813  0.0155  0.4270
  486loPI   C1A 7767   8.450  15.619   8.593  0.0138 -0.1270  0.0643
  486loPI   C2A 7768   8.604  15.548   8.183  0.0004 -0.0799  0.3730
  486loPI   C3A 7769   8.709  15.250   7.871  0.2049  0.1789  0.1162
  486loPI   C4A 7770   8.523  15.024   7.473  0.0441 -0.2382  0.0518
  486loPI   C5A 7771   8.306  14.614   7.355 -0.0783 -0.1296 -0.0375
  486loPI   C6A 7772   8.430  14.258   7.068 -0.3908  0.0212 -0.0642
  486loPI   C1B 7773   7.632  15.593   8.419  0.0301  0.3929  0.0345
  486loPI   C2B 7774   7.531  15.431   8.105  0.1848  0.3947 -0.0199
  486loPI   C3B 7775   7.708  15.153   7.704 -0.3053 -0.1810  0.1695
  486loPI   C4B 7776   7.715  14.770   7.493  0.0864  0.3421  0.3369
  487loPI    C1 7777  11.528   3.611   9.357 -0.0573 -0.1520 -0.1464
  487loPI    C2 7778  11.810   3.885   9.429  0.0112 -0.2196 -0.1566
  487loPI    C3 7779  11.679   3.650   9.725 -0.0504 -0.1731 -0.1469
  487loPI   PO4 7780  11.629   3.525   9.124  0.0998 -0.1299 -0.0486
  487loPI   GL1 7781  11.667   3.604   8.693 -0.3639 -0.0017 -0.4364
  487loPI   GL2 7782  12.023   3.652   8.635 -0.1487  0.1718  0.2030
  487loPI   C1A 7783  11.730   3.521   8.223 -0.2395 -0.3005 -0.5614
  487loPI   C2A 7784  12.019   3.217   7.936  0.0998 -0.2355  0.1194
  487loPI   C3A 7785  12.157   3.163   7.472  0.3380 -0.2061 -0.2444
  487loPI   C4A 7786  12.352   3.205   7.103 -0.2214 -0.1469  0.0528
  487loPI   C5A 7787  12.703   3.303   6.918 -0.0139  0.3290 -0.1088
  487loPI   C6A 7788  13.092   3.577   6.855 -0.3102  0.2041 -0.1596
  487loPI   C1B 7789  12.216   3.262   8.422  0.0351 -0.2484  0.0080
  487loPI   C2B 7790  12.218   2.875   8.284 -0.0666 -0.3909 -0.0269
  487loPI   C3B 7791  12.411   2.707   7.904 -0.2347  0.1246 -0.2573
  487loPI   C4B 7792  12.541   2.548   7.584 -0.0898 -0.1209 -0.1394
  488loPI    C1 7793  19.564  15.655   9.448 -0.0842 -0.2299 -0.0318
  488loPI    C2 7794  19.593  15.669   9.846 -0.0396  0.0745 -0.0435
  488loPI    C3 7795  19.275  15.497   9.675 -0.1287  0.0698  0.1244
  488loPI   PO4 7796  19.808  15.670   9.392 -0.1598 -0.2721  0.1518
  488loPI   GL1 7797  20.240  15.580   9.185 -0.2775 -0.2307 -0.2311
  488loPI   GL2 7798  20.142  15.339   8.871  0.1848  0.2204 -0.0476
  488loPI   C1A 7799  20.275  15.859   8.815  0.0925  0.0888 -0.1754
  488loPI   C2A 7800  20.552  15.813   8.465 -0.0089 -0.1859  0.0668
  488loPI   C3A 7801  20.975  15.608   8.307 -0.0397 -0.2327 -0.1076
  488loPI   C4A 7802  21.157  15.384   7.991  0.1241 -0.1324  0.0119
  488loPI   C5A 7803  21.517  15.321   7.866 -0.1490 -0.0621  0.1956
  488loPI   C6A 7804  21.768  15.387   7.509  0.1771  0.1846 -0.3916
  488loPI   C1B 7805  19.988  15.530   8.568 -0.0646 -0.0189 -0.1043
  488loPI   C2B 7806  19.871  15.490   8.151 -0.3580  0.4311  0.0434
  488loPI   C3B 7807  20.048  15.564   7.763 -0.1115 -0.4360 -0.0423
  488loPI   C4B 7808  20.295  15.419   7.421  0.1066 -0.2063  0.0628
  489loPI    C1 7809  10.347   7.089  10.081 -0.0292 -0.1024  0.1857
  489loPI    C2 7810  10.243   7.401  10.309 -0.2583 -0.0146 -0.0343
  489loPI    C3 7811   9.961   7.162  10.156 -0.0947 -0.2053 -0.0418
  489loPI   PO4 7812  10.424   7.174   9.848  0.0138 -0.1642  0.1235
  489loPI   GL1 7813  10.227   7.289   9.455 -0.3113 -0.0928 -0.0352
  489loPI   GL2 7814  10.222   7.563   9.209 -0.0920 -0.1423 -0.0990
  489loPI   C1A 7815  10.361   6.957   9.187  0.0638 -0.0668  0.0448
  489loPI   C2A 7816  10.465   6.769   8.799 -0.1676  0.1724  0.0357
  489loPI   C3A 7817  10.503   6.790   8.395 -0.0349 -0.2964 -0.4119
  489loPI   C4A 7818  10.447   6.811   8.025 -0.0755 -0.0270 -0.3974
  489loPI   C5A 7819  10.646   6.831   7.700  0.4132 -0.0668  0.3344
  489loPI   C6A 7820  10.686   7.031   7.306  0.3301  0.1398 -0.0358
  489loPI   C1B 7821  10.230   7.637   8.698  0.1360  0.3626 -0.2174
  489loPI   C2B 7822  10.186   7.644   8.377  0.1358 -0.4271 -0.2036
  489loPI   C3B 7823  10.058   7.803   8.029 -0.3263  0.2627 -0.0008
  489loPI   C4B 7824  10.278   7.830   7.611  0.0201 -0.2526  0.0903
  490loPI    C1 7825  19.572  17.071   9.793 -0.0005 -0.0845 -0.0214
  490loPI    C2 7826  19.863  17.321   9.906 -0.0807 -0.0780  0.1737
  490loPI    C3 7827  19.485  17.390  10.018 -0.1235 -0.2115  0.1132
  490loPI   PO4 7828  19.603  16.969   9.568 -0.1671 -0.1591  0.0279
  490loPI   GL1 7829  19.618  16.871   9.118 -0.1548 -0.0176 -0.1827
  490loPI   GL2 7830  19.449  17.128   9.030 -0.0806  0.0660 -0.2512
  490loPI   C1A 7831  19.692  16.525   8.880 -0.1811 -0.0947 -0.0715
  490loPI   C2A 7832  19.791  16.388   8.511  0.3684 -0.0322  0.1957
  490loPI   C3A 7833  19.890  16.365   8.105 -0.0445  0.2368 -0.2479
  490loPI   C4A 7834  19.751  16.000   7.798 -0.2922  0.1015 -0.2079
  490loPI   C5A 7835  19.385  15.880   7.556  0.2993 -0.0190 -0.0150
  490loPI   C6A 7836  18.916  16.016   7.485  0.0267  0.2676 -0.1372
  490loPI   C1B 7837  19.610  17.133   8.597 -0.0506  0.0622  0.0575
  490loPI   C2B 7838  19.977  17.084   8.396 -0.0353 -0.2573 -0.0284
  490loPI   C3B 7839  20.135  17.202   8.001 -0.1631  0.2684 -0.3131
  490loPI   C4B 7840  20.215  17.107   7.535  0.1225  0.0088 -0.0600
  491loPI    C1 7841  15.148   8.762  10.002  0.1392 -0.2065 -0.0196
  491loPI    C2 7842  14.883   8.723   9.705  0.0496 -0.2519  0.0660
  491loPI    C3 7843  14.771   8.886  10.053  0.2224  0.0522 -0.0178
  491loPI   PO4 7844  15.389   8.681   9.882 -0.1717  0.1339 -0.1442
  491loPI   GL1 7845  15.338   8.844   9.481 -0.3151 -0.1750  0.1516
  491loPI   GL2 7846  15.443   8.686   9.287  0.3230 -0.0035 -0.0453
  491loPI   C1A 7847  15.054   9.198   9.252 -0.0510 -0.0513  0.2044
  491loPI   C2A 7848  14.574   9.348   9.073  0.3850 -0.0400 -0.2004
  491loPI   C3A 7849  14.399   9.392   8.581  0.0733 -0.3352 -0.2047
  491loPI   C4A 7850  14.249   9.218   8.202 -0.0192  0.0679 -0.0476
  491loPI   C5A 7851  14.504   9.519   7.762 -0.0450 -0.0948  0.1672
  491loPI   C6A 7852  14.391   9.550   7.381  0.2387  0.1241 -0.2098
  491loPI   C1B 7853  15.312   8.781   8.857  0.0310 -0.2113 -0.0116
  491loPI   C2B 7854  15.192   9.082   8.622  0.2721  0.1963  0.2725
  491loPI   C3B 7855  15.189   9.170   8.221 -0.0439  0.0324  0.2911
  491loPI   C4B 7856  15.229   9.156   7.714  0.0607 -0.1670  0.1740
  492loPI    C1 7857   8.332   6.901   9.905 -0.1427 -0.2388 -0.0336
  492loPI    C2 7858   8.367   6.583  10.145 -0.0791 -0.2706 -0.0844
  492loPI    C3 7859   8.155   6.901  10.263 -0.1911 -0.3548 -0.0568
  492loPI   PO4 7860   8.285   6.771   9.658  0.0703  0.0985  0.0462
  492loPI   GL1 7861   8.172   6.612   9.276 -0.0450  0.3921  0.0814
  492loPI   GL2 7862   8.221   6.288   9.193  0.0364  0.0016  0.2463
  492loPI   C1A 7863   8.159   6.676   8.835 -0.1466  0.0832 -0.0277
  492loPI   C2A 7864   8.376   6.594   8.438  0.1840 -0.0081  0.1142
  492loPI   C3A 7865   8.430   6.496   8.031  0.1780 -0.4753  0.1370
  492loPI   C4A 7866   8.614   6.502   7.564  0.1302  0.3067 -0.0413
  492loPI   C5A 7867   8.906   6.690   7.218 -0.0024 -0.1990 -0.2867
  492loPI   C6A 7868   8.889   6.973   6.836  0.1201  0.0219  0.2282
  492loPI   C1B 7869   8.531   6.166   8.863  0.1079 -0.1753  0.1480
  492loPI   C2B 7870   8.745   6.274   8.469 -0.1911  0.0654  0.0835
  492loPI   C3B 7871   8.960   6.244   8.114 -0.0774 -0.2179 -0.0578
  492loPI   C4B 7872   8.880   6.048   7.722  0.0142  0.2776 -0.1978
  493loPI    C1 7873   6.187   0.580   9.425  0.0558 -0.1996 -0.0903
  493loPI    C2 7874   6.533   0.398   9.513  0.0594 -0.1553 -0.0120
  493loPI    C3 7875   6.255   0.448   9.797  0.0634 -0.0277 -0.0299
  493loPI   PO4 7876   6.313   0.787   9.243  0.4610  0.3049  0.3305
  493loPI   GL1 7877   6.610   0.586   8.956 -0.0892 -0.2890  0.1577
  493loPI   GL2 7878   6.367   0.353   8.916 -0.2029 -0.1993 -0.1328
  493loPI   C1A 7879   6.538   0.716   8.459  0.0632 -0.3625 -0.2663
  493loPI   C2A 7880   6.660   0.742   7.992  0.3463  0.1717  0.0408
  493loPI   C3A 7881   6.716   0.779   7.618  0.0110  0.0666  0.1759
  493loPI   C4A 7882   6.988   0.906   7.390 -0.1974 -0.4620 -0.2236
  493loPI   C5A 7883   7.225   0.690   7.203 -0.0855 -0.0988 -0.1307
  493loPI   C6A 7884   7.466   0.498   6.940 -0.2987  0.3340  0.2013
  493loPI   C1B 7885   6.311   0.220   8.440  0.0951  0.0252 -0.3213
  493loPI   C2B 7886   6.336   0.258   8.036 -0.0054 -0.4464  0.0839
  493loPI   C3B 7887   6.315   0.124   7.591 -0.1292  0.0157  0.0914
  493loPI   C4B 7888   6.497   0.207   7.273  0.0140  0.1957  0.1552
  494loPI    C1 7889  12.169  12.256   9.913 -0.0113 -0.0703 -0.2115
  494loPI    C2 7890  12.552  12.305   9.807  0.0861 -0.1875  0.0771
  494loPI    C3 7891  12.459  12.211  10.185 -0.2488  0.1649  0.0885
  494loPI   PO4 7892  11.994  12.158   9.687 -0.2430 -0.0314 -0.4635
  494loPI   GL1 7893  12.129  11.960   9.283 -0.2793  0.2451 -0.1287
  494loPI   GL2 7894  12.439  12.072   9.252 -0.2656 -0.0220  0.1447
  494loPI   C1A 7895  12.056  12.234   8.864 -0.0892  0.3886 -0.2525
  494loPI   C2A 7896  12.148  12.259   8.536 -0.0696  0.5770 -0.2989
  494loPI   C3A 7897  12.192  12.216   8.126  0.1939 -0.2907 -0.0568
  494loPI   C4A 7898  12.314  12.282   7.673 -0.3545  0.1015 -0.2265
  494loPI   C5A 7899  12.117  12.435   7.275  0.0727  0.2931 -0.1271
  494loPI   C6A 7900  11.644  12.579   7.237 -0.1021 -0.2403  0.0786
  494loPI   C1B 7901  12.442  11.923   8.864  0.0021  0.1252  0.2142
  494loPI   C2B 7902  12.356  11.827   8.504 -0.0436 -0.0865  0.2339
  494loPI   C3B 7903  12.315  11.716   8.118  0.0985  0.0474  0.2723
  494loPI   C4B 7904  12.090  11.769   7.643  0.0800 -0.1073 -0.1205
  495loPI    C1 7905   6.711   2.574   9.790 -0.1187  0.1116 -0.0357
  495loPI    C2 7906   6.441   2.598  10.085 -0.1753  0.0235 -0.0796
  495loPI    C3 7907   6.823   2.512  10.169 -0.1126  0.3686  0.0065
  495loPI   PO4 7908   6.535   2.453   9.567 -0.1838  0.0552  0.0235
  495loPI   GL1 7909   6.641   2.581   9.048 -0.1295 -0.1934  0.1911
  495loPI   GL2 7910   6.386   2.649   8.866  0.1187 -0.2603 -0.0053
  495loPI   C1A 7911   6.736   2.405   8.671  0.5026  0.0610  0.0572
  495loPI   C2A 7912   6.623   2.450   8.239  0.1783 -0.2489 -0.0627
  495loPI   C3A 7913   6.900   2.635   7.845  0.3099 -0.1841 -0.1703
  495loPI   C4A 7914   7.083   2.807   7.488  0.0174  0.1869 -0.1825
  495loPI   C5A 7915   7.201   3.295   7.113 -0.4492 -0.1806  0.0063
  495loPI   C6A 7916   7.041   3.615   6.901  0.2072 -0.2577  0.1973
  495loPI   C1B 7917   6.304   2.763   8.531 -0.1260 -0.0985  0.1175
  495loPI   C2B 7918   6.467   2.893   8.175  0.2771  0.0109  0.0688
  495loPI   C3B 7919   6.566   3.077   7.754 -0.1793 -0.1784  0.0248
  495loPI   C4B 7920   6.612   3.084   7.273  0.0780  0.0099 -0.2857
  496loPI    C1 7921   9.478   7.673  10.052 -0.0001 -0.0755  0.0430
  496loPI    C2 7922   9.322   7.670  10.421  0.0036 -0.3034  0.0439
  496loPI    C3 7923   9.700   7.551  10.362  0.0226 -0.2097 -0.0254
  496loPI   PO4 7924   9.234   7.619   9.856 -0.2953  0.5117  0.0964
  496loPI   GL1 7925   9.147   7.592   9.412  0.2373 -0.1920  0.2525
  496loPI   GL2 7926   8.861   7.405   9.354  0.0418 -0.1145  0.0309
  496loPI   C1A 7927   9.270   7.614   8.986 -0.1953  0.1825  0.2548
  496loPI   C2A 7928   9.274   7.929   8.616 -0.1622 -0.2911  0.0970
  496loPI   C3A 7929   9.175   7.828   8.140 -0.0837  0.2591 -0.3225
  496loPI   C4A 7930   9.127   7.939   7.702 -0.1023 -0.2930 -0.0408
  496loPI   C5A 7931   9.082   7.768   7.292 -0.0007 -0.2609 -0.0977
  496loPI   C6A 7932   9.048   7.830   6.785  0.2447  0.0136  0.2217
  496loPI   C1B 7933   8.837   7.318   8.957 -0.1283  0.1216  0.2163
  496loPI   C2B 7934   9.030   7.486   8.531 -0.2715 -0.1746 -0.1035
  496loPI   C3B 7935   9.025   7.297   8.120  0.1935  0.4143 -0.4367
  496loPI   C4B 7936   9.444   7.075   8.061 -0.2366 -0.1087  0.1408
  497loPI    C1 7937   6.579   2.964   9.507  0.0549 -0.2596 -0.0802
  497loPI    C2 7938   6.292   2.950   9.786  0.1221  0.1845  0.0191
  497loPI    C3 7939   6.620   3.171   9.847  0.3002  0.0055 -0.2660
  497loPI   PO4 7940   6.491   3.012   9.292  0.0866 -0.1433 -0.1704
  497loPI   GL1 7941   6.415   3.168   8.897  0.1696  0.1252  0.0733
  497loPI   GL2 7942   6.074   3.001   8.844 -0.1254  0.0868  0.3592
  497loPI   C1A 7943   6.760   3.071   8.652  0.0728  0.0924  0.0896
  497loPI   C2A 7944   6.910   2.857   8.373  0.0945  0.1471 -0.1527
  497loPI   C3A 7945   7.206   2.945   8.032 -0.1656  0.1950  0.0658
  497loPI   C4A 7946   7.153   3.140   7.768  0.1474 -0.2747 -0.3272
  497loPI   C5A 7947   6.933   3.388   7.580 -0.3134  0.3003 -0.3337
  497loPI   C6A 7948   6.657   3.602   7.297 -0.2685  0.0775 -0.0981
  497loPI   C1B 7949   6.081   3.255   8.393 -0.0051  0.2493 -0.1015
  497loPI   C2B 7950   6.207   3.370   7.930 -0.0394 -0.0770  0.3098
  497loPI   C3B 7951   6.138   3.427   7.503 -0.0645  0.0655  0.0562
  497loPI   C4B 7952   6.062   3.687   7.234  0.2312  0.0068  0.3331
  498loPI    C1 7953  15.562   1.557   9.601 -0.2293 -0.1242 -0.1146
  498loPI    C2 7954  15.222   1.434   9.770 -0.1406 -0.0240  0.1412
  498loPI    C3 7955  15.545   1.500   9.996 -0.0608  0.2512 -0.0487
  498loPI   PO4 7956  15.519   1.426   9.355 -0.2580 -0.1889  0.3164
  498loPI   GL1 7957  15.415   1.415   8.905  0.0158 -0.3089  0.2071
  498loPI   GL2 7958  15.449   1.722   8.943 -0.1485 -0.0703  0.0269
  498loPI   C1A 7959  15.426   1.294   8.496  0.1930 -0.4721 -0.3045
  498loPI   C2A 7960  15.673   1.120   8.153 -0.0715 -0.1014  0.1730
  498loPI   C3A 7961  15.456   1.188   7.778  0.2331 -0.1622 -0.3438
  498loPI   C4A 7962  15.342   0.935   7.412 -0.0049 -0.0320  0.0814
  498loPI   C5A 7963  14.920   0.890   7.294  0.0090 -0.3616  0.2920
  498loPI   C6A 7964  14.624   0.792   7.544  0.0125 -0.0723  0.0130
  498loPI   C1B 7965  15.752   1.679   8.568  0.0546  0.0235 -0.1378
  498loPI   C2B 7966  16.011   1.519   8.310  0.0895  0.1474 -0.0703
  498loPI   C3B 7967  15.932   1.390   7.824 -0.3006  0.4222 -0.3409
  498loPI   C4B 7968  15.795   1.537   7.485 -0.0927  0.0304 -0.0827
  499loPI    C1 7969  15.109   2.733   9.761 -0.4031  0.3196  0.1279
  499loPI    C2 7970  15.366   2.947   9.542 -0.2929 -0.0312 -0.0941
  499loPI    C3 7971  15.337   3.012   9.936  0.2764 -0.1108 -0.0292
  499loPI   PO4 7972  14.899   2.738   9.634  0.0353 -0.0292 -0.1376
  499loPI   GL1 7973  14.929   2.915   9.109 -0.0531  0.3148  0.1939
  499loPI   GL2 7974  14.984   2.719   8.807 -0.1327  0.4268  0.1845
  499loPI   C1A 7975  15.088   3.197   8.715  0.2160  0.1640  0.0679
  499loPI   C2A 7976  15.050   3.300   8.277 -0.0473 -0.0889 -0.4160
  499loPI   C3A 7977  15.193   3.384   7.863  0.1614 -0.0878 -0.3496
  499loPI   C4A 7978  15.646   3.265   7.579  0.1177 -0.1771  0.1460
  499loPI   C5A 7979  15.925   3.211   7.147 -0.1297 -0.2129  0.0388
  499loPI   C6A 7980  16.122   3.488   6.858 -0.0909  0.0535  0.2532
  499loPI   C1B 7981  14.894   2.819   8.324  0.0549 -0.3610  0.4778
  499loPI   C2B 7982  14.528   2.677   8.213  0.0440  0.2690 -0.1530
  499loPI   C3B 7983  14.321   2.686   7.857  0.3690  0.0094 -0.0501
  499loPI   C4B 7984  14.216   2.434   7.432 -0.2150  0.1004 -0.3855
  500loPI    C1 7985  11.696   7.870   9.788  0.1463 -0.3605 -0.1530
  500loPI    C2 7986  11.690   7.539  10.012  0.0048 -0.1995  0.0864
  500loPI    C3 7987  11.525   7.876  10.150  0.0596 -0.0542 -0.1961
  500loPI   PO4 7988  11.547   7.812   9.508  0.1387 -0.0747 -0.1767
  500loPI   GL1 7989  11.321   8.037   9.113 -0.2555 -0.0617 -0.0965
  500loPI   GL2 7990  11.167   8.216   9.320 -0.0127  0.1966 -0.1218
  500loPI   C1A 7991  11.487   8.223   8.647  0.1736 -0.2926 -0.0165
  500loPI   C2A 7992  11.496   8.474   8.334 -0.0429 -0.0114  0.0625
  500loPI   C3A 7993  11.396   8.673   8.058 -0.0596  0.0364 -0.0167
  500loPI   C4A 7994  11.513   8.501   7.691  0.0992 -0.0380 -0.2438
  500loPI   C5A 7995  11.590   8.346   7.289 -0.4476 -0.1911  0.0073
  500loPI   C6A 7996  11.816   8.154   6.874 -0.0784  0.0989 -0.1231
  500loPI   C1B 7997  11.226   8.580   9.032 -0.4699 -0.1012 -0.1918
  500loPI   C2B 7998  11.610   8.690   8.779 -0.1885  0.0955 -0.2509
  500loPI   C3B 7999  11.602   8.958   8.403  0.2714  0.2095 -0.3920
  500loPI   C4B 8000  11.726   9.112   7.938 -0.1042 -0.4244  0.0685
  501loPI    C1 8001   2.948   4.689   9.692 -0.2803 -0.0301  0.0264
  501loPI    C2 8002   2.769   4.995   9.876 -0.1783  0.0722 -0.0436
  501loPI    C3 8003   2.850   4.660  10.079 -0.2011  0.1283  0.0590
  501loPI   PO4 8004   2.783   4.659   9.503 -0.1764 -0.1442  0.0498
  501loPI   GL1 8005   2.514   4.767   9.113  0.0736  0.2209  0.0070
  501loPI   GL2 8006   2.250   4.647   8.950  0.1042 -0.2370  0.1452
  501loPI   C1A 8007   2.633   4.908   8.668  0.0359 -0.2986  0.0886
  501loPI   C2A 8008   2.580   4.966   8.242 -0.0361 -0.1648 -0.1737
  501loPI   C3A 8009   2.329   5.119   7.940  0.3898 -0.2891  0.0516
  501loPI   C4A 8010   2.368   5.309   7.526 -0.0733 -0.1440 -0.3625
  501loPI   C5A 8011   2.225   5.576   7.309  0.0403 -0.1821 -0.1650
  501loPI   C6A 8012   2.515   6.014   7.218  0.3558  0.1387 -0.2213
  501loPI   C1B 8013   2.173   4.812   8.602  0.1990  0.1484  0.1587
  501loPI   C2B 8014   2.118   5.186   8.372  0.0420 -0.0623  0.0491
  501loPI   C3B 8015   1.704   5.260   8.161  0.1012 -0.1071 -0.3633
  501loPI   C4B 8016   1.446   5.254   7.836 -0.0181 -0.0104 -0.2145
  502loPI    C1 8017   5.238   7.584   9.563  0.1162  0.2019 -0.1373
  502loPI    C2 8018   5.205   7.948   9.727 -0.0147  0.0690  0.1385
  502loPI    C3 8019   5.333   7.640   9.948  0.0082 -0.0725 -0.0688
  502loPI   PO4 8020   4.973   7.628   9.415 -0.1563  0.1057  0.1846
  502loPI   GL1 8021   4.818   8.015   9.155  0.0940  0.0486 -0.0037
  502loPI   GL2 8022   4.566   7.856   9.120 -0.2390  0.1349  0.3060
  502loPI   C1A 8023   4.912   7.900   8.758  0.2891  0.0727 -0.0168
  502loPI   C2A 8024   5.077   8.216   8.376 -0.0333  0.1279 -0.0731
  502loPI   C3A 8025   5.354   8.465   8.129 -0.0640 -0.1296  0.0906
  502loPI   C4A 8026   5.526   8.709   7.768 -0.1270  0.0845  0.3233
  502loPI   C5A 8027   5.629   8.730   7.414  0.0309  0.2032  0.1361
  502loPI   C6A 8028   5.969   8.536   7.154 -0.1288  0.4059 -0.3130
  502loPI   C1B 8029   4.349   7.981   8.670 -0.1385  0.0467 -0.0781
  502loPI   C2B 8030   4.505   8.111   8.280 -0.0250 -0.1172  0.0731
  502loPI   C3B 8031   4.669   8.345   7.874  0.1810 -0.2480  0.2091
  502loPI   C4B 8032   5.092   8.482   7.724  0.3508 -0.1038  0.1235
  503loPI    C1 8033  18.978   6.552  10.161 -0.1921 -0.0054  0.1015
  503loPI    C2 8034  18.833   6.924  10.163 -0.3026 -0.0410 -0.3449
  503loPI    C3 8035  18.591   6.616  10.082 -0.1865 -0.2009 -0.0932
  503loPI   PO4 8036  19.180   6.573   9.963 -0.3372  0.0077 -0.0731
  503loPI   GL1 8037  19.344   6.517   9.578  0.2783  0.1774  0.0108
  503loPI   GL2 8038  19.700   6.639   9.420 -0.0692  0.2002  0.0880
  503loPI   C1A 8039  19.237   6.697   9.175 -0.0509 -0.0319 -0.1394
  503loPI   C2A 8040  19.008   6.733   8.847  0.2396  0.0163  0.0112
  503loPI   C3A 8041  19.016   6.759   8.410  0.0120  0.1001 -0.0647
  503loPI   C4A 8042  18.863   6.906   7.977 -0.0886  0.2563  0.2320
  503loPI   C5A 8043  18.463   7.034   7.698  0.0841  0.0483 -0.0007
  503loPI   C6A 8044  18.189   7.128   7.237 -0.1635 -0.0836  0.3891
  503loPI   C1B 8045  19.603   6.376   9.051  0.0652  0.1664 -0.3047
  503loPI   C2B 8046  19.392   6.460   8.683  0.3753  0.1506  0.4027
  503loPI   C3B 8047  19.380   6.435   8.233  0.2821  0.2449  0.1012
  503loPI   C4B 8048  19.104   6.469   7.926  0.1945 -0.1500 -0.0370
  504loPI    C1 8049   8.840   9.958   9.689  0.1055 -0.0764 -0.0614
  504loPI    C2 8050   9.033  10.024  10.033 -0.0451 -0.0943  0.0279
  504loPI    C3 8051   8.798   9.703   9.994 -0.1556 -0.0067 -0.0360
  504loPI   PO4 8052   8.866   9.956   9.482 -0.0520 -0.0813  0.0040
  504loPI   GL1 8053   9.116   9.870   9.180  0.0987  0.1013 -0.1069
  504loPI   GL2 8054   8.983   9.897   8.838 -0.3946  0.0346  0.1111
  504loPI   C1A 8055   8.930   9.463   9.118 -0.1452  0.1263  0.2677
  504loPI   C2A 8056   8.831   9.169   8.601 -0.1579 -0.1470 -0.0578
  504loPI   C3A 8057   8.650   9.035   8.167 -0.2626  0.1111 -0.0519
  504loPI   C4A 8058   8.394   9.217   7.887 -0.2164 -0.1412  0.1371
  504loPI   C5A 8059   8.452   9.365   7.473  0.0106  0.2335  0.1718
  504loPI   C6A 8060   8.703   9.388   7.066 -0.0631 -0.1329 -0.1055
  504loPI   C1B 8061   8.920   9.873   8.399 -0.0504 -0.3558 -0.0549
  504loPI   C2B 8062   8.832  10.133   8.047  0.3033  0.2122 -0.1055
  504loPI   C3B 8063   9.000  10.387   7.777 -0.1807  0.2160  0.1845
  504loPI   C4B 8064   9.278  10.623   7.711  0.1951 -0.0765 -0.2893
  505loPI    C1 8065  12.927  13.600   9.677  0.2953  0.1322 -0.1361
  505loPI    C2 8066  13.131  13.707  10.004  0.0763 -0.1768  0.1088
  505loPI    C3 8067  12.755  13.832   9.953  0.1326 -0.0728 -0.0625
  505loPI   PO4 8068  13.083  13.738   9.451 -0.0158  0.3802  0.0499
  505loPI   GL1 8069  12.949  13.447   9.150  0.1652  0.0368  0.1165
  505loPI   GL2 8070  13.340  13.414   9.161  0.1525  0.2880 -0.1869
  505loPI   C1A 8071  13.082  13.355   8.736 -0.2099  0.1167  0.0613
  505loPI   C2A 8072  13.208  13.636   8.458 -0.0666  0.2960 -0.1722
  505loPI   C3A 8073  13.076  13.655   8.056  0.1718 -0.1613  0.2122
  505loPI   C4A 8074  13.064  13.772   7.662  0.1916 -0.1963 -0.0947
  505loPI   C5A 8075  12.977  14.137   7.428 -0.0051 -0.1619  0.0025
  505loPI   C6A 8076  12.875  14.419   7.710  0.1943  0.0968 -0.1438
  505loPI   C1B 8077  13.467  13.789   8.883  0.0305 -0.3774  0.4478
  505loPI   C2B 8078  13.640  13.991   8.571 -0.0212  0.2247  0.3315
  505loPI   C3B 8079  13.792  13.856   8.156  0.1905 -0.1321 -0.0598
  505loPI   C4B 8080  13.916  14.087   7.826 -0.1300  0.1646  0.2646
  506loPI    C1 8081   8.086  16.313   9.854 -0.1146 -0.0891 -0.0586
  506loPI    C2 8082   8.313  16.361  10.179 -0.0363  0.1160 -0.1420
  506loPI    C3 8083   8.304  16.008   9.992  0.1164  0.0703 -0.0653
  506loPI   PO4 8084   8.181  16.524   9.621  0.2950 -0.0375  0.0974
  506loPI   GL1 8085   8.219  16.484   9.154  0.3148 -0.1538 -0.0677
  506loPI   GL2 8086   8.152  16.177   9.044 -0.0107 -0.3314 -0.0634
  506loPI   C1A 8087   7.956  16.659   8.811  0.1549  0.2359  0.1402
  506loPI   C2A 8088   7.865  16.505   8.440  0.1599  0.1091 -0.0120
  506loPI   C3A 8089   7.788  16.214   8.031  0.1429  0.0220  0.0632
  506loPI   C4A 8090   7.465  15.864   7.859 -0.5258  0.0655  0.2634
  506loPI   C5A 8091   7.144  15.882   7.532  0.1187  0.0098 -0.3153
  506loPI   C6A 8092   6.832  16.261   7.717  0.0730  0.4727 -0.1958
  506loPI   C1B 8093   8.152  16.221   8.663  0.3032 -0.1489 -0.1179
  506loPI   C2B 8094   8.141  16.002   8.313 -0.2533 -0.0488 -0.3654
  506loPI   C3B 8095   8.253  16.022   7.860 -0.0191 -0.0580 -0.0946
  506loPI   C4B 8096   8.591  15.796   7.758 -0.1607 -0.1318  0.3910
  507loPI    C1 8097   8.214  17.257   9.679  0.1296 -0.1991 -0.0489
  507loPI    C2 8098   8.305  17.504   9.980  0.1610 -0.0072 -0.2135
  507loPI    C3 8099   8.360  17.110  10.021  0.1421  0.0147  0.0395
  507loPI   PO4 8100   8.200  17.415   9.424  0.2505 -0.1554 -0.0362
  507loPI   GL1 8101   8.271  17.760   9.111 -0.0602  0.1573  0.3217
  507loPI   GL2 8102   8.081  17.971   8.927 -0.3053  0.0302 -0.1005
  507loPI   C1A 8103   8.282  17.501   8.671 -0.0098 -0.0170 -0.1887
  507loPI   C2A 8104   8.281  17.411   8.222  0.3517 -0.1291  0.0480
  507loPI   C3A 8105   8.192  17.339   7.790 -0.0863  0.3750 -0.3791
  507loPI   C4A 8106   7.902  17.398   7.432 -0.0102 -0.0863  0.1880
  507loPI   C5A 8107   7.626  17.693   7.312 -0.0303 -0.3023 -0.0194
  507loPI   C6A 8108   7.458  17.848   6.910  0.2513  0.2862 -0.4113
  507loPI   C1B 8109   8.198  17.952   8.445 -0.0505 -0.3590  0.1001
  507loPI   C2B 8110   8.274  17.865   8.044  0.0829  0.1451  0.0342
  507loPI   C3B 8111   7.868  17.861   7.738  0.0439  0.3490  0.1099
  507loPI   C4B 8112   7.392  17.845   7.807 -0.0315 -0.1403 -0.1429
  508loPI    C1 8113   1.978   6.413   9.510 -0.0732  0.0238 -0.0484
  508loPI    C2 8114   1.686   6.618   9.691 -0.1535 -0.3256  0.2281
  508loPI    C3 8115   2.068   6.688   9.786 -0.1468  0.0560 -0.0562
  508loPI   PO4 8116   1.935   6.261   9.491 -0.1446  0.5631  0.1808
  508loPI   GL1 8117   1.833   6.181   9.055  0.0174  0.3961 -0.0875
  508loPI   GL2 8118   1.641   6.511   9.098  0.0499 -0.1469 -0.1473
  508loPI   C1A 8119   1.664   6.217   8.583 -0.1340  0.1344 -0.1979
  508loPI   C2A 8120   1.493   6.012   8.184 -0.0148 -0.0581 -0.0641
  508loPI   C3A 8121   1.461   5.936   7.783 -0.1942  0.2820  0.1806
  508loPI   C4A 8122   1.219   5.646   7.466  0.0794 -0.1115  0.0340
  508loPI   C5A 8123   1.059   5.500   7.143  0.0817 -0.0817 -0.2087
  508loPI   C6A 8124   0.688   5.296   7.019 -0.0686  0.1352  0.2090
  508loPI   C1B 8125   1.625   6.710   8.749 -0.1546 -0.1678 -0.1969
  508loPI   C2B 8126   1.858   6.980   8.542 -0.2770 -0.0846 -0.1386
  508loPI   C3B 8127   2.220   7.088   8.232  0.2187 -0.2635 -0.1220
  508loPI   C4B 8128   2.654   7.082   8.265 -0.2692 -0.2605  0.0781
  509loPI    C1 8129   2.703   8.990  10.193 -0.0874  0.1778 -0.0367
  509loPI    C2 8130   2.392   8.740  10.214  0.2270 -0.2006  0.2884
  509loPI    C3 8131   2.430   9.035  10.482  0.1601 -0.1673  0.2614
  509loPI   PO4 8132   2.747   8.931   9.902  0.1449  0.0892  0.1910
  509loPI   GL1 8133   2.770   8.966   9.464 -0.3776  0.2216  0.1970
  509loPI   GL2 8134   3.035   9.169   9.416 -0.1541 -0.3747 -0.0614
  509loPI   C1A 8135   2.502   8.875   9.178  0.1027 -0.0842  0.2079
  509loPI   C2A 8136   2.635   8.773   8.688  0.1027 -0.1377  0.0407
  509loPI   C3A 8137   2.881   8.945   8.416 -0.3943 -0.0378 -0.2665
  509loPI   C4A 8138   2.889   8.894   7.940  0.4406 -0.1478 -0.2204
  509loPI   C5A 8139   2.897   9.335   7.628 -0.0508 -0.0382 -0.1468
  509loPI   C6A 8140   3.212   9.616   7.409  0.0812  0.1008 -0.4191
  509loPI   C1B 8141   2.771   9.464   9.252  0.2950 -0.2136  0.0330
  509loPI   C2B 8142   2.572   9.390   8.902  0.1142  0.1180 -0.0264
  509loPI   C3B 8143   2.511   9.237   8.587 -0.2004  0.1164  0.1547
  509loPI   C4B 8144   2.606   9.291   8.155 -0.0263 -0.3301  0.0211
  510loPI    C1 8145  10.126  11.226   9.734  0.1278 -0.2516 -0.0537
  510loPI    C2 8146   9.933  11.377  10.050 -0.0252  0.0348 -0.2793
  510loPI    C3 8147  10.317  11.270  10.083 -0.0598 -0.0065  0.0209
  510loPI   PO4 8148   9.977  11.166   9.537  0.3800 -0.2924  0.1779
  510loPI   GL1 8149   9.937  11.401   9.182  0.0067  0.1465  0.2780
  510loPI   GL2 8150  10.284  11.577   9.277  0.0106 -0.1485  0.0242
  510loPI   C1A 8151  10.104  11.533   8.819  0.0543 -0.2020  0.1736
  510loPI   C2A 8152  10.277  11.615   8.446 -0.1989 -0.3328 -0.1496
  510loPI   C3A 8153  10.325  11.558   8.058 -0.0425  0.0120  0.3589
  510loPI   C4A 8154  10.406  11.461   7.687  0.3109 -0.1705  0.1841
  510loPI   C5A 8155  10.143  11.317   7.360  0.2349  0.2470 -0.2793
  510loPI   C6A 8156  10.087  11.225   7.027 -0.1425 -0.0144  0.1859
  510loPI   C1B 8157  10.443  11.871   8.922 -0.2166 -0.1245  0.1737
  510loPI   C2B 8158  10.662  12.220   8.676 -0.2471  0.2570 -0.0207
  510loPI   C3B 8159  10.673  12.226   8.323 -0.3994 -0.0231  0.0118
  510loPI   C4B 8160  10.443  12.061   8.024 -0.3518 -0.0048 -0.2396
  511loPI    C1 8161   5.827  11.849  10.015  0.0514  0.1106 -0.0639
  511loPI    C2 8162   5.597  11.575  10.194  0.2800 -0.2091 -0.2475
  511loPI    C3 8163   5.714  11.901  10.395 -0.2512 -0.0852 -0.1241
  511loPI   PO4 8164   5.752  11.898   9.712  0.2893  0.0803  0.0162
  511loPI   GL1 8165   5.902  11.938   9.348  0.1417 -0.1592  0.1333
  511loPI   GL2 8166   6.151  11.776   9.121  0.2647 -0.1006  0.1987
  511loPI   C1A 8167   5.782  11.986   8.888  0.0146 -0.0618 -0.1261
  511loPI   C2A 8168   5.821  12.028   8.436  0.1216 -0.3787 -0.1472
  511loPI   C3A 8169   5.805  11.861   8.076 -0.0411  0.0031  0.0359
  511loPI   C4A 8170   5.633  11.594   7.667 -0.0211 -0.1100 -0.1095
  511loPI   C5A 8171   5.694  11.342   7.277 -0.0903  0.0196  0.0611
  511loPI   C6A 8172   5.639  11.110   6.931 -0.1509  0.1132  0.0664
  511loPI   C1B 8173   6.276  11.677   8.645  0.0642 -0.1799  0.1039
  511loPI   C2B 8174   6.669  11.532   8.513 -0.2361  0.1142 -0.1724
  511loPI   C3B 8175   6.704  11.381   8.011  0.1341 -0.3285 -0.0884
  511loPI   C4B 8176   6.608  11.275   7.584 -0.0303 -0.0128 -0.1277
  512loPI    C1 8177  18.168  14.710   9.510 -0.2527 -0.0522 -0.1979
  512loPI    C2 8178  18.458  14.649   9.241 -0.0420  0.1430 -0.0186
  512loPI    C3 8179  18.520  14.896   9.550 -0.3086 -0.0176  0.1674
  512loPI   PO4 8180  17.981  14.687   9.408 -0.0512  0.1267 -0.0800
  512loPI   GL1 8181  17.932  14.663   8.983  0.2008  0.2204 -0.0846
  512loPI   GL2 8182  17.798  14.374   8.918  0.0499  0.0022 -0.1010
  512loPI   C1A 8183  17.898  14.922   8.619  0.2529  0.1062  0.1210
  512loPI   C2A 8184  18.014  14.890   8.275  0.3815 -0.0092 -0.0994
  512loPI   C3A 8185  18.066  14.959   7.810  0.0624 -0.0880  0.0274
  512loPI   C4A 8186  18.124  14.850   7.363  0.3957 -0.0066  0.0092
  512loPI   C5A 8187  18.159  14.675   6.939 -0.0853  0.1462 -0.0262
  512loPI   C6A 8188  17.861  14.729   6.694 -0.0840  0.1429  0.0963
  512loPI   C1B 8189  17.776  14.432   8.425  0.0053 -0.1063 -0.0340
  512loPI   C2B 8190  17.884  14.457   7.942 -0.0119 -0.0031  0.4675
  512loPI   C3B 8191  17.983  14.363   7.499  0.1665  0.3752 -0.2621
  512loPI   C4B 8192  17.738  14.452   7.131 -0.2037  0.0486 -0.0791
  513loPI    C1 8193  15.293  17.606   9.509 -0.1587 -0.2445  0.2284
  513loPI    C2 8194  15.434  17.264   9.662  0.2374 -0.0699  0.2658
  513loPI    C3 8195  15.141  17.461   9.850  0.1099 -0.3101  0.3232
  513loPI   PO4 8196  15.505  17.681   9.386  0.0869  0.0144 -0.1558
  513loPI   GL1 8197  15.539  17.801   9.016  0.4758 -0.2079 -0.1554
  513loPI   GL2 8198  15.693  17.579   8.846 -0.0485 -0.1248 -0.1191
  513loPI   C1A 8199  15.305  18.091   8.790  0.2409  0.0944 -0.1296
  513loPI   C2A 8200  15.183  18.429   8.437 -0.3347  0.1518 -0.0419
  513loPI   C3A 8201  15.086  18.422   7.967 -0.1268  0.3159 -0.0408
  513loPI   C4A 8202  15.018  18.431   7.650  0.4151 -0.2717  0.2697
  513loPI   C5A 8203  15.200  18.644   7.397 -0.0592 -0.3112  0.0306
  513loPI   C6A 8204  15.077  18.817   7.008 -0.2170 -0.0640  0.1597
  513loPI   C1B 8205  15.564  17.742   8.421 -0.0337  0.2752  0.0623
  513loPI   C2B 8206  15.769  17.871   7.998  0.2686 -0.3849  0.0958
  513loPI   C3B 8207  15.942  18.100   7.686 -0.0869  0.0529  0.0707
  513loPI   C4B 8208  15.996  18.141   7.289  0.2544  0.2695  0.3043
  514loPI    C1 8209   0.741  13.037  10.056 -0.0298  0.0251 -0.0292
  514loPI    C2 8210   1.018  12.822  10.250 -0.1838 -0.1231  0.0290
  514loPI    C3 8211   0.991  13.217  10.311 -0.0244 -0.1177  0.0672
  514loPI   PO4 8212   0.665  12.928   9.848  0.2233  0.1116 -0.0008
  514loPI   GL1 8213   0.640  13.049   9.377 -0.1013 -0.2567  0.1525
  514loPI   GL2 8214   0.772  12.721   9.386 -0.0743  0.0196  0.0463
  514loPI   C1A 8215   0.706  13.200   9.009  0.0890  0.1617 -0.0215
  514loPI   C2A 8216   0.617  13.137   8.577  0.3006  0.0433  0.2111
  514loPI   C3A 8217   0.819  13.130   8.108  0.0321  0.2649  0.1594
  514loPI   C4A 8218   1.037  13.295   7.792 -0.1904 -0.1142  0.0659
  514loPI   C5A 8219   1.455  13.558   7.644 -0.0073  0.0818 -0.3420
  514loPI   C6A 8220   1.889  13.677   7.505  0.1511 -0.0236  0.1639
  514loPI   C1B 8221   1.011  12.564   8.994 -0.0548  0.0756  0.2006
  514loPI   C2B 8222   1.054  12.283   8.616 -0.0387 -0.2465  0.0456
  514loPI   C3B 8223   1.127  12.315   8.210 -0.2148  0.1462 -0.0076
  514loPI   C4B 8224   1.370  12.182   7.829 -0.1468  0.1302  0.0144
  515loPI    C1 8225   2.159   9.588  10.375  0.1611 -0.2169  0.0384
  515loPI    C2 8226   2.421   9.885  10.432 -0.1287 -0.0181  0.3739
  515loPI    C3 8227   2.440   9.555  10.658  0.1724 -0.2484  0.0236
  515loPI   PO4 8228   2.047   9.602  10.112 -0.2459  0.0126 -0.2435
  515loPI   GL1 8229   1.809   9.802   9.894  0.1393  0.3097 -0.0129
  515loPI   GL2 8230   1.860   9.667   9.607 -0.1601  0.2179  0.0123
  515loPI   C1A 8231   1.927  10.154   9.482 -0.2127  0.0603 -0.0926
  515loPI   C2A 8232   1.931  10.289   9.149  0.1412  0.1244  0.0218
  515loPI   C3A 8233   1.990  10.221   8.654 -0.2733 -0.1499 -0.2239
  515loPI   C4A 8234   2.087  10.086   8.194 -0.0375 -0.2442  0.1088
  515loPI   C5A 8235   2.333  10.371   7.918 -0.2747 -0.2639  0.0837
  515loPI   C6A 8236   2.579  10.670   8.014 -0.1290 -0.4282 -0.0041
  515loPI   C1B 8237   1.974   9.784   9.092 -0.1215 -0.0950  0.0187
  515loPI   C2B 8238   2.146   9.767   8.672  0.0406 -0.2924 -0.1320
  515loPI   C3B 8239   2.210   9.598   8.354 -0.0417  0.2083  0.0611
  515loPI   C4B 8240   2.272   9.677   7.965 -0.1909  0.1733  0.0299
  516loPI    C1 8241   5.760   7.352   9.923 -0.0394  0.0673 -0.1455
  516loPI    C2 8242   5.989   7.679   9.938  0.1658 -0.0738 -0.1519
  516loPI    C3 8243   5.758   7.582  10.249  0.0665  0.1028 -0.1695
  516loPI   PO4 8244   5.826   7.262   9.576  0.3606  0.1992 -0.2189
  516loPI   GL1 8245   5.758   6.908   9.384 -0.0109  0.0576 -0.0831
  516loPI   GL2 8246   6.048   6.786   9.294 -0.3008  0.1481  0.1829
  516loPI   C1A 8247   5.512   6.933   9.052 -0.0435 -0.1465 -0.2493
  516loPI   C2A 8248   5.404   6.767   8.669  0.1313  0.1331 -0.0070
  516loPI   C3A 8249   5.368   6.344   8.584  0.1088  0.0676  0.0724
  516loPI   C4A 8250   5.407   6.221   8.169  0.4358  0.2065 -0.0559
  516loPI   C5A 8251   5.545   6.412   7.700 -0.2362  0.0965  0.0870
  516loPI   C6A 8252   6.086   6.511   7.607  0.1021 -0.5073  0.1813
  516loPI   C1B 8253   5.858   6.652   8.962  0.3688  0.0227 -0.0372
  516loPI   C2B 8254   5.901   6.689   8.541  0.0683 -0.0195  0.0167
  516loPI   C3B 8255   6.012   6.937   8.086 -0.1112  0.1247  0.0493
  516loPI   C4B 8256   5.756   6.961   7.791 -0.1227 -0.1068 -0.1661
  517loPI    C1 8257   6.643   4.310   9.722  0.0782 -0.2688 -0.2079
  517loPI    C2 8258   6.796   4.531  10.018 -0.2546 -0.0127 -0.2222
  517loPI    C3 8259   6.755   4.136  10.065  0.0201 -0.0249 -0.0632
  517loPI   PO4 8260   6.852   4.444   9.462  0.0246  0.0306 -0.1330
  517loPI   GL1 8261   7.085   4.601   9.092 -0.2717  0.2652 -0.2312
  517loPI   GL2 8262   7.409   4.674   9.076 -0.0952 -0.3420  0.2899
  517loPI   C1A 8263   7.027   4.436   8.666 -0.0083  0.1258  0.1105
  517loPI   C2A 8264   7.156   4.265   8.284  0.1837 -0.3502  0.2955
  517loPI   C3A 8265   7.051   4.075   7.992 -0.0899 -0.2269  0.1023
  517loPI   C4A 8266   6.885   4.029   7.534  0.1606 -0.1035 -0.1759
  517loPI   C5A 8267   6.429   4.122   7.458  0.2652 -0.1540  0.1517
  517loPI   C6A 8268   5.923   4.117   7.532 -0.1458 -0.2568 -0.1261
  517loPI   C1B 8269   7.588   4.976   8.847 -0.1659 -0.1762 -0.1242
  517loPI   C2B 8270   7.806   5.386   8.898  0.3812  0.1979  0.0389
  517loPI   C3B 8271   7.766   5.853   8.665  0.2428  0.1318  0.1159
  517loPI   C4B 8272   8.182   6.082   8.494 -0.0565 -0.0282 -0.0408
  518loPI    C1 8273   7.795   1.961   9.882  0.1413 -0.1138 -0.1205
  518loPI    C2 8274   8.159   1.799   9.919  0.2611  0.1009 -0.3286
  518loPI    C3 8275   8.109   2.192   9.973  0.0408  0.0570 -0.2026
  518loPI   PO4 8276   7.694   1.866   9.694  0.0492  0.0829 -0.0742
  518loPI   GL1 8277   7.872   1.728   9.259 -0.0180  0.2594  0.0250
  518loPI   GL2 8278   7.943   1.989   8.972  0.0884 -0.0419 -0.2215
  518loPI   C1A 8279   7.844   1.489   8.850 -0.1681 -0.1220 -0.3010
  518loPI   C2A 8280   7.907   1.487   8.401  0.1205 -0.0517  0.0998
  518loPI   C3A 8281   7.986   1.676   8.024  0.2218  0.1720 -0.0995
  518loPI   C4A 8282   8.060   1.812   7.608  0.0846 -0.3881  0.1411
  518loPI   C5A 8283   8.271   1.766   7.189 -0.0806  0.0204 -0.0785
  518loPI   C6A 8284   8.073   1.813   6.829 -0.0892 -0.0152 -0.1548
  518loPI   C1B 8285   8.089   1.943   8.571  0.2630 -0.0899  0.1601
  518loPI   C2B 8286   8.187   2.050   8.191  0.2744 -0.1192  0.1450
  518loPI   C3B 8287   8.304   2.225   7.875  0.0678 -0.0045  0.1881
  518loPI   C4B 8288   8.388   2.201   7.433  0.1970 -0.0141 -0.1854
  519loPI    C1 8289   9.919  16.704   9.606 -0.0017  0.0742  0.0722
  519loPI    C2 8290   9.966  16.588   9.986  0.1310  0.0725  0.0558
  519loPI    C3 8291   9.937  16.314   9.695 -0.1640  0.0691  0.0856
  519loPI   PO4 8292  10.079  16.848   9.493  0.0538  0.2262 -0.4446
  519loPI   GL1 8293  10.015  16.983   9.088 -0.0112 -0.0604  0.2048
  519loPI   GL2 8294  10.327  16.852   9.038 -0.0941 -0.1036 -0.2610
  519loPI   C1A 8295  10.044  17.192   8.763  0.1313 -0.2321 -0.0035
  519loPI   C2A 8296  10.234  17.169   8.265 -0.2703  0.1132 -0.1439
  519loPI   C3A 8297  10.373  17.060   7.910 -0.1685  0.1481 -0.0646
  519loPI   C4A 8298  10.122  17.082   7.532 -0.1237 -0.2145  0.0999
  519loPI   C5A 8299  10.078  16.764   7.211  0.1095  0.0129  0.0841
  519loPI   C6A 8300   9.748  16.421   7.256  0.3048 -0.0907 -0.0881
  519loPI   C1B 8301  10.352  16.781   8.586 -0.1607  0.2250 -0.0942
  519loPI   C2B 8302  10.342  16.648   8.225  0.2850 -0.0058  0.4691
  519loPI   C3B 8303  10.654  16.652   7.810  0.1800 -0.1391  0.3168
  519loPI   C4B 8304  11.045  16.630   7.604 -0.1743  0.0645  0.1835
  520loPI    C1 8305   4.565   0.668   9.504 -0.1487 -0.1401 -0.0017
  520loPI    C2 8306   4.914   0.527   9.640 -0.0139  0.3464  0.1766
  520loPI    C3 8307   4.627   0.634   9.897 -0.2873 -0.0174  0.0316
  520loPI   PO4 8308   4.596   0.501   9.248 -0.0041 -0.0901  0.2941
  520loPI   GL1 8309   4.767   0.660   8.834  0.1098  0.3092  0.2452
  520loPI   GL2 8310   4.552   0.829   8.870  0.0136  0.0095 -0.0602
  520loPI   C1A 8311   4.892   0.455   8.484  0.1413  0.0026  0.1162
  520loPI   C2A 8312   4.933   0.537   7.990  0.3037  0.1392  0.3280
  520loPI   C3A 8313   5.062   0.581   7.510 -0.1090  0.2358  0.0789
  520loPI   C4A 8314   4.960   0.547   7.071  0.1737  0.0349  0.0172
  520loPI   C5A 8315   5.160   0.365   6.717  0.1909 -0.1155  0.1601
  520loPI   C6A 8316   5.560   0.517   6.634 -0.2487  0.1360 -0.2518
  520loPI   C1B 8317   4.484   0.875   8.458  0.3115  0.1145 -0.0444
  520loPI   C2B 8318   4.582   0.919   8.059 -0.2383  0.1729 -0.2180
  520loPI   C3B 8319   4.549   0.677   7.609 -0.1718  0.0487 -0.3434
  520loPI   C4B 8320   4.704   0.909   7.214  0.2157  0.1226  0.0969
  521loPI    C1 8321   8.854   4.099   9.799 -0.2047  0.1024  0.0888
  521loPI    C2 8322   8.546   3.938   9.996 -0.3189 -0.2299 -0.3459
  521loPI    C3 8323   8.836   3.703   9.852  0.0856  0.0686 -0.0436
  521loPI   PO4 8324   8.787   4.235   9.585  0.0039 -0.0831  0.1095
  521loPI   GL1 8325   8.884   4.183   9.248 -0.1247  0.0457 -0.0116
  521loPI   GL2 8326   8.789   3.947   9.152  0.1404 -0.1622 -0.0829
  521loPI   C1A 8327   8.928   4.365   8.796  0.1069 -0.0453 -0.2076
  521loPI   C2A 8328   8.940   4.290   8.362  0.0727 -0.0218  0.1470
  521loPI   C3A 8329   8.946   4.174   7.976 -0.0450 -0.1026 -0.1976
  521loPI   C4A 8330   8.835   4.232   7.679 -0.3882 -0.0066 -0.1276
  521loPI   C5A 8331   8.595   4.186   7.298 -0.0048 -0.1377 -0.0169
  521loPI   C6A 8332   8.651   4.382   6.870  0.0710  0.0852  0.2150
  521loPI   C1B 8333   8.801   3.875   8.776 -0.0652  0.1336  0.1249
  521loPI   C2B 8334   9.079   3.810   8.325 -0.0894 -0.0456  0.2442
  521loPI   C3B 8335   9.137   3.761   7.819 -0.1911 -0.1108 -0.2373
  521loPI   C4B 8336   8.982   3.811   7.411 -0.2810  0.0312 -0.1806
  522loPI    C1 8337   0.857   4.581   9.269 -0.0644  0.2064 -0.0980
  522loPI    C2 8338   1.135   4.606   9.555 -0.0198 -0.2984 -0.0882
  522loPI    C3 8339   0.750   4.555   9.654 -0.0409 -0.1924 -0.1145
  522loPI   PO4 8340   0.886   4.888   9.084 -0.1515  0.2162 -0.0942
  522loPI   GL1 8341   0.992   4.810   8.694 -0.1703  0.2055  0.1048
  522loPI   GL2 8342   0.769   5.098   8.560  0.0252  0.0010 -0.2494
  522loPI   C1A 8343   0.880   4.611   8.338 -0.1871 -0.2027 -0.6332
  522loPI   C2A 8344   1.055   4.719   8.086  0.2624 -0.0929 -0.1551
  522loPI   C3A 8345   1.056   4.654   7.674  0.2995  0.0736  0.1515
  522loPI   C4A 8346   1.156   4.557   7.226  0.0183  0.0056 -0.1098
  522loPI   C5A 8347   0.990   4.401   6.756 -0.0931 -0.1204  0.3047
  522loPI   C6A 8348   0.699   4.462   6.428 -0.1995 -0.0681  0.3835
  522loPI   C1B 8349   0.978   5.202   8.222 -0.1030  0.0815 -0.3684
  522loPI   C2B 8350   1.025   5.118   7.776 -0.1572  0.2239 -0.3002
  522loPI   C3B 8351   0.823   4.932   7.379  0.1729 -0.0184  0.0222
  522loPI   C4B 8352   0.682   4.776   6.985  0.4532  0.2699 -0.1319
  523loPI    C1 8353   3.746   8.353   9.659  0.1877 -0.0928 -0.1142
  523loPI    C2 8354   4.071   8.361   9.892 -0.1524 -0.2229  0.3834
  523loPI    C3 8355   3.863   8.022   9.852 -0.1329 -0.1874 -0.0760
  523loPI   PO4 8356   3.822   8.393   9.426 -0.2145  0.2096  0.1652
  523loPI   GL1 8357   3.762   8.240   9.145  0.0173  0.1276 -0.3387
  523loPI   GL2 8358   4.075   8.229   9.001  0.0982  0.1415  0.1383
  523loPI   C1A 8359   3.645   8.563   8.828  0.1514  0.0892  0.0639
  523loPI   C2A 8360   3.592   8.538   8.477  0.0685  0.0490 -0.1077
  523loPI   C3A 8361   3.725   8.532   8.030 -0.1820 -0.0311  0.2053
  523loPI   C4A 8362   3.686   8.768   7.549  0.1022 -0.1806  0.0045
  523loPI   C5A 8363   3.718   9.006   7.169 -0.0456 -0.1365  0.0976
  523loPI   C6A 8364   3.720   9.321   6.809  0.1778  0.0367  0.2874
  523loPI   C1B 8365   3.900   8.075   8.591  0.0959  0.3299 -0.0855
  523loPI   C2B 8366   3.704   8.010   8.216 -0.4353 -0.0509  0.1168
  523loPI   C3B 8367   3.716   7.792   7.809 -0.0966 -0.2678 -0.0292
  523loPI   C4B 8368   3.663   7.444   7.519 -0.1307 -0.0872  0.2359
  524loPI    C1 8369  15.870   7.768   9.656 -0.1841  0.0777  0.0646
  524loPI    C2 8370  15.945   7.895  10.028  0.0193 -0.0369  0.0646
  524loPI    C3 8371  15.894   7.505   9.956 -0.1759 -0.0002 -0.0040
  524loPI   PO4 8372  15.604   7.917   9.489 -0.1667  0.1765 -0.2036
  524loPI   GL1 8373  15.581   7.893   9.100 -0.1839  0.0424  0.1376
  524loPI   GL2 8374  15.525   8.288   9.041 -0.0612 -0.0116 -0.0284
  524loPI   C1A 8375  15.320   7.590   8.709 -0.0424  0.0822  0.1361
  524loPI   C2A 8376  15.549   7.407   8.346 -0.1253  0.0009  0.1506
  524loPI   C3A 8377  15.687   7.238   7.922 -0.0005  0.0275 -0.3034
  524loPI   C4A 8378  15.921   7.211   7.554  0.0346  0.3208  0.1384
  524loPI   C5A 8379  16.216   7.319   7.339  0.1400  0.0177  0.2126
  524loPI   C6A 8380  16.371   7.367   6.846 -0.1222  0.0615  0.0953
  524loPI   C1B 8381  15.484   8.298   8.633 -0.0347 -0.2562 -0.1629
  524loPI   C2B 8382  15.536   8.176   8.268  0.0777  0.2470 -0.3018
  524loPI   C3B 8383  15.581   8.234   7.843  0.1272  0.2559  0.3237
  524loPI   C4B 8384  15.570   8.117   7.382  0.2128 -0.0707 -0.0501
  525loPI    C1 8385   2.696   3.046   9.589 -0.0857 -0.2052  0.2033
  525loPI    C2 8386   2.437   2.775   9.728 -0.1789 -0.1560  0.1276
  525loPI    C3 8387   2.455   3.138   9.895 -0.1997 -0.1399  0.0951
  525loPI   PO4 8388   2.750   3.032   9.337  0.1096  0.4151 -0.1062
  525loPI   GL1 8389   2.630   2.677   9.028 -0.1468 -0.0835  0.0363
  525loPI   GL2 8390   2.729   2.931   8.856  0.1512 -0.0409 -0.0431
  525loPI   C1A 8391   2.648   2.272   8.832 -0.0208 -0.4972  0.0326
  525loPI   C2A 8392   2.680   2.257   8.345 -0.1373 -0.1745 -0.0492
  525loPI   C3A 8393   2.909   2.518   7.970  0.2911 -0.1677  0.1527
  525loPI   C4A 8394   2.743   2.635   7.605 -0.2101  0.0632  0.0743
  525loPI   C5A 8395   2.502   2.893   7.312  0.0744  0.1535  0.0038
  525loPI   C6A 8396   2.182   3.206   7.394 -0.2135 -0.1130  0.0179
  525loPI   C1B 8397   2.595   3.094   8.528 -0.2293 -0.2979  0.0897
  525loPI   C2B 8398   2.502   3.438   8.255  0.1498 -0.1113  0.0239
  525loPI   C3B 8399   2.360   3.667   7.811 -0.0576  0.3434  0.0884
  525loPI   C4B 8400   2.151   3.798   7.398 -0.0826  0.2638 -0.2874
  526loPI    C1 8401  14.276   2.594   9.188 -0.0253  0.1192 -0.0148
  526loPI    C2 8402  14.535   2.471   8.909  0.0528  0.0790  0.0746
  526loPI    C3 8403  14.648   2.490   9.292 -0.0272  0.2168  0.0923
  526loPI   PO4 8404  14.146   2.786   9.092  0.1525  0.0361  0.2210
  526loPI   GL1 8405  13.945   2.894   8.804  0.0726 -0.1704  0.0139
  526loPI   GL2 8406  13.798   3.287   8.943 -0.2890 -0.1112  0.1448
  526loPI   C1A 8407  13.621   2.906   8.617  0.2558 -0.1261  0.1861
  526loPI   C2A 8408  13.548   3.057   8.175  0.0324 -0.3364 -0.0527
  526loPI   C3A 8409  13.723   2.685   7.979  0.3961  0.1727  0.1168
  526loPI   C4A 8410  13.910   2.819   7.576  0.0437  0.2760 -0.0295
  526loPI   C5A 8411  14.049   2.896   7.231  0.2952  0.0255 -0.1345
  526loPI   C6A 8412  14.020   2.974   6.767  0.0374 -0.1341 -0.0123
  526loPI   C1B 8413  14.040   3.371   8.555 -0.3087  0.1398  0.0464
  526loPI   C2B 8414  14.469   3.201   8.388  0.0783  0.0121 -0.1470
  526loPI   C3B 8415  14.655   3.060   7.904 -0.3400 -0.0667 -0.3105
  526loPI   C4B 8416  14.309   3.164   7.588 -0.0532  0.2159 -0.1050
  527loPI    C1 8417   9.622   8.809   9.796  0.3052  0.2202 -0.2210
  527loPI    C2 8418   9.438   9.092  10.011  0.1598  0.0741 -0.1506
  527loPI    C3 8419   9.786   8.939  10.136  0.2339  0.2133 -0.1838
  527loPI   PO4 8420   9.677   8.946   9.548 -0.2432 -0.1760  0.0890
  527loPI   GL1 8421  10.056   8.823   9.174 -0.1593  0.2711 -0.0308
  527loPI   GL2 8422  10.350   8.923   9.095  0.0398 -0.2549 -0.0792
  527loPI   C1A 8423   9.991   8.630   8.717 -0.4725  0.1862 -0.1804
  527loPI   C2A 8424   9.964   8.375   8.350  0.1561 -0.2862 -0.0416
  527loPI   C3A 8425  10.131   8.461   8.022 -0.0827  0.4944 -0.1093
  527loPI   C4A 8426  10.160   8.415   7.603  0.4068  0.0861  0.0846
  527loPI   C5A 8427  10.237   8.591   7.173  0.1283  0.0895  0.0345
  527loPI   C6A 8428  10.360   8.439   6.798  0.0657  0.0445  0.0701
  527loPI   C1B 8429  10.657   8.736   8.777 -0.3112 -0.0683  0.0114
  527loPI   C2B 8430  10.460   8.610   8.351  0.1598 -0.0078 -0.0480
  527loPI   C3B 8431  10.406   8.821   7.874  0.0011  0.0506  0.0746
  527loPI   C4B 8432  10.587   9.148   7.588 -0.0526  0.1031  0.0903
  528loPI    C1 8433   0.554  19.128   9.509  0.2035  0.1835 -0.1464
  528loPI    C2 8434   0.729  19.487   9.525  0.0129  0.2652  0.2063
  528loPI    C3 8435   0.726  19.252   9.848 -0.1595  0.0874  0.0773
  528loPI   PO4 8436   0.731  18.959   9.275  0.0591  0.2239  0.1648
  528loPI   GL1 8437   0.919  18.796   9.009  0.0860  0.1253  0.3656
  528loPI   GL2 8438   1.045  18.492   8.987 -0.2020 -0.1804 -0.0125
  528loPI   C1A 8439   0.907  18.843   8.521  0.2965 -0.2768 -0.2084
  528loPI   C2A 8440   0.883  18.902   8.064 -0.1161 -0.0245 -0.0029
  528loPI   C3A 8441   1.049  18.807   7.765 -0.1469  0.1184 -0.3057
  528loPI   C4A 8442   0.962  18.412   7.499  0.1427 -0.0382 -0.0805
  528loPI   C5A 8443   0.649  18.191   7.374 -0.0142 -0.1279  0.0932
  528loPI   C6A 8444   0.642  17.844   6.970 -0.2228 -0.0686  0.1319
  528loPI   C1B 8445   1.257  18.426   8.708 -0.2011  0.0898  0.0816
  528loPI   C2B 8446   1.649  18.288   8.468  0.2469  0.0625  0.0476
  528loPI   C3B 8447   1.806  18.260   8.145  0.1265 -0.0514  0.0068
  528loPI   C4B 8448   1.788  18.388   7.733  0.0259  0.0232 -0.0432
  529loPI    C1 8449   3.697  11.905  10.205  0.0145  0.2475 -0.2627
  529loPI    C2 8450   3.892  12.208  10.379  0.1721 -0.0488  0.0900
  529loPI    C3 8451   3.590  12.027  10.570 -0.2541  0.2014 -0.3239
  529loPI   PO4 8452   3.670  11.966   9.974 -0.0722  0.1905  0.0282
  529loPI   GL1 8453   3.772  12.082   9.569  0.0327  0.0710 -0.1538
  529loPI   GL2 8454   3.465  12.308   9.650  0.3274  0.1365 -0.0028
  529loPI   C1A 8455   3.860  12.225   9.179  0.1838  0.3525  0.2258
  529loPI   C2A 8456   3.936  12.227   8.799 -0.0993  0.0127 -0.1810
  529loPI   C3A 8457   3.958  11.902   8.600 -0.1685  0.1406  0.0134
  529loPI   C4A 8458   3.843  11.725   8.264 -0.1342 -0.1579 -0.1291
  529loPI   C5A 8459   3.539  11.395   7.945  0.0689 -0.1808 -0.0505
  529loPI   C6A 8460   3.418  11.079   8.280 -0.1243  0.1382 -0.1480
  529loPI   C1B 8461   3.218  12.128   9.354  0.2352 -0.0210 -0.1365
  529loPI   C2B 8462   3.333  12.142   8.861  0.3696  0.0179  0.1108
  529loPI   C3B 8463   3.582  12.160   8.504  0.2691 -0.0611 -0.0025
  529loPI   C4B 8464   3.873  12.310   8.211  0.1202  0.2028  0.2451
  530loPI    C1 8465  11.831   6.889   9.532  0.0201 -0.1624  0.0483
  530loPI    C2 8466  12.174   6.872   9.736 -0.0705  0.1240  0.2312
  530loPI    C3 8467  11.836   6.976   9.922 -0.2560 -0.1387  0.0490
  530loPI   PO4 8468  11.903   7.054   9.328  0.0287 -0.0693 -0.0424
  530loPI   GL1 8469  12.062   7.194   8.981 -0.1872  0.2029 -0.0447
  530loPI   GL2 8470  11.877   7.352   8.873 -0.2371  0.4217  0.0769
  530loPI   C1A 8471  12.374   7.022   8.706  0.1569  0.0718  0.0552
  530loPI   C2A 8472  12.776   7.095   8.537  0.2628  0.0682  0.0859
  530loPI   C3A 8473  13.227   7.163   8.315 -0.3144  0.1859 -0.3095
  530loPI   C4A 8474  13.337   7.251   7.885 -0.0690  0.3631  0.1056
  530loPI   C5A 8475  13.510   7.637   7.657 -0.1476  0.0182  0.1825
  530loPI   C6A 8476  13.739   8.041   7.400 -0.0634 -0.1193 -0.0149
  530loPI   C1B 8477  11.854   7.492   8.413  0.2577  0.0507  0.2130
  530loPI   C2B 8478  11.978   7.668   8.125 -0.0716 -0.2129  0.1098
  530loPI   C3B 8479  12.128   8.014   7.940  0.1849 -0.1445 -0.1854
  530loPI   C4B 8480  12.060   8.121   7.523 -0.2301 -0.0841  0.1073
  531loPI    C1 8481  12.616   6.580   9.778  0.1133  0.1563 -0.0022
  531loPI    C2 8482  12.449   6.387  10.086 -0.1322  0.1958 -0.1081
  531loPI    C3 8483  12.595   6.756  10.136  0.0396  0.1120  0.0156
  531loPI   PO4 8484  12.502   6.365   9.590 -0.0928 -0.0783 -0.1081
  531loPI   GL1 8485  12.289   6.387   9.258  0.1748  0.2312 -0.1775
  531loPI   GL2 8486  12.387   6.723   9.124  0.3645 -0.0184 -0.2548
  531loPI   C1A 8487  12.172   6.402   8.729 -0.1330 -0.0650 -0.3373
  531loPI   C2A 8488  12.291   6.617   8.393 -0.1411 -0.2274  0.3007
  531loPI   C3A 8489  12.483   6.751   8.087  0.2063 -0.0912  0.0492
  531loPI   C4A 8490  12.431   6.685   7.673  0.1680  0.0950 -0.1391
  531loPI   C5A 8491  12.605   6.813   7.367 -0.1749  0.2073  0.0449
  531loPI   C6A 8492  12.851   7.058   6.879  0.1380  0.0859 -0.2332
  531loPI   C1B 8493  12.746   6.668   8.782  0.0218  0.2855 -0.2130
  531loPI   C2B 8494  12.710   6.390   8.570  0.0177  0.3032 -0.0118
  531loPI   C3B 8495  12.474   6.258   8.127  0.2736 -0.0132 -0.2062
  531loPI   C4B 8496  12.233   6.170   7.767 -0.0729 -0.1519 -0.0968
  532loPI    C1 8497   1.626   1.549   9.483  0.2410 -0.0439 -0.1760
  532loPI    C2 8498   1.779   1.413   9.827  0.1540  0.0189 -0.1124
  532loPI    C3 8499   1.660   1.794   9.797  0.0180 -0.0270 -0.1637
  532loPI   PO4 8500   1.840   1.563   9.279 -0.0188 -0.3315 -0.1838
  532loPI   GL1 8501   2.001   1.663   8.839  0.1739 -0.1592 -0.1203
  532loPI   GL2 8502   1.702   1.459   8.816  0.2504  0.4692 -0.1431
  532loPI   C1A 8503   1.839   1.759   8.410 -0.0234 -0.2834 -0.2967
  532loPI   C2A 8504   1.852   1.877   7.929  0.3039 -0.0002 -0.0135
  532loPI   C3A 8505   2.087   1.786   7.653 -0.1530  0.1812 -0.0919
  532loPI   C4A 8506   2.334   1.849   7.405 -0.0826 -0.0343  0.0665
  532loPI   C5A 8507   2.331   1.960   6.957  0.0140  0.0740 -0.5204
  532loPI   C6A 8508   2.370   1.996   6.496 -0.2518  0.0871  0.0996
  532loPI   C1B 8509   1.716   1.310   8.405  0.1311  0.1550 -0.0064
  532loPI   C2B 8510   1.816   1.396   7.947  0.1153  0.0848  0.2602
  532loPI   C3B 8511   1.739   1.431   7.497  0.2003 -0.2050  0.4013
  532loPI   C4B 8512   1.470   1.538   7.049  0.2300  0.2642 -0.2250
  533loPI    C1 8513   5.666   2.848   9.291  0.0214 -0.0113  0.0554
  533loPI    C2 8514   6.009   3.043   9.358 -0.0314 -0.0144  0.3472
  533loPI    C3 8515   5.834   2.839   9.654 -0.1551 -0.2229  0.1338
  533loPI   PO4 8516   5.684   2.748   9.072 -0.0041  0.1449 -0.1051
  533loPI   GL1 8517   5.519   2.532   8.814 -0.3658 -0.1594  0.2040
  533loPI   GL2 8518   5.544   2.199   8.691  0.0497  0.3360 -0.0849
  533loPI   C1A 8519   5.259   2.614   8.436  0.0586 -0.0660 -0.0699
  533loPI   C2A 8520   5.321   2.812   8.008  0.0251 -0.2006 -0.1462
  533loPI   C3A 8521   5.302   2.825   7.557  0.3285  0.1035  0.2441
  533loPI   C4A 8522   5.246   2.916   7.013 -0.3334  0.0496 -0.1160
  533loPI   C5A 8523   5.362   2.682   6.633  0.0451  0.1797  0.1184
  533loPI   C6A 8524   5.573   2.329   6.323 -0.1388  0.0750  0.3654
  533loPI   C1B 8525   5.655   1.962   8.352  0.2916  0.0228  0.0706
  533loPI   C2B 8526   5.518   1.949   7.897 -0.1258 -0.2445 -0.1327
  533loPI   C3B 8527   5.562   1.870   7.440  0.1395 -0.1150  0.0071
  533loPI   C4B 8528   5.675   1.824   7.066 -0.0285  0.1262 -0.0080
  534loPI    C1 8529   6.946   0.011   9.872  0.2736  0.1051 -0.0015
  534loPI    C2 8530   6.824  -0.189  10.197  0.1519  0.1121 -0.0424
  534loPI    C3 8531   7.132  -0.325   9.982  0.1276  0.0179 -0.0178
  534loPI   PO4 8532   6.800   0.010   9.667  0.0191 -0.3225  0.0751
  534loPI   GL1 8533   6.745   0.066   9.198 -0.2323  0.0896 -0.1222
  534loPI   GL2 8534   7.039  -0.138   9.149  0.0363  0.0708 -0.0322
  534loPI   C1A 8535   6.697   0.001   8.735 -0.1365  0.0340  0.1135
  534loPI   C2A 8536   6.742  -0.154   8.369  0.4454  0.2115 -0.0761
  534loPI   C3A 8537   6.973  -0.438   8.122 -0.0912 -0.1344 -0.2846
  534loPI   C4A 8538   7.044  -0.381   7.745 -0.2062  0.0753 -0.0441
  534loPI   C5A 8539   6.846  -0.207   7.423  0.2221  0.3231 -0.2849
  534loPI   C6A 8540   6.652  -0.330   7.065  0.0050  0.2409 -0.2644
  534loPI   C1B 8541   7.234  -0.058   8.755  0.0433  0.2427  0.0034
  534loPI   C2B 8542   7.238   0.030   8.357 -0.1129 -0.0676  0.1409
  534loPI   C3B 8543   7.193   0.074   7.945  0.0105 -0.1512 -0.0184
  534loPI   C4B 8544   7.310  -0.025   7.533  0.1656  0.0231 -0.0593
  535loPI    C1 8545  15.593  14.436   9.772 -0.1225  0.1791  0.1341
  535loPI    C2 8546  15.874  14.288  10.016 -0.0263 -0.0962 -0.1372
  535loPI    C3 8547  15.810  14.683  10.000  0.1928 -0.0492  0.0875
  535loPI   PO4 8548  15.610  14.304   9.518 -0.1246 -0.0477 -0.0166
  535loPI   GL1 8549  15.550  14.410   9.102 -0.0090  0.0809 -0.2515
  535loPI   GL2 8550  15.370  14.559   8.834 -0.2373 -0.0778 -0.0235
  535loPI   C1A 8551  15.599  14.122   8.756 -0.0766  0.1643  0.0510
  535loPI   C2A 8552  15.693  14.124   8.361  0.2719  0.0560  0.0444
  535loPI   C3A 8553  15.521  14.129   7.973  0.2672  0.2063  0.1828
  535loPI   C4A 8554  15.483  14.057   7.543  0.1003  0.0075 -0.3984
  535loPI   C5A 8555  15.243  14.111   7.165 -0.0192 -0.3955 -0.2351
  535loPI   C6A 8556  14.976  14.011   6.884 -0.2748 -0.1138 -0.0333
  535loPI   C1B 8557  15.730  14.571   8.457  0.0392  0.0258 -0.0476
  535loPI   C2B 8558  15.856  14.469   7.992 -0.1392 -0.0572 -0.4321
  535loPI   C3B 8559  15.781  14.451   7.583  0.0360  0.2667  0.1796
  535loPI   C4B 8560  16.010  14.272   7.268 -0.1836  0.1081 -0.0217
  536loPI    C1 8561  11.281  13.716  10.145  0.1103  0.0586 -0.0228
  536loPI    C2 8562  11.136  13.514  10.458 -0.1194  0.0122 -0.1568
  536loPI    C3 8563  11.476  13.721  10.494  0.0531 -0.2942  0.0178
  536loPI   PO4 8564  11.264  13.550   9.916 -0.6186  0.2341  0.4185
  536loPI   GL1 8565  11.227  13.613   9.408 -0.1666 -0.1405 -0.2949
  536loPI   GL2 8566  11.316  14.024   9.324  0.0406 -0.1082 -0.1431
  536loPI   C1A 8567  11.488  13.461   9.082  0.0698  0.1381  0.1672
  536loPI   C2A 8568  11.728  13.624   8.701  0.3059 -0.4080  0.0990
  536loPI   C3A 8569  11.794  13.700   8.258 -0.1103  0.0673 -0.0625
  536loPI   C4A 8570  11.686  13.728   7.768  0.0632 -0.0237 -0.4114
  536loPI   C5A 8571  11.766  13.470   7.535 -0.3377  0.0944  0.2135
  536loPI   C6A 8572  11.959  13.374   7.014 -0.0812  0.1149 -0.3055
  536loPI   C1B 8573  11.278  13.884   8.863 -0.0236  0.2954  0.0921
  536loPI   C2B 8574  11.354  13.873   8.428  0.2384  0.1317  0.2699
  536loPI   C3B 8575  11.171  13.764   8.076  0.0518  0.2277 -0.0305
  536loPI   C4B 8576  11.217  13.517   7.711 -0.0807 -0.1503  0.1973
  537loPI    C1 8577  16.490   4.784   9.935  0.1425 -0.0455 -0.0384
  537loPI    C2 8578  16.166   4.561   9.863  0.2479 -0.2189  0.0180
  537loPI    C3 8579  16.125   4.934  10.002  0.0723 -0.2276 -0.0075
  537loPI   PO4 8580  16.620   4.790   9.695  0.1449  0.2691 -0.1545
  537loPI   GL1 8581  16.336   4.906   9.413  0.3037  0.0171 -0.1582
  537loPI   GL2 8582  16.550   4.773   9.216 -0.1484 -0.0440  0.0460
  537loPI   C1A 8583  16.257   5.091   8.906  0.1508  0.0193  0.3403
  537loPI   C2A 8584  16.202   5.007   8.515 -0.1447 -0.2182  0.2622
  537loPI   C3A 8585  16.054   5.213   8.166 -0.0142 -0.1714 -0.4823
  537loPI   C4A 8586  16.079   5.354   7.715 -0.3087 -0.1150  0.0590
  537loPI   C5A 8587  16.174   5.367   7.304 -0.2121 -0.1469  0.2334
  537loPI   C6A 8588  16.178   5.127   6.918  0.2399 -0.1961 -0.2427
  537loPI   C1B 8589  16.494   4.668   8.813 -0.0966 -0.4125  0.0185
  537loPI   C2B 8590  16.631   4.788   8.295  0.0422  0.3437  0.3292
  537loPI   C3B 8591  16.492   5.008   7.951  0.1759 -0.2283 -0.2440
  537loPI   C4B 8592  16.546   5.110   7.497 -0.0654  0.1371  0.1407
  538loPI    C1 8593   7.451   3.764   9.633 -0.2228  0.2192 -0.0843
  538loPI    C2 8594   7.252   3.950   9.926 -0.3943 -0.2666  0.1192
  538loPI    C3 8595   7.579   3.737  10.011 -0.1014  0.0695 -0.1350
  538loPI   PO4 8596   7.455   3.880   9.482  0.0236  0.1502  0.0235
  538loPI   GL1 8597   7.424   4.135   9.054  0.3772  0.2194 -0.0584
  538loPI   GL2 8598   7.284   4.034   8.937  0.0848 -0.2926 -0.0215
  538loPI   C1A 8599   7.523   4.321   8.581 -0.0747 -0.1193  0.0349
  538loPI   C2A 8600   7.587   4.714   8.359 -0.2074  0.0226  0.0742
  538loPI   C3A 8601   7.483   4.843   7.932 -0.3201  0.1558 -0.1256
  538loPI   C4A 8602   7.139   5.018   7.751  0.5040  0.1467  0.2720
  538loPI   C5A 8603   6.871   5.155   7.397 -0.1629 -0.3409  0.1528
  538loPI   C6A 8604   6.664   5.505   7.169  0.1189  0.2521 -0.3430
  538loPI   C1B 8605   7.303   3.802   8.649  0.2088 -0.0350 -0.0396
  538loPI   C2B 8606   7.017   3.819   8.372 -0.0620  0.2183  0.0591
  538loPI   C3B 8607   6.629   3.935   8.123 -0.0488  0.1626 -0.2841
  538loPI   C4B 8608   6.564   3.676   7.796 -0.1326  0.1801  0.2498
  539loPI    C1 8609   2.088  18.354   9.671  0.0672 -0.1740 -0.2557
  539loPI    C2 8610   2.355  18.439   9.957 -0.2796  0.0422  0.0129
  539loPI    C3 8611   1.966  18.417  10.047 -0.3208 -0.7118 -0.2802
  539loPI   PO4 8612   2.183  18.472   9.455 -0.0648 -0.4524 -0.0110
  539loPI   GL1 8613   2.069  18.773   9.101  0.3270 -0.3041 -0.0434
  539loPI   GL2 8614   1.921  19.022   9.067 -0.1360 -0.0043  0.0874
  539loPI   C1A 8615   2.364  18.820   8.704 -0.4095 -0.0634 -0.1595
  539loPI   C2A 8616   2.379  18.596   8.417  0.4207  0.1336  0.4798
  539loPI   C3A 8617   2.266  18.461   7.969 -0.0727 -0.0076 -0.4282
  539loPI   C4A 8618   2.191  18.256   7.496  0.0028  0.1519  0.1247
  539loPI   C5A 8619   1.895  18.277   7.164 -0.1982 -0.0780 -0.2428
  539loPI   C6A 8620   1.556  18.103   6.891  0.0495 -0.0748 -0.0632
  539loPI   C1B 8621   2.113  19.214   8.665  0.0122  0.0097 -0.0449
  539loPI   C2B 8622   2.246  19.135   8.337 -0.1221 -0.2067  0.0083
  539loPI   C3B 8623   2.480  19.000   7.917 -0.0725  0.2814 -0.1591
  539loPI   C4B 8624   2.517  19.102   7.531  0.1649  0.2011 -0.1846
  540loPI    C1 8625  15.270  19.118   9.387  0.2347  0.1599 -0.0147
  540loPI    C2 8626  15.532  19.012   9.104  0.2872 -0.0898  0.1247
  540loPI    C3 8627  15.649  19.042   9.486  0.1039 -0.2470  0.1945
  540loPI   PO4 8628  15.107  19.276   9.266 -0.0759  0.2406 -0.0003
  540loPI   GL1 8629  15.109  19.439   8.871  0.0069 -0.0311 -0.0112
  540loPI   GL2 8630  15.400  19.422   8.847 -0.3745  0.2802 -0.0106
  540loPI   C1A 8631  15.035  19.203   8.493  0.5361 -0.3894  0.3960
  540loPI   C2A 8632  15.309  19.102   8.145 -0.0431 -0.1940  0.2101
  540loPI   C3A 8633  15.609  19.425   7.881 -0.0316  0.3812  0.0307
  540loPI   C4A 8634  15.680  19.462   7.399 -0.1218 -0.0049 -0.0004
  540loPI   C5A 8635  15.833  19.240   6.959 -0.0331  0.2830 -0.0095
  540loPI   C6A 8636  15.666  18.962   6.731 -0.3153  0.0173 -0.1278
  540loPI   C1B 8637  15.314  19.613   8.353  0.1022  0.2364 -0.3010
  540loPI   C2B 8638  15.334  19.831   8.013 -0.1240  0.0052 -0.2078
  540loPI   C3B 8639  15.609  19.878   7.679 -0.0424  0.0588  0.1995
  540loPI   C4B 8640  15.792  20.010   7.267  0.1839 -0.0014 -0.3881
  541loPI    C1 8641  11.130  14.752   9.897  0.0400  0.1598  0.0124
  541loPI    C2 8642  10.914  14.829  10.225  0.0449  0.2239  0.0007
  541loPI    C3 8643  11.243  14.603  10.251 -0.0653  0.0626  0.0059
  541loPI   PO4 8644  11.164  14.990   9.779 -0.0314 -0.0140 -0.0478
  541loPI   GL1 8645  11.410  15.183   9.427 -0.1239 -0.5451 -0.0798
  541loPI   GL2 8646  11.574  15.022   9.533 -0.0398  0.5053  0.1947
  541loPI   C1A 8647  11.562  15.350   8.989  0.4427 -0.0678 -0.0730
  541loPI   C2A 8648  11.754  15.379   8.598  0.0977  0.2623 -0.0442
  541loPI   C3A 8649  11.664  15.092   8.195  0.1690  0.2356  0.0710
  541loPI   C4A 8650  11.521  14.877   7.790 -0.0857  0.0254 -0.0729
  541loPI   C5A 8651  11.243  14.756   7.478 -0.0845 -0.1435  0.2048
  541loPI   C6A 8652  11.112  14.882   7.020  0.1641  0.0138 -0.2033
  541loPI   C1B 8653  11.579  14.871   9.077 -0.0485 -0.0690  0.1212
  541loPI   C2B 8654  11.369  14.939   8.651 -0.1237  0.0342  0.2137
  541loPI   C3B 8655  11.051  14.872   8.335  0.0246  0.3241 -0.1672
  541loPI   C4B 8656  10.998  15.020   7.933 -0.0159 -0.0769  0.0442
  542loPI    C1 8657   9.082  11.325   9.795  0.1822  0.0267  0.0661
  542loPI    C2 8658   9.265  11.141  10.099 -0.2283 -0.2241  0.1695
  542loPI    C3 8659   8.930  11.350  10.164 -0.1152  0.0328 -0.0536
  542loPI   PO4 8660   8.960  11.174   9.505  0.0174 -0.0878  0.1432
  542loPI   GL1 8661   9.134  11.110   9.184  0.2794  0.1890  0.6381
  542loPI   GL2 8662   9.340  11.286   9.100  0.4140 -0.1223  0.0010
  542loPI   C1A 8663   9.282  10.875   8.774  0.0258  0.0465 -0.0853
  542loPI   C2A 8664   9.737  10.883   8.510  0.2334  0.1580 -0.0148
  542loPI   C3A 8665   9.701  10.916   8.133  0.1250  0.0051 -0.4059
  542loPI   C4A 8666   9.768  10.629   7.766 -0.1121 -0.0286 -0.0236
  542loPI   C5A 8667   9.810  10.508   7.392  0.1903  0.0752  0.2438
  542loPI   C6A 8668   9.698  10.233   7.030  0.0266  0.1522 -0.3164
  542loPI   C1B 8669   9.635  11.281   8.791  0.0092 -0.0810 -0.1386
  542loPI   C2B 8670   9.827  11.397   8.378 -0.0160  0.0558 -0.1654
  542loPI   C3B 8671   9.837  11.348   7.813  0.1447 -0.0145  0.1872
  542loPI   C4B 8672   9.740  11.000   7.456 -0.1184 -0.1575 -0.0777
  543loPI    C1 8673   7.745  16.816   9.500 -0.2524  0.1909  0.0876
  543loPI    C2 8674   7.782  16.997   9.854  0.2719  0.0173  0.1301
  543loPI    C3 8675   7.632  16.627   9.834  0.1013  0.0841  0.1505
  543loPI   PO4 8676   7.993  16.933   9.350 -0.1027 -0.2957 -0.1136
  543loPI   GL1 8677   8.269  16.972   8.978  0.0023  0.0328 -0.4703
  543loPI   GL2 8678   7.966  17.217   8.922 -0.1782  0.1033 -0.1626
  543loPI   C1A 8679   8.584  17.093   8.670 -0.1315  0.2018  0.0030
  543loPI   C2A 8680   8.614  17.034   8.192 -0.1127 -0.1041  0.0414
  543loPI   C3A 8681   8.491  16.896   7.767 -0.0326 -0.2655  0.0119
  543loPI   C4A 8682   8.596  16.787   7.339 -0.0010  0.0038  0.0226
  543loPI   C5A 8683   8.997  16.668   7.113 -0.0843 -0.0537 -0.0849
  543loPI   C6A 8684   9.308  16.429   6.896  0.1038  0.1488  0.0358
  543loPI   C1B 8685   7.991  17.060   8.527 -0.3591 -0.2695  0.1925
  543loPI   C2B 8686   8.105  16.966   8.153 -0.1466 -0.0504  0.4370
  543loPI   C3B 8687   8.023  16.706   7.841 -0.2236 -0.1430  0.0469
  543loPI   C4B 8688   8.076  16.851   7.361 -0.1410  0.0554 -0.3723
  544loPI    C1 8689   9.673   3.959   9.390 -0.0351 -0.0656 -0.0480
  544loPI    C2 8690   9.784   4.123   9.737  0.0764 -0.3819  0.0682
  544loPI    C3 8691   9.726   3.728   9.712  0.0482 -0.3586 -0.2685
  544loPI   PO4 8692   9.877   4.098   9.239 -0.2266 -0.1878 -0.0927
  544loPI   GL1 8693   9.784   4.251   8.874  0.0952  0.0350  0.2091
  544loPI   GL2 8694   9.987   4.049   8.728  0.0836  0.1242  0.1749
  544loPI   C1A 8695   9.822   4.420   8.397 -0.3271  0.3166 -0.0151
  544loPI   C2A 8696  10.010   4.781   8.251 -0.0815 -0.0024 -0.1100
  544loPI   C3A 8697  10.039   5.015   7.847  0.2932 -0.1279  0.1183
  544loPI   C4A 8698  10.052   4.805   7.478 -0.1158 -0.0349 -0.1735
  544loPI   C5A 8699  10.420   4.786   7.281 -0.1901 -0.2688 -0.0304
  544loPI   C6A 8700  10.770   4.589   7.096 -0.1293 -0.3464 -0.0626
  544loPI   C1B 8701  10.124   4.072   8.306  0.2329 -0.1957  0.0514
  544loPI   C2B 8702  10.166   4.338   8.024  0.0689  0.1848 -0.1554
  544loPI   C3B 8703   9.765   4.535   7.813 -0.1524 -0.1541  0.1450
  544loPI   C4B 8704   9.559   4.533   7.394 -0.2830  0.0193  0.0174
  545loPI    C1 8705  14.586   1.884   9.388  0.0563  0.1661 -0.1427
  545loPI    C2 8706  14.264   2.116   9.429  0.0450  0.0980  0.1802
  545loPI    C3 8707  14.440   1.960   9.752  0.2099 -0.1287 -0.0157
  545loPI   PO4 8708  14.834   2.057   9.161  0.0564  0.2102 -0.3006
  545loPI   GL1 8709  14.872   1.924   8.780  0.0200  0.1627  0.1042
  545loPI   GL2 8710  15.000   1.680   8.770 -0.0574  0.4851 -0.0879
  545loPI   C1A 8711  14.642   2.219   8.486 -0.2168  0.0964 -0.0257
  545loPI   C2A 8712  14.556   2.164   8.086 -0.2290 -0.1246  0.1831
  545loPI   C3A 8713  14.755   2.028   7.784 -0.2431  0.1653 -0.0691
  545loPI   C4A 8714  14.730   1.848   7.324  0.2372  0.3144 -0.0594
  545loPI   C5A 8715  14.956   1.518   7.113 -0.0764  0.1684  0.4465
  545loPI   C6A 8716  15.089   1.160   6.882 -0.1593 -0.2121 -0.1206
  545loPI   C1B 8717  15.264   1.824   8.419  0.3048  0.2524  0.0980
  545loPI   C2B 8718  15.212   2.001   7.954 -0.0213 -0.1562 -0.1308
  545loPI   C3B 8719  15.225   2.103   7.490  0.0600  0.0439  0.1576
  545loPI   C4B 8720  15.119   2.057   7.040 -0.2241 -0.0581 -0.0172
  546loPI    C1 8721   5.696   9.676   9.422 -0.2254  0.2111  0.4323
  546loPI    C2 8722   5.352   9.777   9.244  0.0100  0.1946 -0.0472
  546loPI    C3 8723   5.632  10.055   9.309  0.1290  0.1048 -0.1696
  546loPI   PO4 8724   5.732   9.427   9.184 -0.1958  0.3539 -0.0283
  546loPI   GL1 8725   5.748   9.463   8.743  0.0980  0.3444 -0.1576
  546loPI   GL2 8726   6.037   9.426   8.614 -0.0633  0.0453 -0.0649
  546loPI   C1A 8727   5.611   9.360   8.339 -0.2176 -0.0875 -0.2427
  546loPI   C2A 8728   5.807   9.467   7.896  0.1831  0.2226 -0.1718
  546loPI   C3A 8729   6.084   9.623   7.578  0.0074 -0.0486  0.0449
  546loPI   C4A 8730   6.458   9.859   7.304 -0.1313 -0.0169 -0.0402
  546loPI   C5A 8731   6.812   9.964   7.050 -0.0801 -0.2050 -0.0111
  546loPI   C6A 8732   6.897  10.275   6.643 -0.0533  0.1649 -0.3037
  546loPI   C1B 8733   6.122   9.377   8.232 -0.3483  0.0108  0.1125
  546loPI   C2B 8734   6.327   9.200   7.845  0.2230 -0.0063 -0.0878
  546loPI   C3B 8735   6.521   9.411   7.551 -0.0321  0.2220  0.3014
  546loPI   C4B 8736   6.662   9.280   7.165 -0.0205 -0.2377 -0.0030
  547loPI    C1 8737  19.420   5.799   9.670  0.0107 -0.2669  0.0477
  547loPI    C2 8738  19.243   5.759  10.026 -0.2219  0.0462 -0.0282
  547loPI    C3 8739  19.380   6.116   9.911  0.3193 -0.1565 -0.0414
  547loPI   PO4 8740  19.274   5.703   9.513  0.2891 -0.6274  0.2213
  547loPI   GL1 8741  19.210   5.846   9.142 -0.2326  0.0442  0.1404
  547loPI   GL2 8742  19.281   6.119   9.285  0.0705 -0.1717  0.1175
  547loPI   C1A 8743  19.192   5.920   8.625 -0.1382  0.1897  0.0019
  547loPI   C2A 8744  19.320   5.821   8.275  0.1238  0.0444 -0.0392
  547loPI   C3A 8745  19.449   5.942   7.897 -0.2813 -0.1476  0.1573
  547loPI   C4A 8746  19.461   6.324   7.605  0.0568 -0.1224  0.1270
  547loPI   C5A 8747  19.120   6.273   7.515 -0.0049  0.0920 -0.1332
  547loPI   C6A 8748  18.859   6.648   7.551  0.4154  0.3499  0.2974
  547loPI   C1B 8749  18.884   6.257   9.035 -0.1540 -0.1355 -0.5476
  547loPI   C2B 8750  18.707   6.069   8.658  0.0082  0.0427  0.1866
  547loPI   C3B 8751  18.494   5.939   8.373 -0.1820 -0.2154 -0.0156
  547loPI   C4B 8752  18.068   5.956   8.250  0.0140  0.0240  0.1535
  548loPI    C1 8753   1.184  10.405  10.060  0.0206 -0.0789  0.0389
  548loPI    C2 8754   1.364  10.226   9.750 -0.1456 -0.3161  0.0762
  548loPI    C3 8755   1.233  10.008  10.059 -0.1114 -0.0973  0.2483
  548loPI   PO4 8756   1.314  10.720  10.040 -0.0990  0.1221  0.0036
  548loPI   GL1 8757   0.980  10.900   9.654  0.2076  0.0853 -0.2152
  548loPI   GL2 8758   0.773  11.142   9.665  0.1077  0.2852 -0.2592
  548loPI   C1A 8759   0.921  10.813   9.267 -0.1302 -0.0720 -0.0825
  548loPI   C2A 8760   0.848  10.916   8.872 -0.3061 -0.0175 -0.0119
  548loPI   C3A 8761   0.964  11.207   8.642  0.0999 -0.3956  0.2739
  548loPI   C4A 8762   1.110  11.235   8.198  0.1442 -0.0129 -0.0118
  548loPI   C5A 8763   1.413  11.308   7.977 -0.3223  0.2119  0.0424
  548loPI   C6A 8764   1.774  11.173   7.669  0.0514 -0.0414 -0.0178
  548loPI   C1B 8765   0.982  11.293   9.218 -0.0294  0.1163 -0.2607
  548loPI   C2B 8766   1.200  11.540   9.046 -0.1769  0.1523  0.0835
  548loPI   C3B 8767   1.574  11.476   9.188 -0.1324 -0.0148 -0.1664
  548loPI   C4B 8768   1.743  11.887   9.179  0.1792  0.2457  0.2474
  549loPI    C1 8769   9.561   6.920   9.818  0.1910  0.1804  0.0051
  549loPI    C2 8770   9.486   7.198  10.096  0.1304  0.2275 -0.0582
  549loPI    C3 8771   9.215   7.120   9.812  0.0533 -0.0520  0.0890
  549loPI   PO4 8772   9.747   7.087   9.657  0.0848 -0.0286 -0.0004
  549loPI   GL1 8773   9.879   6.976   9.220  0.1957 -0.0020 -0.1198
  549loPI   GL2 8774   9.552   7.212   9.215 -0.0144  0.0842 -0.0583
  549loPI   C1A 8775  10.068   7.147   8.844  0.0451  0.0764 -0.0021
  549loPI   C2A 8776  10.016   7.048   8.469 -0.3626 -0.0582  0.1244
  549loPI   C3A 8777   9.983   7.034   8.045  0.0507 -0.1089  0.1144
  549loPI   C4A 8778   9.996   6.913   7.552  0.2637 -0.0149 -0.2705
  549loPI   C5A 8779   9.895   6.721   7.111 -0.0633  0.0146 -0.2376
  549loPI   C6A 8780   9.771   6.627   6.757 -0.1657 -0.2726  0.0735
  549loPI   C1B 8781   9.399   7.151   8.869  0.0489  0.1407  0.2949
  549loPI   C2B 8782   9.053   7.023   8.588  0.1422  0.3784 -0.0470
  549loPI   C3B 8783   8.849   6.765   8.201 -0.0487 -0.1386 -0.0596
  549loPI   C4B 8784   9.077   6.908   7.785 -0.1395 -0.0965 -0.0075
  550loPI    C1 8785  16.512   5.291   9.746  0.1495  0.1276 -0.0701
  550loPI    C2 8786  16.738   5.160  10.049 -0.2901 -0.4014  0.0451
  550loPI    C3 8787  16.504   5.481  10.098  0.2301 -0.0021  0.0024
  550loPI   PO4 8788  16.648   5.269   9.526 -0.0993  0.2789 -0.2390
  550loPI   GL1 8789  16.633   5.334   9.230  0.1548  0.0019  0.0933
  550loPI   GL2 8790  16.506   5.650   9.103 -0.2942  0.1176  0.1711
  550loPI   C1A 8791  16.767   5.271   8.841  0.2307 -0.0497  0.0375
  550loPI   C2A 8792  16.797   5.349   8.378 -0.1663  0.0762 -0.0441
  550loPI   C3A 8793  16.870   5.434   7.933 -0.2939  0.0173  0.2169
  550loPI   C4A 8794  17.147   5.299   7.597 -0.1066 -0.0023  0.1710
  550loPI   C5A 8795  17.445   5.261   7.483  0.1666  0.0581  0.1225
  550loPI   C6A 8796  17.683   4.938   7.257  0.1189 -0.0722  0.1916
  550loPI   C1B 8797  16.395   5.561   8.596  0.0390 -0.4551  0.3108
  550loPI   C2B 8798  16.455   5.589   8.159  0.1146 -0.0955  0.0626
  550loPI   C3B 8799  16.489   5.710   7.746 -0.1430 -0.0250  0.0955
  550loPI   C4B 8800  16.479   5.753   7.238 -0.1703  0.2527  0.0650
  551loPI    C1 8801   3.941   4.788   9.691 -0.0913  0.0540 -0.1374
  551loPI    C2 8802   3.542   4.775   9.721 -0.0793  0.0205  0.0169
  551loPI    C3 8803   3.769   4.557   9.969  0.0383  0.1525  0.0272
  551loPI   PO4 8804   4.022   4.694   9.468 -0.1142 -0.1154  0.0195
  551loPI   GL1 8805   3.825   4.538   9.024  0.2230 -0.2363 -0.0936
  551loPI   GL2 8806   3.705   4.856   9.136  0.1557 -0.0310  0.1376
  551loPI   C1A 8807   3.540   4.333   8.738  0.0314 -0.2034  0.1150
  551loPI   C2A 8808   3.437   4.402   8.377 -0.0204 -0.2602  0.2857
  551loPI   C3A 8809   3.391   4.520   7.965 -0.1206  0.1518  0.0660
  551loPI   C4A 8810   3.262   4.674   7.546  0.5533 -0.0360 -0.2078
  551loPI   C5A 8811   3.082   4.596   7.135 -0.0335 -0.1583 -0.0898
  551loPI   C6A 8812   3.033   4.320   6.864  0.2645  0.3200  0.1741
  551loPI   C1B 8813   3.532   4.926   8.705  0.0119  0.0474  0.0807
  551loPI   C2B 8814   3.463   5.021   8.297  0.1158  0.2439 -0.2017
  551loPI   C3B 8815   3.506   5.072   7.828 -0.0395 -0.0105  0.0046
  551loPI   C4B 8816   3.649   5.041   7.373 -0.0203 -0.1776  0.0242
  552loPI    C1 8817  16.307   2.406   9.463 -0.0392 -0.0663  0.1799
  552loPI    C2 8818  16.680   2.305   9.357 -0.0562  0.2015 -0.1498
  552loPI    C3 8819  16.597   2.391   9.739  0.2202  0.1440 -0.0748
  552loPI   PO4 8820  16.216   2.268   9.302  0.0333  0.1694  0.0423
  552loPI   GL1 8821  16.106   2.400   8.967 -0.0353  0.0466  0.1856
  552loPI   GL2 8822  16.166   2.498   8.636 -0.2225  0.0119  0.1608
  552loPI   C1A 8823  16.099   2.025   8.676  0.0397 -0.0499 -0.1124
  552loPI   C2A 8824  16.129   2.036   8.193 -0.0124 -0.0201 -0.0959
  552loPI   C3A 8825  16.191   1.840   7.850 -0.0063 -0.7693 -0.0002
  552loPI   C4A 8826  16.185   1.944   7.477 -0.2214  0.0244 -0.2070
  552loPI   C5A 8827  16.246   2.250   7.207 -0.1414  0.1953  0.0008
  552loPI   C6A 8828  16.010   2.539   6.942  0.2551 -0.0907  0.0787
  552loPI   C1B 8829  16.499   2.301   8.353 -0.0426 -0.1006 -0.1947
  552loPI   C2B 8830  16.518   2.289   7.953  0.2395 -0.0444 -0.2199
  552loPI   C3B 8831  16.678   2.309   7.543 -0.2041  0.1588  0.0152
  552loPI   C4B 8832  16.826   2.568   7.169 -0.1486  0.1102 -0.0403
  553loPI    C1 8833  14.830  11.017   9.610 -0.1469  0.3155 -0.0471
  553loPI    C2 8834  15.060  11.066   9.934 -0.0640  0.2396 -0.0941
  553loPI    C3 8835  14.675  11.172   9.944 -0.1525 -0.0901  0.1445
  553loPI   PO4 8836  14.977  11.031   9.378 -0.3541 -0.2233  0.2338
  553loPI   GL1 8837  15.097  11.294   8.934 -0.1693  0.0847  0.0002
  553loPI   GL2 8838  15.240  11.679   9.049  0.0553 -0.2272  0.0612
  553loPI   C1A 8839  15.030  11.239   8.470 -0.2242 -0.0214  0.2255
  553loPI   C2A 8840  14.922  11.473   8.062  0.0278  0.2154 -0.5316
  553loPI   C3A 8841  14.918  11.542   7.717 -0.2923  0.0214 -0.2201
  553loPI   C4A 8842  15.086  11.814   7.326 -0.0588 -0.0910  0.3041
  553loPI   C5A 8843  15.205  12.001   7.019 -0.3332  0.5179 -0.1666
  553loPI   C6A 8844  15.561  12.179   6.990 -0.0578 -0.1312 -0.0956
  553loPI   C1B 8845  15.609  11.790   8.894  0.3181 -0.1953 -0.0818
  553loPI   C2B 8846  15.709  11.884   8.525 -0.3213 -0.4372  0.2424
  553loPI   C3B 8847  15.762  12.107   8.051 -0.0739 -0.0830  0.2540
  553loPI   C4B 8848  15.585  12.035   7.507  0.0120  0.0840  0.0165
  554loPI    C1 8849  11.951  13.110  10.034 -0.0723 -0.1974 -0.1325
  554loPI    C2 8850  12.278  13.183  10.253  0.0297 -0.2116 -0.2787
  554loPI    C3 8851  11.941  13.386  10.324  0.1551  0.0154 -0.3221
  554loPI   PO4 8852  12.082  13.204   9.770  0.2188  0.0675  0.3464
  554loPI   GL1 8853  12.007  13.181   9.221 -0.0662 -0.1783  0.1474
  554loPI   GL2 8854  12.270  13.299   9.230  0.0509  0.0521  0.2078
  554loPI   C1A 8855  11.975  13.232   8.779 -0.0356 -0.2300 -0.0533
  554loPI   C2A 8856  11.872  13.111   8.351  0.2018  0.1370 -0.1698
  554loPI   C3A 8857  11.857  13.147   7.931  0.1304 -0.1890 -0.0551
  554loPI   C4A 8858  11.697  12.985   7.505  0.1117  0.0789 -0.0212
  554loPI   C5A 8859  11.526  13.248   7.176  0.0667  0.3444 -0.0121
  554loPI   C6A 8860  11.208  13.419   6.956 -0.1339 -0.2393 -0.2011
  554loPI   C1B 8861  12.545  13.315   8.831 -0.0794  0.2095  0.3056
  554loPI   C2B 8862  12.662  13.325   8.342 -0.1262  0.4833  0.0801
  554loPI   C3B 8863  12.617  13.362   7.841  0.1207 -0.0169  0.1370
  554loPI   C4B 8864  12.690  13.408   7.412 -0.0424  0.1140 -0.0388
  555loPI    C1 8865  18.722   8.486   9.856  0.2624  0.1075 -0.0177
  555loPI    C2 8866  18.577   8.582  10.216 -0.0722 -0.0928 -0.0949
  555loPI    C3 8867  18.816   8.264  10.175  0.0096 -0.0384 -0.0418
  555loPI   PO4 8868  18.639   8.725   9.666  0.0442  0.0988 -0.2443
  555loPI   GL1 8869  18.689   8.980   9.498  0.1815 -0.1574 -0.1781
  555loPI   GL2 8870  18.872   8.716   9.257  0.1571 -0.3357  0.0734
  555loPI   C1A 8871  18.452   9.018   9.060 -0.3789  0.1634  0.1657
  555loPI   C2A 8872  18.651   9.094   8.592 -0.2098  0.0572  0.0873
  555loPI   C3A 8873  18.592   8.836   8.229 -0.0359  0.2066 -0.3035
  555loPI   C4A 8874  18.559   8.875   7.802 -0.2173  0.0772 -0.0105
  555loPI   C5A 8875  18.143   8.774   7.600 -0.0673  0.2198 -0.0066
  555loPI   C6A 8876  17.762   8.700   7.623 -0.0199 -0.1266 -0.0084
  555loPI   C1B 8877  19.014   8.626   8.795  0.1188  0.0439  0.0584
  555loPI   C2B 8878  19.020   8.692   8.449  0.0110 -0.2879 -0.3050
  555loPI   C3B 8879  19.053   9.087   8.208  0.2539 -0.0749 -0.1910
  555loPI   C4B 8880  19.129   9.085   7.829  0.1125  0.1687  0.2293
  556loPI    C1 8881   1.330   1.018   9.796  0.0429  0.1009  0.0894
  556loPI    C2 8882   1.299   1.413   9.851 -0.0233  0.0690  0.2872
  556loPI    C3 8883   1.176   1.161  10.137 -0.2328 -0.1001  0.0525
  556loPI   PO4 8884   1.414   1.036   9.505  0.0181 -0.1172  0.4475
  556loPI   GL1 8885   1.362   0.616   9.287 -0.1476 -0.1047  0.0865
  556loPI   GL2 8886   1.666   0.723   9.094 -0.0219  0.0743 -0.0876
  556loPI   C1A 8887   1.114   0.577   8.826  0.0627 -0.0950  0.0530
  556loPI   C2A 8888   1.091   0.474   8.372  0.4647 -0.1500  0.1396
  556loPI   C3A 8889   1.245   0.516   7.972  0.1258  0.2083  0.0860
  556loPI   C4A 8890   1.569   0.552   7.715 -0.0886  0.0957  0.1642
  556loPI   C5A 8891   1.542   0.458   7.318  0.4150  0.5670 -0.0540
  556loPI   C6A 8892   1.740   0.488   6.898 -0.1911  0.0667  0.1722
  556loPI   C1B 8893   1.662   0.595   8.587  0.3645  0.1784 -0.1220
  556loPI   C2B 8894   1.793   0.665   8.109 -0.0502  0.1989 -0.0437
  556loPI   C3B 8895   1.906   0.886   7.772 -0.2570 -0.0244 -0.1590
  556loPI   C4B 8896   2.000   0.617   7.361 -0.2809  0.1261 -0.2352
  557loPI    C1 8897   5.358  11.329   9.786  0.0997 -0.0174  0.2418
  557loPI    C2 8898   5.305  11.720   9.723 -0.0145 -0.0945 -0.1697
  557loPI    C3 8899   5.090  11.532  10.003 -0.1538  0.0837 -0.1549
  557loPI   PO4 8900   5.383  11.253   9.559  0.1561 -0.0161 -0.2288
  557loPI   GL1 8901   5.353  11.023   9.210 -0.1081  0.0573  0.3135
  557loPI   GL2 8902   5.543  11.267   9.052  0.1852 -0.0133 -0.0723
  557loPI   C1A 8903   5.327  10.736   8.861  0.1658 -0.2190  0.1354
  557loPI   C2A 8904   5.064  10.698   8.486  0.1830  0.0318 -0.0537
  557loPI   C3A 8905   5.018  10.887   8.013 -0.2789 -0.4507 -0.0280
  557loPI   C4A 8906   4.899  11.142   7.669 -0.0726  0.0620  0.1748
  557loPI   C5A 8907   5.169  11.500   7.468  0.0617 -0.2448 -0.0566
  557loPI   C6A 8908   5.197  12.036   7.429 -0.0955  0.2340  0.0387
  557loPI   C1B 8909   5.466  11.172   8.671 -0.0959 -0.3427  0.0628
  557loPI   C2B 8910   5.453  10.978   8.297 -0.3589  0.2452 -0.0610
  557loPI   C3B 8911   5.562  11.096   7.928 -0.0307  0.0798  0.0735
  557loPI   C4B 8912   5.375  11.079   7.538 -0.1451  0.0894 -0.1393
  558loPI    C1 8913   6.046  11.047   9.602  0.0789 -0.2206  0.2756
  558loPI    C2 8914   5.834  11.232   9.886  0.1576  0.1965  0.0707
  558loPI    C3 8915   6.192  11.077   9.973  0.1932  0.3460  0.1943
  558loPI   PO4 8916   5.834  10.958   9.457 -0.0203 -0.2541  0.0615
  558loPI   GL1 8917   5.817  10.835   8.964 -0.2030 -0.0491  0.1638
  558loPI   GL2 8918   5.756  10.566   9.081 -0.0766 -0.0256  0.1373
  558loPI   C1A 8919   5.903  11.075   8.607 -0.1619 -0.0796  0.1723
  558loPI   C2A 8920   6.231  11.299   8.346  0.0641  0.0824  0.1172
  558loPI   C3A 8921   6.269  11.667   8.092  0.1653  0.1339  0.0249
  558loPI   C4A 8922   6.607  11.832   7.728 -0.4956  0.2776  0.3178
  558loPI   C5A 8923   6.717  11.767   7.193 -0.2764  0.1817 -0.1061
  558loPI   C6A 8924   6.849  11.672   6.734  0.2911 -0.2837 -0.1688
  558loPI   C1B 8925   5.744  10.468   8.641  0.1465  0.0221 -0.1035
  558loPI   C2B 8926   5.641  10.491   8.211 -0.3814 -0.0180 -0.1543
  558loPI   C3B 8927   5.526  10.609   7.762  0.1411  0.0055 -0.0389
  558loPI   C4B 8928   5.071  10.525   7.535 -0.4775  0.1027 -0.0287
  559loPI    C1 8929   9.772  13.365  10.304 -0.1941 -0.5125  0.1602
  559loPI    C2 8930  10.071  13.189  10.502  0.1300 -0.0080  0.1370
  559loPI    C3 8931   9.849  13.468  10.683 -0.0962 -0.1226  0.0392
  559loPI   PO4 8932   9.960  13.437  10.013 -0.0931  0.0438  0.1729
  559loPI   GL1 8933   9.892  13.163   9.586  0.3189  0.1601  0.2488
  559loPI   GL2 8934   9.780  13.358   9.384  0.2037 -0.0386  0.1785
  559loPI   C1A 8935  10.236  12.998   9.277  0.0991  0.0554 -0.1246
  559loPI   C2A 8936  10.413  13.109   8.873 -0.2023  0.0307 -0.0797
  559loPI   C3A 8937  10.042  13.167   8.548  0.0199  0.2446  0.2775
  559loPI   C4A 8938  10.079  13.116   8.067  0.2454 -0.0979  0.1953
  559loPI   C5A 8939   9.953  12.912   7.624 -0.0272 -0.0804  0.1084
  559loPI   C6A 8940   9.785  12.690   7.288 -0.1357 -0.1639 -0.0586
  559loPI   C1B 8941   9.842  13.239   9.045 -0.1174 -0.5538 -0.3044
  559loPI   C2B 8942   9.971  12.730   8.835  0.2214 -0.1613 -0.0612
  559loPI   C3B 8943   9.817  12.676   8.393 -0.2357 -0.1000  0.1259
  559loPI   C4B 8944   9.640  12.703   7.970  0.2497 -0.5451  0.1305
  560loPI    C1 8945  17.444  15.765   9.671 -0.0676 -0.2231  0.1508
  560loPI    C2 8946  17.088  15.675   9.512 -0.0325 -0.0359 -0.0380
  560loPI    C3 8947  17.192  15.524   9.868 -0.3452 -0.0037  0.0704
  560loPI   PO4 8948  17.494  15.972   9.569  0.1292  0.0293  0.0523
  560loPI   GL1 8949  17.626  16.164   9.157 -0.2754  0.2646 -0.1379
  560loPI   GL2 8950  17.488  16.476   9.162 -0.3215 -0.1943 -0.1355
  560loPI   C1A 8951  17.370  16.186   8.727 -0.0003 -0.0486  0.2944
  560loPI   C2A 8952  17.220  16.121   8.397 -0.2575  0.1272  0.2343
  560loPI   C3A 8953  17.129  16.301   8.008 -0.0265 -0.0227  0.1377
  560loPI   C4A 8954  17.316  16.265   7.626 -0.3684  0.2626 -0.0067
  560loPI   C5A 8955  17.495  16.521   7.365  0.0394 -0.1364 -0.0987
  560loPI   C6A 8956  17.318  16.702   7.003 -0.1288 -0.0516 -0.0029
  560loPI   C1B 8957  17.600  16.655   8.789 -0.0725  0.2764 -0.1095
  560loPI   C2B 8958  17.404  16.611   8.333  0.1127 -0.1494  0.2734
  560loPI   C3B 8959  17.360  16.722   7.881 -0.1769  0.0945  0.1327
  560loPI   C4B 8960  17.069  16.749   7.492 -0.0468  0.1838 -0.1743
  561loPI    C1 8961   7.432  18.095   9.600  0.0790 -0.1491  0.0562
  561loPI    C2 8962   7.734  18.100   9.862  0.1033 -0.2368  0.0302
  561loPI    C3 8963   7.375  17.962   9.972 -0.0225  0.1789  0.1617
  561loPI   PO4 8964   7.491  18.109   9.383 -0.1341  0.2108  0.1622
  561loPI   GL1 8965   7.334  17.929   9.095  0.2458 -0.1043  0.1567
  561loPI   GL2 8966   7.168  17.737   9.281  0.0081  0.3592 -0.2643
  561loPI   C1A 8967   7.666  17.691   8.766  0.0966  0.0989 -0.2583
  561loPI   C2A 8968   7.836  17.523   8.390 -0.1363 -0.1561 -0.1111
  561loPI   C3A 8969   7.704  17.432   7.982  0.2783 -0.1111  0.0126
  561loPI   C4A 8970   7.630  16.968   7.827 -0.1808  0.2568  0.2445
  561loPI   C5A 8971   7.547  16.834   7.445 -0.4301 -0.0807  0.1840
  561loPI   C6A 8972   7.514  16.618   7.094 -0.2006  0.0104  0.2166
  561loPI   C1B 8973   7.195  17.488   8.859 -0.0277 -0.1347 -0.1138
  561loPI   C2B 8974   7.069  17.389   8.351  0.4026 -0.0320 -0.1226
  561loPI   C3B 8975   7.243  17.362   7.952 -0.3255 -0.1306 -0.5054
  561loPI   C4B 8976   7.422  17.346   7.548 -0.0322  0.0975 -0.0258
  562loPI    C1 8977  12.178  13.892   9.643  0.0964  0.0756 -0.0400
  562loPI    C2 8978  12.308  14.257   9.544  0.2196  0.0397 -0.0119
  562loPI    C3 8979  12.143  14.194   9.903  0.2120  0.0646 -0.0110
  562loPI   PO4 8980  12.378  13.690   9.561 -0.4175  0.2928 -0.4647
  562loPI   GL1 8981  12.547  13.706   9.169  0.2860  0.2539 -0.1832
  562loPI   GL2 8982  12.409  13.991   9.097 -0.2739 -0.2683  0.0319
  562loPI   C1A 8983  12.740  13.734   8.755 -0.0784  0.0893  0.1686
  562loPI   C2A 8984  12.683  13.851   8.303  0.1315 -0.3018 -0.0204
  562loPI   C3A 8985  12.646  13.899   7.827  0.1818  0.2033  0.1331
  562loPI   C4A 8986  12.484  14.136   7.439  0.2669 -0.1429 -0.1483
  562loPI   C5A 8987  12.327  14.471   7.525 -0.1518  0.0222 -0.2296
  562loPI   C6A 8988  12.280  14.911   7.298 -0.0703  0.1749 -0.3256
  562loPI   C1B 8989  12.703  14.232   8.723  0.1225 -0.0613 -0.1493
  562loPI   C2B 8990  12.696  14.342   8.288  0.3748 -0.0140 -0.1113
  562loPI   C3B 8991  12.551  14.663   8.048  0.0554 -0.0828 -0.0503
  562loPI   C4B 8992  12.685  14.889   7.659 -0.3213  0.1785 -0.0545
  563loPI    C1 8993   0.445  10.959  10.077  0.2162  0.1811  0.1668
  563loPI    C2 8994   0.833  11.039  10.130  0.2736 -0.0769  0.1495
  563loPI    C3 8995   0.719  10.679   9.997  0.0555  0.1412 -0.2740
  563loPI   PO4 8996   0.342  11.270   9.896  0.0068 -0.0792 -0.1595
  563loPI   GL1 8997   0.260  11.397   9.467  0.3102 -0.1315  0.0139
  563loPI   GL2 8998   0.517  11.589   9.429 -0.0911  0.2394 -0.0490
  563loPI   C1A 8999   0.440  11.311   9.039  0.2647 -0.1686  0.1009
  563loPI   C2A 9000   0.347  11.169   8.550 -0.1471 -0.4333 -0.1510
  563loPI   C3A 9001   0.367  11.212   8.029 -0.1097 -0.2595  0.2671
  563loPI   C4A 9002   0.307  11.256   7.621  0.0440  0.1219 -0.1439
  563loPI   C5A 9003   0.156  11.616   7.351  0.2990  0.1810 -0.1151
  563loPI   C6A 9004  -0.021  11.757   6.983  0.0871  0.1232  0.1813
  563loPI   C1B 9005   0.606  11.739   8.964 -0.3356 -0.1441 -0.1413
  563loPI   C2B 9006   0.457  11.657   8.671  0.2786  0.0782 -0.2461
  563loPI   C3B 9007   0.664  11.514   8.340  0.0419  0.1547 -0.1994
  563loPI   C4B 9008   0.786  11.445   7.879 -0.0876 -0.0795 -0.3770
  564loPI    C1 9009  10.083   1.141   9.466  0.0740 -0.1169  0.1237
  564loPI    C2 9010   9.761   1.378   9.491  0.0389 -0.1244 -0.2099
  564loPI    C3 9011  10.124   1.525   9.572 -0.0373 -0.0953  0.0905
  564loPI   PO4 9012   9.932   0.952   9.214  0.0049 -0.1648 -0.1867
  564loPI   GL1 9013  10.064   0.885   8.826 -0.0077 -0.0104  0.0281
  564loPI   GL2 9014  10.299   1.023   8.755  0.0844 -0.0116  0.0759
  564loPI   C1A 9015   9.964   0.746   8.407  0.3386  0.1250 -0.2855
  564loPI   C2A 9016   9.720   0.652   7.972 -0.0368  0.2462  0.0250
  564loPI   C3A 9017   9.747   0.518   7.565 -0.2086  0.2493 -0.0731
  564loPI   C4A 9018   9.752   0.328   7.202  0.1222 -0.1735 -0.1965
  564loPI   C5A 9019   9.852  -0.055   6.965 -0.1817 -0.3110  0.1886
  564loPI   C6A 9020   9.888  -0.441   6.827  0.3519 -0.1491  0.1447
  564loPI   C1B 9021  10.298   1.241   8.420  0.0953  0.2650 -0.0839
  564loPI   C2B 9022  10.476   1.455   8.004 -0.4475 -0.0093 -0.1677
  564loPI   C3B 9023  10.616   1.459   7.512  0.1150 -0.0721  0.2268
  564loPI   C4B 9024  10.645   1.555   7.058  0.0692 -0.0757  0.2058
  565loPI    C1 9025  17.608   0.083   9.335  0.0277 -0.0129  0.1966
  565loPI    C2 9026  17.265   0.137   9.137  0.1003  0.2160  0.1295
  565loPI    C3 9027  17.594   0.027   8.939  0.0745  0.0300  0.1887
  565loPI   PO4 9028  17.511  -0.224   9.472 -0.3356  0.0089 -0.1270
  565loPI   GL1 9029  17.408  -0.430   8.991 -0.1055 -0.0129  0.2719
  565loPI   GL2 9030  17.809  -0.408   9.104  0.2055  0.2501  0.0154
  565loPI   C1A 9031  17.247  -0.337   8.538 -0.0834  0.2616 -0.0843
  565loPI   C2A 9032  17.221  -0.493   8.139  0.1566  0.3986  0.0608
  565loPI   C3A 9033  17.082  -0.806   7.862 -0.1399  0.3829 -0.1637
  565loPI   C4A 9034  17.021  -0.929   7.524  0.0417 -0.0218 -0.1134
  565loPI   C5A 9035  17.083  -1.083   7.167 -0.3137  0.3716 -0.0759
  565loPI   C6A 9036  17.242  -1.176   6.762 -0.3077 -0.0668  0.2044
  565loPI   C1B 9037  17.757  -0.337   8.598  0.1161 -0.5013  0.3213
  565loPI   C2B 9038  17.733  -0.353   8.123 -0.0767 -0.1190 -0.0858
  565loPI   C3B 9039  17.996  -0.458   7.760 -0.0309 -0.1128  0.2640
  565loPI   C4B 9040  17.922  -0.777   7.401 -0.1922  0.0186  0.1290
  566loPI    C1 9041  17.852   2.868  10.010 -0.0689 -0.0014 -0.0477
  566loPI    C2 9042  17.695   2.545  10.186  0.0589 -0.0649 -0.0495
  566loPI    C3 9043  17.872   2.827  10.407 -0.2155  0.0952 -0.0293
  566loPI   PO4 9044  18.035   2.739   9.799 -0.2678 -0.1537 -0.2965
  566loPI   GL1 9045  17.998   2.556   9.306 -0.5405  0.1229  0.2359
  566loPI   GL2 9046  18.388   2.745   9.317 -0.3163 -0.1795 -0.1991
  566loPI   C1A 9047  18.053   2.520   8.893  0.0868  0.4114  0.0907
  566loPI   C2A 9048  17.799   2.689   8.601 -0.2573 -0.0353  0.0195
  566loPI   C3A 9049  17.808   2.883   8.176  0.0901 -0.0231 -0.0864
  566loPI   C4A 9050  17.683   3.096   7.845  0.2040  0.0712 -0.1064
  566loPI   C5A 9051  17.791   3.189   7.402  0.1758  0.1200 -0.0292
  566loPI   C6A 9052  18.165   3.038   7.227  0.0807 -0.0761 -0.0750
  566loPI   C1B 9053  18.188   2.997   9.009  0.2438  0.1289 -0.1268
  566loPI   C2B 9054  18.262   2.947   8.604  0.0786 -0.1079 -0.0100
  566loPI   C3B 9055  18.298   2.979   8.204  0.2396  0.1930 -0.2786
  566loPI   C4B 9056  18.181   2.976   7.715  0.0442 -0.0578 -0.1475
  567loPI    C1 9057  13.505  14.827   9.671  0.1049  0.2397 -0.4181
  567loPI    C2 9058  13.708  14.538   9.483  0.0899 -0.0416 -0.0132
  567loPI    C3 9059  13.895  14.778   9.743 -0.0619 -0.2184  0.2643
  567loPI   PO4 9060  13.342  14.861   9.552  0.1457  0.0796  0.0489
  567loPI   GL1 9061  13.035  14.905   9.173  0.0216  0.2299  0.1199
  567loPI   GL2 9062  13.189  15.124   8.916  0.5292  0.0377  0.3960
  567loPI   C1A 9063  12.807  14.747   8.728  0.2343 -0.0260 -0.1973
  567loPI   C2A 9064  12.718  15.001   8.367 -0.1459  0.3454 -0.2133
  567loPI   C3A 9065  12.317  15.139   7.964 -0.0847  0.3142 -0.2278
  567loPI   C4A 9066  11.942  15.098   7.742  0.2957 -0.2301  0.0074
  567loPI   C5A 9067  11.847  15.312   7.415 -0.4062  0.0982  0.4968
  567loPI   C6A 9068  11.795  15.488   7.038  0.3492  0.1539  0.2494
  567loPI   C1B 9069  13.414  15.376   8.572 -0.1828  0.1190  0.0247
  567loPI   C2B 9070  13.708  15.488   8.245  0.2346 -0.1112  0.1138
  567loPI   C3B 9071  13.559  15.577   7.818  0.0018  0.2880 -0.1376
  567loPI   C4B 9072  13.128  15.481   7.615 -0.1765  0.2483 -0.1570
  568loPI    C1 9073  16.228   3.736   9.456 -0.2255  0.2018 -0.1478
  568loPI    C2 9074  16.180   3.997   9.756 -0.0697  0.0615  0.0011
  568loPI    C3 9075  16.125   3.605   9.820  0.1290  0.0141 -0.1105
  568loPI   PO4 9076  16.179   3.931   9.220 -0.0533 -0.0379 -0.2474
  568loPI   GL1 9077  15.975   3.805   8.859 -0.1036 -0.3327  0.0704
  568loPI   GL2 9078  16.044   3.477   9.036  0.0166  0.1445 -0.0905
  568loPI   C1A 9079  15.768   3.738   8.485  0.1349 -0.1000  0.0126
  568loPI   C2A 9080  15.525   3.662   8.133 -0.1286  0.2282 -0.3326
  568loPI   C3A 9081  15.581   3.825   7.710  0.2115  0.0860 -0.0397
  568loPI   C4A 9082  15.498   4.132   7.408  0.0555  0.1133  0.1749
  568loPI   C5A 9083  15.539   4.488   7.271  0.1329 -0.1830  0.0146
  568loPI   C6A 9084  15.497   4.886   7.487  0.3436 -0.0521 -0.0054
  568loPI   C1B 9085  16.095   3.357   8.517  0.2193  0.1390  0.1392
  568loPI   C2B 9086  15.976   3.301   8.106  0.2721  0.3713  0.2235
  568loPI   C3B 9087  16.130   3.139   7.688  0.0836 -0.0763  0.1319
  568loPI   C4B 9088  16.415   3.282   7.288  0.1742  0.0180 -0.3424
  569loPI    C1 9089   7.130  12.030   9.477 -0.0642  0.0413  0.0860
  569loPI    C2 9090   7.287  11.807   9.770 -0.1465 -0.0109  0.0907
  569loPI    C3 9091   7.283  12.206   9.802 -0.0414 -0.0108  0.1036
  569loPI   PO4 9092   7.122  11.864   9.159  0.1085  0.2884  0.0814
  569loPI   GL1 9093   7.239  11.765   8.748 -0.1274  0.0971  0.0895
  569loPI   GL2 9094   7.203  11.462   8.780 -0.0197 -0.1641 -0.0821
  569loPI   C1A 9095   7.188  11.840   8.312  0.0470  0.2409  0.0098
  569loPI   C2A 9096   7.064  11.769   7.896 -0.0603  0.1419  0.0957
  569loPI   C3A 9097   7.094  11.494   7.461 -0.0414 -0.2051 -0.0871
  569loPI   C4A 9098   7.063  11.149   7.167 -0.3163 -0.0693  0.0170
  569loPI   C5A 9099   6.987  10.743   6.922  0.0114  0.2984  0.0598
  569loPI   C6A 9100   7.163  10.348   7.140 -0.4337 -0.0801  0.1588
  569loPI   C1B 9101   7.123  11.359   8.406 -0.1040  0.2225  0.1842
  569loPI   C2B 9102   7.326  11.142   8.084 -0.1405 -0.0736 -0.0166
  569loPI   C3B 9103   7.356  11.006   7.597  0.1434  0.3565  0.0497
  569loPI   C4B 9104   7.420  10.735   7.283  0.1416  0.1910  0.0139
  570loPI    C1 9105  11.008  10.800   9.718 -0.0017 -0.0215  0.0153
  570loPI    C2 9106  11.250  11.065   9.895 -0.0286 -0.0258  0.0589
  570loPI    C3 9107  11.251  10.683  10.013  0.1898 -0.0993 -0.1708
  570loPI   PO4 9108  10.958  10.948   9.517 -0.1777  0.2300 -0.3112
  570loPI   GL1 9109  10.892  10.872   9.004  0.2252 -0.6044 -0.1899
  570loPI   GL2 9110  11.066  10.647   8.873  0.2409  0.2907 -0.3662
  570loPI   C1A 9111  10.626  10.775   8.674 -0.1815 -0.0666  0.0258
  570loPI   C2A 9112  10.623  10.668   8.251  0.2091 -0.1099 -0.0174
  570loPI   C3A 9113  10.564  10.714   7.839 -0.0688 -0.2672  0.0612
  570loPI   C4A 9114  10.699  11.044   7.438  0.0131 -0.0322 -0.2368
  570loPI   C5A 9115  10.698  11.244   7.075  0.0541 -0.1058  0.1553
  570loPI   C6A 9116  10.431  11.285   6.678  0.0490  0.0462  0.0210
  570loPI   C1B 9117  11.044  10.431   8.497  0.1573 -0.0178 -0.2150
  570loPI   C2B 9118  11.026  10.255   8.130  0.2341  0.2289  0.1213
  570loPI   C3B 9119  11.190  10.268   7.726 -0.1536  0.0947  0.0777
  570loPI   C4B 9120  11.358  10.010   7.547  0.0855 -0.0647 -0.0921
  571loPI    C1 9121   3.571  18.654   9.711 -0.1342 -0.0183  0.1045
  571loPI    C2 9122   3.490  18.516  10.078 -0.0767  0.1023  0.1631
  571loPI    C3 9123   3.826  18.723  10.011 -0.0903  0.0865  0.0433
  571loPI   PO4 9124   3.428  18.645   9.582 -0.2213 -0.0122  0.3526
  571loPI   GL1 9125   3.271  18.818   9.118 -0.2182 -0.0813 -0.1713
  571loPI   GL2 9126   3.298  19.128   8.989  0.1756  0.2085  0.1379
  571loPI   C1A 9127   3.034  18.618   8.865  0.0164  0.2586  0.0071
  571loPI   C2A 9128   2.710  18.298   8.613  0.1849 -0.3403 -0.2113
  571loPI   C3A 9129   2.700  18.199   8.184 -0.1126  0.1160  0.1594
  571loPI   C4A 9130   2.596  18.040   7.753  0.0533  0.0862 -0.1352
  571loPI   C5A 9131   2.522  17.886   7.373 -0.0174  0.2201 -0.1188
  571loPI   C6A 9132   2.678  17.813   6.981  0.0691 -0.0042 -0.1851
  571loPI   C1B 9133   3.286  18.953   8.531 -0.4551 -0.1481  0.1353
  571loPI   C2B 9134   3.168  18.983   8.109 -0.1790 -0.0487  0.0301
  571loPI   C3B 9135   2.942  18.893   7.704 -0.1105 -0.2200  0.0398
  571loPI   C4B 9136   3.041  19.131   7.402  0.1087 -0.0716  0.1953
  572loPI    C1 9137   4.374   2.346   9.361  0.3641  0.0683  0.0647
  572loPI    C2 9138   4.272   2.729   9.304  0.3376  0.0538  0.0142
  572loPI    C3 9139   4.167   2.542   9.642 -0.0578 -0.0463 -0.1589
  572loPI   PO4 9140   4.247   2.204   9.184  0.0330 -0.1048  0.1455
  572loPI   GL1 9141   4.082   2.344   8.849 -0.0604  0.0020 -0.1069
  572loPI   GL2 9142   4.282   2.616   8.776  0.0234 -0.0393 -0.0934
  572loPI   C1A 9143   3.831   2.377   8.500  0.3653  0.0148 -0.1692
  572loPI   C2A 9144   3.726   2.467   8.105  0.0712  0.1311 -0.0225
  572loPI   C3A 9145   3.560   2.633   7.683  0.0080 -0.3887 -0.1850
  572loPI   C4A 9146   3.315   2.723   7.321  0.0508 -0.4675 -0.1311
  572loPI   C5A 9147   2.972   2.647   7.105 -0.0378 -0.1455 -0.1334
  572loPI   C6A 9148   3.059   2.449   6.761 -0.2144  0.0874  0.2117
  572loPI   C1B 9149   4.217   2.649   8.322  0.0618  0.0893 -0.1181
  572loPI   C2B 9150   4.200   2.717   7.916  0.1842  0.1212  0.0474
  572loPI   C3B 9151   4.058   2.870   7.526  0.0874 -0.0099 -0.1069
  572loPI   C4B 9152   3.850   2.741   7.228  0.3289 -0.1698 -0.1575
  573loPI    C1 9153   4.152   7.005   9.841  0.2152  0.0289 -0.1024
  573loPI    C2 9154   4.407   7.241  10.039  0.1073 -0.0553  0.1417
  573loPI    C3 9155   4.215   6.948  10.232 -0.0316 -0.1138 -0.0810
  573loPI   PO4 9156   4.181   7.084   9.539 -0.1534  0.0509 -0.0383
  573loPI   GL1 9157   4.060   6.979   9.121 -0.0166 -0.2100 -0.3048
  573loPI   GL2 9158   3.759   6.861   9.195  0.1434 -0.1609 -0.2805
  573loPI   C1A 9159   4.046   7.175   8.758 -0.1192  0.1030  0.0207
  573loPI   C2A 9160   4.190   7.347   8.412 -0.3153 -0.3586 -0.0089
  573loPI   C3A 9161   4.115   7.710   8.163  0.3611  0.4335 -0.2245
  573loPI   C4A 9162   4.259   7.954   7.853 -0.1909  0.1744 -0.0639
  573loPI   C5A 9163   4.589   8.114   7.472 -0.1169  0.1745  0.2240
  573loPI   C6A 9164   5.063   8.198   7.352  0.2888 -0.1300  0.0064
  573loPI   C1B 9165   3.651   6.811   8.849 -0.0327 -0.1398 -0.0756
  573loPI   C2B 9166   3.445   6.531   8.509  0.2306 -0.0619 -0.0815
  573loPI   C3B 9167   3.023   6.655   8.310 -0.0314  0.0698  0.0062
  573loPI   C4B 9168   2.974   6.312   8.164  0.0036 -0.0014 -0.0484
  574loPI    C1 9169  15.544   5.494   9.851  0.1967  0.0607 -0.0203
  574loPI    C2 9170  15.724   5.704  10.139 -0.0756  0.2694  0.0022
  574loPI    C3 9171  15.393   5.495  10.221  0.3089 -0.3542  0.0318
  574loPI   PO4 9172  15.677   5.506   9.610  0.2057  0.2712  0.0785
  574loPI   GL1 9173  15.367   5.471   9.105  0.2945  0.1599 -0.0366
  574loPI   GL2 9174  15.092   5.724   9.092 -0.0182 -0.0591  0.1600
  574loPI   C1A 9175  15.403   5.526   8.712  0.2192  0.1281 -0.0071
  574loPI   C2A 9176  15.167   5.509   8.310  0.1549 -0.1595 -0.1247
  574loPI   C3A 9177  15.108   5.530   7.906 -0.2284 -0.2842  0.5068
  574loPI   C4A 9178  15.106   5.460   7.455 -0.1475  0.0583 -0.0168
  574loPI   C5A 9179  15.035   5.075   7.163 -0.0894 -0.0987  0.1212
  574loPI   C6A 9180  15.026   4.647   7.108 -0.0242  0.1537  0.1401
  574loPI   C1B 9181  15.036   5.941   8.730 -0.2480 -0.0179 -0.1601
  574loPI   C2B 9182  15.069   6.242   8.362 -0.2917 -0.0574  0.0702
  574loPI   C3B 9183  15.391   6.336   8.126  0.1417  0.3002 -0.1144
  574loPI   C4B 9184  15.768   6.244   7.828  0.1639  0.0232  0.2503
  575loPI    C1 9185   0.209  12.333   9.921  0.0533  0.1002 -0.1001
  575loPI    C2 9186   0.273  12.679  10.112 -0.0722  0.0814 -0.0225
  575loPI    C3 9187  -0.044  12.454  10.206  0.1098 -0.1455  0.0575
  575loPI   PO4 9188   0.346  12.407   9.673 -0.2453 -0.4822  0.2171
  575loPI   GL1 9189   0.453  12.339   9.256  0.4157  0.0260  0.3047
  575loPI   GL2 9190   0.236  12.102   9.224 -0.3194 -0.0260 -0.0484
  575loPI   C1A 9191   0.630  12.224   8.882 -0.2942 -0.0438 -0.1916
  575loPI   C2A 9192   0.602  12.094   8.382 -0.1059 -0.1188  0.1890
  575loPI   C3A 9193   0.422  11.815   8.025  0.3291  0.3512  0.0039
  575loPI   C4A 9194   0.530  11.758   7.636  0.4148  0.0602  0.2454
  575loPI   C5A 9195   0.552  11.986   7.230 -0.1870  0.1343  0.1529
  575loPI   C6A 9196   0.815  12.022   6.950  0.3192  0.1192 -0.0398
  575loPI   C1B 9197   0.153  12.047   8.730  0.1885  0.2677  0.0231
  575loPI   C2B 9198  -0.031  11.967   8.302 -0.1387  0.2631  0.2194
  575loPI   C3B 9199  -0.158  11.877   7.848  0.1179  0.0495  0.3857
  575loPI   C4B 9200  -0.298  11.985   7.376 -0.2481 -0.0595 -0.1190
  576loPI    C1 9201   0.739   8.741   9.840 -0.0320  0.0821  0.0532
  576loPI    C2 9202   0.861   9.117   9.898 -0.0121  0.0831  0.0052
  576loPI    C3 9203   0.923   8.841  10.181  0.1396  0.0741 -0.0361
  576loPI   PO4 9204   0.668   8.799   9.607 -0.3913  0.0741  0.1610
  576loPI   GL1 9205   0.773   8.638   9.266  0.1844 -0.6283  0.0060
  576loPI   GL2 9206   0.513   8.400   9.238  0.3716  0.0373  0.1688
  576loPI   C1A 9207   1.020   8.717   8.966 -0.1074 -0.3295 -0.2921
  576loPI   C2A 9208   1.189   8.538   8.589 -0.0378  0.1265  0.0516
  576loPI   C3A 9209   1.414   8.540   8.237  0.0433  0.1092 -0.1538
  576loPI   C4A 9210   1.546   8.384   7.853  0.0009  0.3159  0.0530
  576loPI   C5A 9211   1.494   8.491   7.382 -0.3612 -0.4040 -0.2287
  576loPI   C6A 9212   1.173   8.380   7.069 -0.3096  0.1010  0.0112
  576loPI   C1B 9213   0.637   8.254   8.756 -0.0624  0.0365 -0.1997
  576loPI   C2B 9214   0.609   8.083   8.469 -0.2868  0.1087 -0.0985
  576loPI   C3B 9215   0.545   8.037   8.105  0.2759 -0.1467  0.1192
  576loPI   C4B 9216   0.727   7.996   7.704  0.1336 -0.1054  0.0263
  577loPI    C1 9217   0.366   9.273  10.065 -0.1670  0.0219  0.1099
  577loPI    C2 9218   0.435   8.960  10.304 -0.1325  0.1553  0.2760
  577loPI    C3 9219   0.643   9.299  10.353 -0.1320  0.1869  0.0626
  577loPI   PO4 9220   0.378   9.216   9.807 -0.1818  0.0770 -0.0550
  577loPI   GL1 9221   0.664   9.401   9.563 -0.1326 -0.4025  0.3589
  577loPI   GL2 9222   0.815   9.347   9.329  0.3744  0.0293 -0.3048
  577loPI   C1A 9223   0.286   9.544   9.249  0.4469  0.0106 -0.0590
  577loPI   C2A 9224   0.258   9.562   8.823 -0.1894  0.0969  0.1126
  577loPI   C3A 9225   0.383   9.620   8.480  0.1018  0.2527  0.2416
  577loPI   C4A 9226   0.289   9.974   8.231 -0.0254  0.0847  0.2335
  577loPI   C5A 9227   0.204  10.387   8.136 -0.2581  0.0492 -0.0808
  577loPI   C6A 9228   0.250  10.748   7.899  0.1100  0.0674  0.0494
  577loPI   C1B 9229   0.620   9.141   8.956 -0.0154  0.1833  0.0285
  577loPI   C2B 9230   0.796   9.128   8.592  0.2843 -0.2058 -0.1247
  577loPI   C3B 9231   1.020   8.966   8.265 -0.1020  0.4052  0.0723
  577loPI   C4B 9232   1.325   9.033   7.918  0.1064  0.1045  0.5853
  578loPI    C1 9233  14.627   4.704   9.856 -0.1370  0.0474  0.1051
  578loPI    C2 9234  14.920   4.639  10.121  0.0540 -0.0521 -0.1268
  578loPI    C3 9235  14.569   4.453  10.162  0.1278 -0.1685 -0.0172
  578loPI   PO4 9236  14.710   4.733   9.618  0.2123  0.1994 -0.0177
  578loPI   GL1 9237  14.643   4.583   9.183  0.0371 -0.2380  0.1671
  578loPI   GL2 9238  14.913   4.771   9.162 -0.2915  0.0649 -0.2428
  578loPI   C1A 9239  14.490   4.561   8.696 -0.0342  0.2962 -0.1599
  578loPI   C2A 9240  14.188   4.437   8.483  0.0562  0.1410  0.0384
  578loPI   C3A 9241  14.168   4.458   8.011 -0.2388  0.2760 -0.2431
  578loPI   C4A 9242  13.940   4.522   7.628  0.2262 -0.4903 -0.0318
  578loPI   C5A 9243  13.907   4.923   7.404  0.0052 -0.4310 -0.0413
  578loPI   C6A 9244  14.051   5.255   7.101 -0.1576  0.2868 -0.0832
  578loPI   C1B 9245  15.188   4.566   8.836  0.2003  0.1077  0.0109
  578loPI   C2B 9246  15.420   4.488   8.466 -0.0867  0.4337 -0.1241
  578loPI   C3B 9247  15.472   4.196   8.171 -0.0255 -0.1353 -0.1184
  578loPI   C4B 9248  15.717   4.397   7.924  0.1990  0.3821 -0.0819
  579loPI    C1 9249  12.515   2.550   9.431  0.0378 -0.0639 -0.1074
  579loPI    C2 9250  12.716   2.326   9.695  0.1295  0.1220 -0.0175
  579loPI    C3 9251  12.359   2.477   9.792  0.0744  0.0289 -0.0728
  579loPI   PO4 9252  12.612   2.739   9.337 -0.0768  0.0512  0.2879
  579loPI   GL1 9253  12.767   3.024   9.053  0.0783 -0.0688 -0.1534
  579loPI   GL2 9254  13.045   2.958   9.006  0.4162  0.2044  0.1468
  579loPI   C1A 9255  12.641   3.091   8.648  0.4621  0.4014 -0.4425
  579loPI   C2A 9256  12.646   3.074   8.257  0.3308 -0.2126  0.0212
  579loPI   C3A 9257  12.571   3.137   7.776 -0.0718 -0.1242  0.2310
  579loPI   C4A 9258  12.862   3.187   7.479  0.2057  0.2983  0.0146
  579loPI   C5A 9259  13.093   3.483   7.381 -0.1719 -0.1254  0.1785
  579loPI   C6A 9260  13.558   3.673   7.331 -0.0340 -0.1163 -0.0627
  579loPI   C1B 9261  13.086   2.781   8.587  0.3925  0.1706  0.0165
  579loPI   C2B 9262  13.214   2.727   8.120  0.1293 -0.0813 -0.0984
  579loPI   C3B 9263  12.987   2.727   7.580  0.1618 -0.0001  0.0054
  579loPI   C4B 9264  12.975   2.610   7.218  0.0272  0.1706  0.3669
  580loPI    C1 9265  14.117  10.147   9.186  0.2836 -0.1243  0.0366
  580loPI    C2 9266  14.187  10.452   9.435  0.1680 -0.1632  0.1179
  580loPI    C3 9267  14.409  10.408   9.104  0.1544  0.0354  0.0809
  580loPI   PO4 9268  13.866  10.028   9.112 -0.2448  0.2394  0.0019
  580loPI   GL1 9269  13.710  10.006   8.744 -0.1449 -0.0631  0.0223
  580loPI   GL2 9270  14.051  10.034   8.615  0.0644 -0.2170 -0.0670
  580loPI   C1A 9271  13.564   9.982   8.344 -0.1018 -0.1511 -0.2169
  580loPI   C2A 9272  13.574  10.024   7.924  0.4276 -0.0868 -0.1041
  580loPI   C3A 9273  13.748  10.125   7.644 -0.0320 -0.1808  0.1469
  580loPI   C4A 9274  13.978  10.473   7.319  0.0150  0.1671 -0.1310
  580loPI   C5A 9275  14.196  10.823   7.160  0.0972  0.1085  0.0421
  580loPI   C6A 9276  14.265  11.086   6.880  0.2721 -0.2638 -0.0838
  580loPI   C1B 9277  13.999  10.204   8.182 -0.1191 -0.2990 -0.3260
  580loPI   C2B 9278  14.243  10.197   7.820  0.2559  0.0677 -0.2729
  580loPI   C3B 9279  14.219  10.011   7.432 -0.2134 -0.2916  0.1069
  580loPI   C4B 9280  14.205  10.174   6.995  0.3935  0.0673  0.1818
  581loPI    C1 9281   1.912   3.006   9.858 -0.1217  0.3791 -0.2975
  581loPI    C2 9282   1.594   3.185  10.021 -0.1338 -0.0911  0.2269
  581loPI    C3 9283   1.958   3.249  10.172 -0.0657 -0.0810  0.0606
  581loPI   PO4 9284   1.835   2.959   9.517 -0.3493 -0.2320  0.0187
  581loPI   GL1 9285   1.608   3.133   9.202  0.2070 -0.0466 -0.1261
  581loPI   GL2 9286   1.740   2.802   9.007 -0.0162 -0.2964 -0.3177
  581loPI   C1A 9287   1.304   3.376   8.871 -0.4203 -0.0028  0.0596
  581loPI   C2A 9288   1.298   3.530   8.405 -0.0134  0.0898  0.2977
  581loPI   C3A 9289   1.456   3.753   8.036  0.1486  0.0042  0.1491
  581loPI   C4A 9290   1.622   4.019   7.928  0.2301  0.1458 -0.0440
  581loPI   C5A 9291   1.991   4.230   7.799 -0.0851 -0.0270  0.1497
  581loPI   C6A 9292   2.121   4.267   7.363  0.0108  0.0712 -0.0255
  581loPI   C1B 9293   1.689   2.679   8.660  0.0842  0.1670  0.0397
  581loPI   C2B 9294   1.485   2.495   8.195  0.2225  0.1142 -0.0905
  581loPI   C3B 9295   1.496   2.425   7.734  0.0056 -0.2015 -0.0327
  581loPI   C4B 9296   1.360   2.739   7.344 -0.1290 -0.2464  0.2660
  582loPI    C1 9297   0.785  18.041   9.577 -0.1086  0.0517 -0.0922
  582loPI    C2 9298   0.582  18.030   9.921  0.0214 -0.1141 -0.0192
  582loPI    C3 9299   0.926  17.829   9.886  0.0072 -0.1006 -0.2477
  582loPI   PO4 9300   0.650  17.960   9.351  0.1914 -0.0690 -0.2031
  582loPI   GL1 9301   0.737  17.993   8.909 -0.0103  0.1647 -0.0077
  582loPI   GL2 9302   0.996  17.844   9.011  0.1100 -0.2671  0.2888
  582loPI   C1A 9303   0.737  17.955   8.460 -0.1026 -0.0419  0.1431
  582loPI   C2A 9304   0.839  17.755   8.221  0.1513 -0.2736  0.1461
  582loPI   C3A 9305   0.715  17.633   7.855  0.0882  0.1117 -0.1919
  582loPI   C4A 9306   0.298  17.549   7.577  0.1556  0.1604  0.0521
  582loPI   C5A 9307   0.308  17.447   7.104 -0.3843 -0.1395 -0.1785
  582loPI   C6A 9308   0.299  17.080   6.794 -0.0653  0.0170 -0.2563
  582loPI   C1B 9309   1.284  17.933   8.681  0.0761 -0.1182  0.1868
  582loPI   C2B 9310   1.207  18.190   8.229  0.1178  0.0420 -0.2060
  582loPI   C3B 9311   1.326  18.358   7.877 -0.1671  0.0949  0.1059
  582loPI   C4B 9312   1.437  18.206   7.374  0.0189 -0.4306 -0.0319
  583loPI    C1 9313   3.388  16.906   9.710 -0.0732  0.1619 -0.0993
  583loPI    C2 9314   3.431  16.567   9.918  0.1558  0.0592 -0.3092
  583loPI    C3 9315   3.071  16.740   9.891  0.1129  0.0515  0.1307
  583loPI   PO4 9316   3.625  16.858   9.570  0.0133  0.1437 -0.0310
  583loPI   GL1 9317   3.765  16.837   9.104  0.3180  0.2225 -0.2726
  583loPI   GL2 9318   4.042  16.845   9.255 -0.0380  0.1946  0.0214
  583loPI   C1A 9319   3.683  16.808   8.564  0.0702  0.1924 -0.1877
  583loPI   C2A 9320   3.753  16.736   8.123  0.0696  0.0927 -0.1094
  583loPI   C3A 9321   3.765  16.756   7.665  0.1344 -0.0037 -0.0340
  583loPI   C4A 9322   3.869  16.688   7.269  0.0026  0.0956  0.1670
  583loPI   C5A 9323   4.044  16.817   6.970 -0.1593 -0.1798 -0.1200
  583loPI   C6A 9324   4.113  16.813   6.565 -0.2077 -0.0077  0.2409
  583loPI   C1B 9325   3.989  16.485   8.835  0.2540  0.2625  0.0266
  583loPI   C2B 9326   3.802  16.325   8.468 -0.2827 -0.0886 -0.1137
  583loPI   C3B 9327   3.823  16.163   8.042  0.1174 -0.0386 -0.0752
  583loPI   C4B 9328   3.622  15.845   7.823 -0.0496  0.1331  0.2080
  584loPI    C1 9329  17.068   0.493   9.590  0.1002  0.1258  0.0238
  584loPI    C2 9330  16.968   0.108   9.631  0.1775  0.0889 -0.1260
  584loPI    C3 9331  17.335   0.231   9.732  0.1244  0.1405  0.0057
  584loPI   PO4 9332  16.994   0.578   9.358 -0.0096 -0.0367  0.0668
  584loPI   GL1 9333  16.842   0.794   9.002  0.0311  0.2730  0.0496
  584loPI   GL2 9334  16.972   0.492   8.809  0.2294 -0.0708 -0.2764
  584loPI   C1A 9335  17.052   0.952   8.577  0.2582 -0.1059 -0.0830
  584loPI   C2A 9336  17.338   0.891   8.215  0.4930  0.0436  0.2044
  584loPI   C3A 9337  17.534   0.804   7.795 -0.1618 -0.2454 -0.2496
  584loPI   C4A 9338  17.880   0.640   7.597 -0.3768  0.0294  0.2287
  584loPI   C5A 9339  18.062   0.344   7.298  0.0951  0.0804 -0.1215
  584loPI   C6A 9340  18.166   0.015   7.068  0.2572  0.3041  0.1254
  584loPI   C1B 9341  17.209   0.177   8.686  0.0575 -0.1533  0.1919
  584loPI   C2B 9342  17.367   0.062   8.244  0.0891 -0.1860 -0.0407
  584loPI   C3B 9343  17.348  -0.073   7.858 -0.1259  0.2821  0.0830
  584loPI   C4B 9344  17.143  -0.339   7.637 -0.0643  0.0137  0.0140
  585loPI    C1 9345  13.751  10.284   9.596  0.1719 -0.1153  0.0905
  585loPI    C2 9346  13.567  10.302   9.951 -0.0190  0.1265 -0.0180
  585loPI    C3 9347  13.922  10.479   9.900 -0.0185  0.1410  0.0359
  585loPI   PO4 9348  13.554  10.264   9.374 -0.2234 -0.2328  0.1500
  585loPI   GL1 9349  13.492  10.384   8.963  0.1248 -0.0535  0.1325
  585loPI   GL2 9350  13.793  10.519   9.031  0.2362 -0.1515  0.0125
  585loPI   C1A 9351  13.399  10.338   8.588  0.1488 -0.0365 -0.1671
  585loPI   C2A 9352  13.598  10.506   8.224  0.0358  0.2536 -0.2799
  585loPI   C3A 9353  13.535  10.567   7.779  0.0447  0.2862  0.1272
  585loPI   C4A 9354  13.510  10.560   7.282  0.0715 -0.2243 -0.1867
  585loPI   C5A 9355  13.485  11.031   7.161  0.2077  0.0236 -0.0229
  585loPI   C6A 9356  13.402  11.445   7.340  0.1112 -0.3628 -0.0674
  585loPI   C1B 9357  13.877  10.545   8.617 -0.4342 -0.2136 -0.0070
  585loPI   C2B 9358  14.047  10.857   8.339 -0.0064  0.1655 -0.0001
  585loPI   C3B 9359  13.955  10.872   7.923  0.2350 -0.0278  0.0876
  585loPI   C4B 9360  13.846  10.884   7.505 -0.0907  0.0122 -0.1470
  586loPI    C1 9361  13.176   5.795   9.843 -0.0746 -0.0604 -0.2911
  586loPI    C2 9362  13.023   5.440   9.945  0.1672 -0.1018 -0.0615
  586loPI    C3 9363  13.400   5.529  10.041  0.0064  0.3473  0.1838
  586loPI   PO4 9364  13.155   5.803   9.636  0.1647 -0.0141  0.5072
  586loPI   GL1 9365  12.992   5.884   9.258  0.0006 -0.2206 -0.0403
  586loPI   GL2 9366  13.309   5.854   9.172 -0.0224 -0.1226 -0.0562
  586loPI   C1A 9367  12.793   5.691   8.962  0.1904  0.1498  0.0962
  586loPI   C2A 9368  12.456   5.571   8.744 -0.1206 -0.4474  0.3590
  586loPI   C3A 9369  12.305   5.249   8.434 -0.0491 -0.0801  0.2537
  586loPI   C4A 9370  12.302   5.234   8.034  0.0417  0.0086 -0.0463
  586loPI   C5A 9371  12.148   5.250   7.635  0.1267  0.0820 -0.4029
  586loPI   C6A 9372  12.104   5.014   7.256  0.0970 -0.2091 -0.0738
  586loPI   C1B 9373  13.475   5.722   8.795 -0.5404 -0.0251 -0.0138
  586loPI   C2B 9374  13.695   5.846   8.409  0.1570  0.1637 -0.0908
  586loPI   C3B 9375  14.133   5.901   8.210 -0.3139 -0.2153  0.0448
  586loPI   C4B 9376  14.483   6.139   7.968  0.2304 -0.0677  0.0888
  587loPI    C1 9377   0.302  13.991   9.659 -0.2406 -0.0142 -0.0785
  587loPI    C2 9378   0.131  14.346   9.727  0.1816  0.1732  0.0367
  587loPI    C3 9379   0.452  14.321   9.490  0.0773 -0.1534 -0.0752
  587loPI   PO4 9380   0.111  13.847   9.558  0.0796  0.4361  0.0181
  587loPI   GL1 9381  -0.105  13.692   9.157 -0.4293 -0.1546 -0.2436
  587loPI   GL2 9382  -0.179  13.418   8.992 -0.1323  0.0813  0.2209
  587loPI   C1A 9383   0.109  13.858   8.906 -0.0557 -0.0919  0.0129
  587loPI   C2A 9384   0.152  13.820   8.461 -0.2672 -0.0116  0.2734
  587loPI   C3A 9385   0.140  13.521   8.186 -0.0977 -0.0040  0.0450
  587loPI   C4A 9386   0.113  13.297   7.788 -0.2504 -0.1986  0.2468
  587loPI   C5A 9387   0.182  13.175   7.415  0.0067 -0.1009  0.3155
  587loPI   C6A 9388  -0.056  12.778   7.244 -0.4815  0.2059  0.3127
  587loPI   C1B 9389  -0.089  13.340   8.584 -0.1191 -0.0396 -0.2571
  587loPI   C2B 9390  -0.193  13.061   8.280 -0.2476 -0.0800 -0.1099
  587loPI   C3B 9391  -0.146  12.892   7.967 -0.0490  0.2646  0.2883
  587loPI   C4B 9392   0.154  12.726   7.710  0.1215 -0.1001  0.3378
  588loPI    C1 9393   7.297  13.286   9.593 -0.1167 -0.1094 -0.1506
  588loPI    C2 9394   7.371  13.170   9.968 -0.1050  0.1053 -0.0853
  588loPI    C3 9395   6.996  13.247   9.853 -0.0734  0.3671 -0.0197
  588loPI   PO4 9396   7.423  13.429   9.497 -0.0048  0.0157 -0.1853
  588loPI   GL1 9397   7.269  13.599   9.150 -0.1786 -0.1769 -0.0583
  588loPI   GL2 9398   6.975  13.394   9.221 -0.0182  0.0817 -0.2353
  588loPI   C1A 9399   7.557  13.456   8.739 -0.1044 -0.2943  0.0175
  588loPI   C2A 9400   7.436  13.629   8.399  0.0055 -0.0446 -0.1112
  588loPI   C3A 9401   7.189  13.969   8.180  0.0106  0.0104 -0.0031
  588loPI   C4A 9402   6.724  13.979   8.011  0.2103 -0.0238  0.0228
  588loPI   C5A 9403   6.660  13.888   7.523 -0.1548 -0.1127  0.0790
  588loPI   C6A 9404   6.527  13.994   7.130 -0.0930  0.1228  0.1670
  588loPI   C1B 9405   7.093  13.283   8.705  0.0510 -0.0514 -0.1051
  588loPI   C2B 9406   6.906  13.576   8.335  0.1863  0.0206 -0.2762
  588loPI   C3B 9407   6.857  13.492   7.914  0.1622 -0.2300 -0.1746
  588loPI   C4B 9408   6.938  13.453   7.432  0.1626 -0.2577  0.0457
  589loPI    C1 9409  13.585   6.154   9.813 -0.1248  0.0607 -0.0652
  589loPI    C2 9410  13.664   6.392  10.124 -0.0547 -0.1749  0.1002
  589loPI    C3 9411  13.463   6.050  10.180  0.0720 -0.2823 -0.0922
  589loPI   PO4 9412  13.512   6.176   9.576 -0.1158  0.1753 -0.3118
  589loPI   GL1 9413  13.669   6.182   9.219 -0.0698  0.2883 -0.2526
  589loPI   GL2 9414  13.868   5.860   9.027 -0.0308 -0.0208  0.2346
  589loPI   C1A 9415  13.620   6.272   8.816 -0.2983 -0.0957 -0.2957
  589loPI   C2A 9416  13.436   6.284   8.439  0.0142 -0.2665  0.1079
  589loPI   C3A 9417  13.587   6.298   8.045 -0.2132 -0.2727 -0.0591
  589loPI   C4A 9418  13.700   6.306   7.531 -0.0566  0.1826  0.0494
  589loPI   C5A 9419  13.983   6.071   7.224 -0.0072 -0.1337 -0.2699
  589loPI   C6A 9420  14.420   6.117   7.012  0.2108 -0.1873 -0.1238
  589loPI   C1B 9421  14.105   5.637   8.636  0.3476 -0.1229 -0.3573
  589loPI   C2B 9422  14.265   5.438   8.192 -0.3394  0.0605 -0.0998
  589loPI   C3B 9423  14.559   5.558   7.864  0.0694  0.3734 -0.1541
  589loPI   C4B 9424  14.653   5.737   7.494 -0.1492  0.1209  0.0524
  590loPI    C1 9425  16.121   1.243   9.465  0.1121  0.0609 -0.0211
  590loPI    C2 9426  16.014   0.858   9.452  0.1626  0.0513 -0.1758
  590loPI    C3 9427  16.155   1.015   9.792 -0.0814 -0.0055 -0.0455
  590loPI   PO4 9428  16.393   1.260   9.230  0.4604 -0.0134  0.2456
  590loPI   GL1 9429  16.528   1.136   8.824  0.0494 -0.0084 -0.2783
  590loPI   GL2 9430  16.345   0.828   8.904 -0.1779  0.1021 -0.2277
  590loPI   C1A 9431  16.471   1.284   8.392 -0.5082 -0.1786 -0.0105
  590loPI   C2A 9432  16.521   1.428   7.965  0.1890  0.2184 -0.2589
  590loPI   C3A 9433  16.867   1.344   7.650 -0.0427  0.0108 -0.2600
  590loPI   C4A 9434  17.017   1.142   7.301  0.0778  0.3800 -0.1757
  590loPI   C5A 9435  17.201   0.935   6.951 -0.2398 -0.1138  0.2253
  590loPI   C6A 9436  17.462   0.692   6.661  0.0598 -0.0527 -0.1141
  590loPI   C1B 9437  16.588   0.746   8.491  0.1284  0.1320  0.0312
  590loPI   C2B 9438  16.799   0.954   8.114  0.0481  0.1277  0.2517
  590loPI   C3B 9439  17.024   0.852   7.770  0.0801 -0.1105 -0.0370
  590loPI   C4B 9440  17.201   0.698   7.373  0.3846  0.4204  0.0697
  591loPI    C1 9441   2.555   6.926   9.627 -0.0788  0.0786  0.0617
  591loPI    C2 9442   2.632   6.640   9.895  0.0362  0.0800  0.0305
  591loPI    C3 9443   2.933   6.830   9.713 -0.0369 -0.2253 -0.4257
  591loPI   PO4 9444   2.424   6.710   9.361 -0.0175  0.0702  0.1496
  591loPI   GL1 9445   2.257   6.428   9.067 -0.1956 -0.4213  0.3241
  591loPI   GL2 9446   2.326   6.108   9.207  0.2256 -0.0767 -0.0279
  591loPI   C1A 9447   2.155   6.504   8.693  0.1344  0.1213  0.0113
  591loPI   C2A 9448   1.883   6.536   8.345  0.2786 -0.2391  0.1349
  591loPI   C3A 9449   2.112   6.597   7.904  0.1947 -0.4444 -0.1812
  591loPI   C4A 9450   2.398   6.305   7.833 -0.1532  0.3071  0.2959
  591loPI   C5A 9451   2.658   6.311   7.537 -0.1577 -0.0296 -0.3120
  591loPI   C6A 9452   2.938   6.254   7.186  0.0272 -0.0730 -0.0398
  591loPI   C1B 9453   2.234   6.017   8.781  0.0726 -0.1507 -0.3646
  591loPI   C2B 9454   2.354   6.223   8.380  0.0264 -0.0721  0.0077
  591loPI   C3B 9455   2.428   6.614   8.268 -0.0726 -0.1051  0.1621
  591loPI   C4B 9456   2.720   6.677   7.901 -0.1014 -0.1212  0.0008
  592loPI    C1 9457   2.798  13.846  10.056 -0.1182  0.1212 -0.1070
  592loPI    C2 9458   2.830  14.241  10.114 -0.0996  0.1693 -0.4268
  592loPI    C3 9459   3.061  13.989  10.321 -0.2489  0.3125 -0.0783
  592loPI   PO4 9460   2.802  13.894   9.733  0.1233 -0.1715  0.2483
  592loPI   GL1 9461   2.456  13.977   9.385 -0.3876  0.3443  0.0530
  592loPI   GL2 9462   2.405  13.749   9.202  0.1434  0.0389  0.0079
  592loPI   C1A 9463   2.537  14.177   8.860  0.4067  0.1412  0.0931
  592loPI   C2A 9464   2.641  14.102   8.481  0.1269 -0.1631 -0.1450
  592loPI   C3A 9465   2.727  13.840   8.151  0.0850 -0.0819  0.0702
  592loPI   C4A 9466   2.597  13.775   7.782  0.0235  0.1223  0.4708
  592loPI   C5A 9467   2.539  13.626   7.326  0.4197 -0.1295  0.0229
  592loPI   C6A 9468   2.536  13.417   6.969 -0.1160 -0.4138 -0.1261
  592loPI   C1B 9469   2.595  13.714   8.878  0.1040  0.0025  0.0545
  592loPI   C2B 9470   2.351  13.711   8.445  0.0463  0.0342  0.0069
  592loPI   C3B 9471   2.357  13.394   8.186  0.2539  0.1538  0.2111
  592loPI   C4B 9472   2.309  13.367   7.745 -0.1569 -0.0750 -0.2781
  593loPI    C1 9473   1.117  19.108   9.562  0.0988  0.0303 -0.0716
  593loPI    C2 9474   1.166  18.725   9.458 -0.0381 -0.0149  0.0268
  593loPI    C3 9475   1.329  18.862   9.796 -0.2452 -0.0643  0.1481
  593loPI   PO4 9476   1.199  19.356   9.429 -0.0674  0.0554  0.4863
  593loPI   GL1 9477   1.013  19.375   8.991 -0.3462 -0.0820 -0.4669
  593loPI   GL2 9478   0.755  19.297   8.798  0.0014  0.2042  0.4363
  593loPI   C1A 9479   1.115  19.274   8.466 -0.0203  0.0511 -0.1229
  593loPI   C2A 9480   1.204  19.241   8.074 -0.0500  0.2249 -0.0802
  593loPI   C3A 9481   1.324  19.180   7.524 -0.0175 -0.0062 -0.1000
  593loPI   C4A 9482   1.109  18.909   7.237  0.4057  0.1554 -0.1807
  593loPI   C5A 9483   1.298  18.586   6.963  0.1135  0.0995  0.5165
  593loPI   C6A 9484   1.310  18.714   6.553 -0.0645 -0.0435 -0.1246
  593loPI   C1B 9485   0.556  19.213   8.353  0.0851 -0.0069 -0.0496
  593loPI   C2B 9486   0.591  19.249   7.945  0.2142 -0.0532 -0.1519
  593loPI   C3B 9487   0.685  19.125   7.608  0.1860 -0.1272 -0.4154
  593loPI   C4B 9488   0.727  19.157   7.131 -0.1408  0.0855  0.0838
  594loPI    C1 9489  17.288   4.411   9.925  0.0934 -0.2438 -0.1372
  594loPI    C2 9490  17.059   4.720  10.038 -0.0267 -0.3243 -0.1588
  594loPI    C3 9491  17.015   4.363  10.214  0.0806 -0.3410 -0.1654
  594loPI   PO4 9492  17.453   4.596   9.658  0.0821  0.1461  0.1782
  594loPI   GL1 9493  17.402   4.737   9.240 -0.1464 -0.0316  0.1168
  594loPI   GL2 9494  17.185   4.897   9.053  0.0578 -0.1471  0.2207
  594loPI   C1A 9495  17.597   4.651   8.835  0.0249 -0.4159 -0.0398
  594loPI   C2A 9496  17.750   4.496   8.503  0.0377 -0.2611  0.1515
  594loPI   C3A 9497  17.794   4.392   8.128 -0.1767  0.1382  0.2377
  594loPI   C4A 9498  17.757   4.295   7.676 -0.2261  0.2283 -0.1397
  594loPI   C5A 9499  17.608   4.451   7.176  0.1169 -0.3957 -0.2024
  594loPI   C6A 9500  17.297   4.582   7.029 -0.1205 -0.4141  0.0817
  594loPI   C1B 9501  17.105   4.921   8.584  0.1736  0.2437  0.0820
  594loPI   C2B 9502  17.087   4.966   8.143 -0.1144 -0.2092  0.1610
  594loPI   C3B 9503  16.848   4.805   7.711 -0.0624  0.0940  0.0492
  594loPI   C4B 9504  16.883   4.826   7.232 -0.0562  0.0964 -0.0422
  595loPI    C1 9505   5.177  19.499   9.777  0.0164  0.0249 -0.0354
  595loPI    C2 9506   4.820  19.341   9.863  0.0395 -0.0267 -0.0336
  595loPI    C3 9507   5.033  19.521  10.149  0.1057 -0.1766  0.0118
  595loPI   PO4 9508   5.106  19.663   9.544  0.2076 -0.0327 -0.0386
  595loPI   GL1 9509   5.085  19.976   9.215  0.2598  0.0193  0.3643
  595loPI   GL2 9510   5.276  19.838   9.021  0.0130 -0.1993  0.0653
  595loPI   C1A 9511   5.215  20.366   8.915  0.1778 -0.3337 -0.1815
  595loPI   C2A 9512   5.429  20.591   8.684 -0.0005 -0.1637 -0.1214
  595loPI   C3A 9513   5.578  20.708   8.243  0.1056 -0.0939 -0.2903
  595loPI   C4A 9514   5.816  20.708   7.958 -0.1893 -0.0316 -0.0276
  595loPI   C5A 9515   5.875  20.682   7.475 -0.0281  0.0393 -0.0466
  595loPI   C6A 9516   5.633  20.864   7.209 -0.1522 -0.2689  0.2798
  595loPI   C1B 9517   5.450  20.043   8.658 -0.2790  0.1683 -0.4103
  595loPI   C2B 9518   5.397  20.180   8.300  0.0891  0.0447 -0.0422
  595loPI   C3B 9519   5.494  20.341   7.972  0.0364 -0.0623  0.2343
  595loPI   C4B 9520   5.427  20.615   7.574 -0.1376 -0.2232  0.1214
  596loPI    C1 9521  11.464  16.623   9.519  0.2342 -0.1533 -0.3216
  596loPI    C2 9522  11.735  16.671   9.810 -0.0250  0.1586 -0.1240
  596loPI    C3 9523  11.849  16.537   9.450  0.3712  0.1854 -0.0136
  596loPI   PO4 9524  11.264  16.826   9.502 -0.2440  0.0095  0.1942
  596loPI   GL1 9525  11.103  17.004   9.174 -0.0241 -0.0813 -0.1860
  596loPI   GL2 9526  10.749  17.232   9.136 -0.2854 -0.4287  0.1690
  596loPI   C1A 9527  11.386  16.805   8.911 -0.0915  0.1180 -0.3009
  596loPI   C2A 9528  11.660  16.859   8.503  0.0706 -0.0189 -0.1222
  596loPI   C3A 9529  11.659  16.825   8.108  0.2119 -0.0629  0.1164
  596loPI   C4A 9530  11.525  16.859   7.725 -0.0201  0.0622 -0.1502
  596loPI   C5A 9531  11.597  16.618   7.312 -0.0208  0.0203  0.0042
  596loPI   C6A 9532  11.969  16.337   7.099 -0.0877  0.1467 -0.0766
  596loPI   C1B 9533  10.788  17.078   8.830  0.2842  0.0008  0.2533
  596loPI   C2B 9534  11.067  16.823   8.500  0.0445  0.4565  0.0893
  596loPI   C3B 9535  11.197  16.687   8.095  0.0679  0.0208  0.0294
  596loPI   C4B 9536  11.459  16.369   7.843 -0.0273 -0.0327 -0.3315
  597loPI    C1 9537  16.697   0.988   9.464 -0.1849  0.0482 -0.0843
  597loPI    C2 9538  16.646   1.189   9.806 -0.2541  0.1520 -0.1552
  597loPI    C3 9539  16.625   0.790   9.805  0.1206  0.1273  0.0292
  597loPI   PO4 9540  16.850   1.225   9.356  0.0788  0.0633 -0.2657
  597loPI   GL1 9541  16.972   1.443   8.886 -0.0127 -0.0034  0.1287
  597loPI   GL2 9542  17.300   1.418   8.800 -0.0271 -0.1120 -0.0972
  597loPI   C1A 9543  16.968   1.576   8.426  0.2110 -0.2303  0.2960
  597loPI   C2A 9544  17.151   1.375   8.112 -0.2663  0.1611  0.2339
  597loPI   C3A 9545  17.393   1.255   7.835 -0.0117 -0.0159 -0.1538
  597loPI   C4A 9546  17.494   1.247   7.418 -0.0496 -0.4131  0.1332
  597loPI   C5A 9547  17.633   0.897   7.304 -0.0600  0.0607  0.1676
  597loPI   C6A 9548  17.844   0.663   6.958  0.0526 -0.1750  0.0362
  597loPI   C1B 9549  17.625   1.275   8.390  0.2938  0.2323  0.0569
  597loPI   C2B 9550  17.834   1.107   8.037 -0.0058  0.1661 -0.4780
  597loPI   C3B 9551  18.038   1.136   7.666 -0.1291 -0.0870  0.5896
  597loPI   C4B 9552  17.947   1.316   7.202 -0.0150 -0.0697  0.1399
  598loPI    C1 9553   1.552   9.521  10.205  0.0152 -0.1368 -0.1124
  598loPI    C2 9554   1.343   9.739  10.468 -0.0221 -0.1527 -0.1288
  598loPI    C3 9555   1.677   9.551  10.584 -0.0177 -0.1284 -0.1022
  598loPI   PO4 9556   1.329   9.535   9.978  0.3054  0.0076 -0.2751
  598loPI   GL1 9557   1.295   9.729   9.600  0.3054  0.0318  0.0510
  598loPI   GL2 9558   1.080   9.827   9.523 -0.2837  0.0638 -0.0576
  598loPI   C1A 9559   1.505  10.004   9.239  0.1721 -0.0053  0.1674
  598loPI   C2A 9560   1.553  10.159   8.869 -0.0052  0.0977 -0.3186
  598loPI   C3A 9561   1.514  10.261   8.346 -0.0771  0.0053  0.0170
  598loPI   C4A 9562   1.755  10.491   8.123 -0.0083 -0.1147 -0.0434
  598loPI   C5A 9563   1.946  10.758   7.947 -0.0310 -0.2742 -0.1573
  598loPI   C6A 9564   2.244  10.979   7.720 -0.1459 -0.1625  0.0219
  598loPI   C1B 9565   1.157   9.649   9.119 -0.0346  0.1678  0.1488
  598loPI   C2B 9566   1.241   9.261   8.792 -0.1314 -0.4177 -0.0498
  598loPI   C3B 9567   1.407   9.261   8.464  0.1002  0.0392 -0.2009
  598loPI   C4B 9568   1.580   9.387   8.131 -0.0761  0.1844 -0.1461
  599loPI    C1 9569  18.589   7.321   9.895  0.1694 -0.0805 -0.1081
  599loPI    C2 9570  18.428   6.964   9.810 -0.1010  0.0243 -0.0473
  599loPI    C3 9571  18.194   7.267   9.927  0.1215  0.2341 -0.1347
  599loPI   PO4 9572  18.676   7.463   9.739 -0.3211  0.0512 -0.0859
  599loPI   GL1 9573  18.741   7.719   9.290  0.0671 -0.0787  0.0530
  599loPI   GL2 9574  18.447   7.905   9.233 -0.0813  0.0903 -0.2843
  599loPI   C1A 9575  18.688   7.550   8.843  0.0908 -0.0544 -0.1604
  599loPI   C2A 9576  18.492   7.527   8.509  0.1536 -0.1061 -0.3450
  599loPI   C3A 9577  18.318   7.504   8.017 -0.0650 -0.1913 -0.1733
  599loPI   C4A 9578  18.520   7.588   7.655 -0.1055 -0.1080 -0.2659
  599loPI   C5A 9579  18.624   7.912   7.517  0.0027 -0.1051  0.2811
  599loPI   C6A 9580  18.404   8.218   7.257  0.1564 -0.0823  0.0079
  599loPI   C1B 9581  18.415   8.344   9.053 -0.1836  0.1125  0.1231
  599loPI   C2B 9582  18.489   8.597   8.721  0.0015  0.0008 -0.0587
  599loPI   C3B 9583  18.189   8.934   8.474 -0.3679  0.0617  0.0844
  599loPI   C4B 9584  18.299   9.301   8.105 -0.1350  0.2621 -0.1106
  600loPI    C1 9585   7.266   7.577   9.691 -0.0253  0.2313 -0.0163
  600loPI    C2 9586   6.943   7.704   9.890 -0.0620  0.1707 -0.0368
  600loPI    C3 9587   7.276   7.607  10.089 -0.1275  0.0245  0.0032
  600loPI   PO4 9588   7.138   7.550   9.499 -0.3137  0.1207  0.2156
  600loPI   GL1 9589   6.874   7.751   9.204  0.1646 -0.3815 -0.0198
  600loPI   GL2 9590   7.018   7.945   9.031 -0.0442  0.2486 -0.1993
  600loPI   C1A 9591   6.522   7.672   9.064  0.0359  0.2894 -0.0457
  600loPI   C2A 9592   6.248   7.595   8.758 -0.3758 -0.0597  0.0041
  600loPI   C3A 9593   6.159   7.458   8.341  0.1872  0.2517 -0.2798
  600loPI   C4A 9594   6.084   7.394   7.861 -0.1047  0.2270 -0.0470
  600loPI   C5A 9595   6.242   7.044   7.623  0.1173  0.1259  0.0036
  600loPI   C6A 9596   6.199   7.035   7.267 -0.1778  0.0306 -0.1841
  600loPI   C1B 9597   7.095   7.798   8.586  0.0297  0.0578  0.2089
  600loPI   C2B 9598   7.384   7.881   8.277 -0.1131 -0.0078  0.2999
  600loPI   C3B 9599   7.340   8.038   7.795  0.2289 -0.1102  0.2401
  600loPI   C4B 9600   7.284   8.115   7.459 -0.2088  0.0605 -0.4872
  601loPI    C1 9601   8.752  17.307   9.810  0.0054  0.0644  0.0035
  601loPI    C2 9602   9.150  17.273   9.830 -0.0110 -0.0311  0.1848
  601loPI    C3 9603   8.947  17.436  10.134 -0.1081  0.0452  0.0799
  601loPI   PO4 9604   8.682  17.430   9.601 -0.4022  0.2564  0.3725
  601loPI   GL1 9605   8.681  17.422   9.084 -0.3650 -0.2231  0.1876
  601loPI   GL2 9606   8.912  17.303   9.116 -0.1098 -0.2059 -0.2458
  601loPI   C1A 9607   8.735  17.641   8.668 -0.0638 -0.3827 -0.2673
  601loPI   C2A 9608   8.869  17.507   8.272  0.0906 -0.2381  0.0833
  601loPI   C3A 9609   8.665  17.410   7.840 -0.2193 -0.0651 -0.0940
  601loPI   C4A 9610   8.559  17.277   7.312 -0.0668 -0.0153 -0.1235
  601loPI   C5A 9611   8.883  17.331   6.927 -0.0380 -0.1824  0.1545
  601loPI   C6A 9612   9.033  17.783   6.779 -0.0966  0.1720 -0.1656
  601loPI   C1B 9613   9.053  17.230   8.687  0.0922  0.0300  0.2347
  601loPI   C2B 9614   9.181  17.079   8.256 -0.0193 -0.1992 -0.2357
  601loPI   C3B 9615   9.094  17.050   7.903  0.1128  0.1906 -0.0642
  601loPI   C4B 9616   8.991  17.092   7.442 -0.1238 -0.1699 -0.0620
  602loPI    C1 9617   2.168  16.726   9.744  0.0826  0.0126  0.0570
  602loPI    C2 9618   2.515  16.924   9.762  0.0131  0.1151  0.3142
  602loPI    C3 9619   2.263  16.934  10.072 -0.2927  0.1741  0.0682
  602loPI   PO4 9620   2.157  16.768   9.421 -0.1244 -0.3286  0.1053
  602loPI   GL1 9621   2.423  16.974   9.135 -0.1326 -0.0896  0.3734
  602loPI   GL2 9622   2.494  17.243   9.339  0.5620 -0.1663  0.0045
  602loPI   C1A 9623   2.342  16.807   8.697  0.1938  0.0079 -0.1304
  602loPI   C2A 9624   2.009  16.892   8.401 -0.1313  0.0304 -0.1243
  602loPI   C3A 9625   2.123  16.690   8.122  0.0069  0.0822  0.1158
  602loPI   C4A 9626   2.148  16.730   7.617 -0.1787 -0.0695  0.1298
  602loPI   C5A 9627   2.056  16.972   7.349 -0.0037  0.7311 -0.0308
  602loPI   C6A 9628   2.220  17.373   7.185  0.2020  0.0508  0.3816
  602loPI   C1B 9629   2.362  17.495   9.014  0.3193  0.1086  0.0298
  602loPI   C2B 9630   2.147  17.342   8.583 -0.0077 -0.1348 -0.0472
  602loPI   C3B 9631   2.135  17.375   8.179  0.2057  0.1810  0.2700
  602loPI   C4B 9632   2.055  17.114   7.868  0.1476 -0.0467 -0.1310
  603loPI    C1 9633   0.481   6.476   9.828  0.1286 -0.1425  0.2042
  603loPI    C2 9634   0.333   6.117   9.922 -0.2155 -0.0604 -0.0063
  603loPI    C3 9635   0.101   6.442   9.950  0.0692  0.1367  0.1056
  603loPI   PO4 9636   0.630   6.451   9.590 -0.0844 -0.1422  0.0774
  603loPI   GL1 9637   0.713   6.361   9.198  0.2434  0.1811  0.1227
  603loPI   GL2 9638   0.446   6.335   9.058  0.0538 -0.1125 -0.0576
  603loPI   C1A 9639   0.892   6.501   8.830  0.0717 -0.1840  0.1874
  603loPI   C2A 9640   1.193   6.516   8.553 -0.0105  0.1843  0.1237
  603loPI   C3A 9641   1.270   6.685   8.146 -0.2686  0.1285 -0.1280
  603loPI   C4A 9642   1.519   6.922   7.978  0.1151  0.0508 -0.0195
  603loPI   C5A 9643   1.738   7.210   8.136  0.3328  0.4262 -0.5113
  603loPI   C6A 9644   1.748   7.463   8.493  0.1657  0.0347  0.0765
  603loPI   C1B 9645   0.386   6.593   8.671 -0.1494 -0.0191 -0.2216
  603loPI   C2B 9646   0.167   6.727   8.239 -0.2998  0.3884  0.5942
  603loPI   C3B 9647   0.188   6.819   7.769 -0.1315 -0.2205  0.2550
  603loPI   C4B 9648   0.206   7.020   7.324 -0.0705 -0.1832 -0.1373
  604loPI    C1 9649  16.055  15.485   9.493  0.0298 -0.0231  0.1460
  604loPI    C2 9650  16.128  15.106   9.602 -0.0641 -0.0287  0.1909
  604loPI    C3 9651  16.270  15.409   9.822  0.2494 -0.0340  0.0014
  604loPI   PO4 9652  15.947  15.413   9.283 -0.1181 -0.3225 -0.0603
  604loPI   GL1 9653  16.161  15.503   8.951  0.0131  0.4835  0.0565
  604loPI   GL2 9654  16.263  15.158   8.969 -0.2649 -0.0899  0.1578
  604loPI   C1A 9655  16.268  15.421   8.447 -0.2380  0.3139  0.2728
  604loPI   C2A 9656  16.155  15.350   8.035 -0.1143  0.1628 -0.1214
  604loPI   C3A 9657  16.247  15.336   7.593 -0.2369 -0.0751  0.1415
  604loPI   C4A 9658  16.224  15.295   7.188 -0.0678 -0.2113  0.0312
  604loPI   C5A 9659  15.968  14.984   6.932 -0.1173 -0.0853 -0.1552
  604loPI   C6A 9660  15.715  14.634   7.001  0.0164  0.0794  0.1945
  604loPI   C1B 9661  16.540  14.955   8.739 -0.0224  0.0367 -0.0270
  604loPI   C2B 9662  16.595  14.966   8.357 -0.2130 -0.2230  0.2867
  604loPI   C3B 9663  16.532  14.935   7.911 -0.2258 -0.1739 -0.1687
  604loPI   C4B 9664  16.523  14.957   7.476  0.2087  0.1348 -0.0029
  605loPI    C1 9665  19.253  12.089  10.109  0.0417 -0.0067  0.1508
  605loPI    C2 9666  19.081  12.450  10.094 -0.2113 -0.1343 -0.1140
  605loPI    C3 9667  19.159  12.280  10.448  0.0983  0.2643  0.0160
  605loPI   PO4 9668  19.183  12.005   9.831  0.1741  0.0672  0.0822
  605loPI   GL1 9669  18.975  11.741   9.617  0.1604  0.0573  0.2363
  605loPI   GL2 9670  18.562  11.746   9.541 -0.1878 -0.0951  0.3651
  605loPI   C1A 9671  19.136  11.473   9.163  0.1524 -0.0884 -0.1506
  605loPI   C2A 9672  19.099  11.294   8.802  0.3386  0.4062 -0.2290
  605loPI   C3A 9673  18.985  11.241   8.481 -0.2367  0.1942  0.1238
  605loPI   C4A 9674  19.072  11.154   8.037 -0.0281  0.1442  0.0080
  605loPI   C5A 9675  18.750  11.254   7.768 -0.0398 -0.1365  0.1567
  605loPI   C6A 9676  18.370  11.028   7.531  0.4006 -0.0366 -0.1390
  605loPI   C1B 9677  18.620  11.644   9.112  0.4659  0.1608  0.0470
  605loPI   C2B 9678  18.622  11.506   8.744  0.1138 -0.2499  0.2537
  605loPI   C3B 9679  18.677  11.626   8.366 -0.1346 -0.1304 -0.1073
  605loPI   C4B 9680  18.515  11.816   8.024  0.1071  0.1758  0.0044
  606loPI    C1 9681  10.517   0.413   9.743  0.0667 -0.4296 -0.1224
  606loPI    C2 9682  10.690   0.283  10.079 -0.0084 -0.1572  0.0252
  606loPI    C3 9683  10.292   0.318  10.059 -0.0031 -0.1549 -0.0863
  606loPI   PO4 9684  10.552   0.344   9.545  0.0710  0.1017  0.2180
  606loPI   GL1 9685  10.290   0.161   9.150  0.0061  0.0993  0.1058
  606loPI   GL2 9686  10.232  -0.201   9.245  0.0172 -0.0271  0.1602
  606loPI   C1A 9687  10.239   0.146   8.696  0.1578 -0.0049 -0.0064
  606loPI   C2A 9688  10.181   0.199   8.256 -0.0200  0.3345 -0.1698
  606loPI   C3A 9689  10.196   0.501   7.888  0.0517  0.1278  0.1259
  606loPI   C4A 9690  10.197   0.420   7.456  0.2703 -0.1614 -0.2017
  606loPI   C5A 9691  10.307   0.256   7.072  0.0259  0.2457 -0.0986
  606loPI   C6A 9692  10.334  -0.109   7.004  0.3397 -0.2056 -0.3094
  606loPI   C1B 9693  10.470  -0.293   8.923 -0.0498 -0.0507  0.3285
  606loPI   C2B 9694  10.442  -0.282   8.410  0.2898  0.0180 -0.3925
  606loPI   C3B 9695  10.389  -0.131   7.896  0.1293 -0.4261 -0.2290
  606loPI   C4B 9696  10.361  -0.053   7.465  0.1805 -0.2986 -0.0246
  607loPI    C1 9697   3.987   0.480   9.512  0.1872  0.3418  0.2784
  607loPI    C2 9698   3.813   0.248   9.788  0.2517 -0.0834 -0.0275
  607loPI    C3 9699   4.158   0.434   9.870  0.1303  0.0164  0.2671
  607loPI   PO4 9700   3.795   0.594   9.417 -0.1094  0.1468  0.0009
  607loPI   GL1 9701   3.548   0.518   8.970 -0.1519  0.1992  0.4025
  607loPI   GL2 9702   3.685   0.239   8.827  0.1063 -0.1263 -0.0495
  607loPI   C1A 9703   3.295   0.531   8.625 -0.1511  0.0515  0.1874
  607loPI   C2A 9704   3.300   0.239   8.300  0.1050  0.0547 -0.1301
  607loPI   C3A 9705   3.223   0.182   7.879 -0.2869 -0.0389  0.2016
  607loPI   C4A 9706   3.234   0.014   7.487 -0.0421  0.0643 -0.0007
  607loPI   C5A 9707   3.148  -0.119   7.086  0.1053  0.2595 -0.2779
  607loPI   C6A 9708   3.356  -0.186   6.729 -0.1140 -0.0690  0.0599
  607loPI   C1B 9709   3.804   0.219   8.406  0.0023 -0.1640 -0.1925
  607loPI   C2B 9710   3.739   0.253   7.932 -0.1092 -0.2816  0.1703
  607loPI   C3B 9711   3.811  -0.028   7.555 -0.2699 -0.1304  0.0068
  607loPI   C4B 9712   4.093  -0.142   7.239 -0.1150  0.0012 -0.1960
  608loPI    C1 9713   0.399   6.939   9.709 -0.1165  0.0011  0.1792
  608loPI    C2 9714   0.634   7.201   9.900  0.2868 -0.3656  0.2014
  608loPI    C3 9715   0.491   6.883  10.095 -0.2752 -0.1246  0.1995
  608loPI   PO4 9716   0.372   7.059   9.429  0.1420 -0.1986  0.2228
  608loPI   GL1 9717   0.432   7.071   8.998  0.1366  0.2645  0.0459
  608loPI   GL2 9718   0.309   7.397   9.042  0.0853  0.2060 -0.1233
  608loPI   C1A 9719   0.401   7.084   8.567  0.0438  0.2096 -0.2030
  608loPI   C2A 9720   0.502   7.109   8.073  0.0266  0.1118 -0.1989
  608loPI   C3A 9721   0.618   7.016   7.671  0.0246 -0.1200  0.0139
  608loPI   C4A 9722   0.696   6.850   7.275  0.0036  0.1963  0.0860
  608loPI   C5A 9723   0.786   6.873   6.878 -0.0538 -0.1806 -0.2833
  608loPI   C6A 9724   1.244   7.059   6.823  0.1148  0.1595  0.1289
  608loPI   C1B 9725   0.000   7.345   8.712 -0.1490  0.4507  0.0286
  608loPI   C2B 9726  -0.221   7.396   8.304  0.2037 -0.1870  0.3192
  608loPI   C3B 9727  -0.253   7.350   7.914 -0.0946 -0.3110 -0.3463
  608loPI   C4B 9728  -0.059   7.515   7.629 -0.2584  0.4292  0.1217
  609loPI    C1 9729   8.662  13.542   9.353  0.0170  0.0984  0.0537
  609loPI    C2 9730   8.634  13.933   9.433 -0.1860  0.0651  0.1527
  609loPI    C3 9731   8.880  13.701   9.647  0.1788  0.1940 -0.1158
  609loPI   PO4 9732   8.440  13.445   9.352  0.2228 -0.2667  0.3752
  609loPI   GL1 9733   8.268  13.395   9.003  0.0677 -0.6312  0.2087
  609loPI   GL2 9734   8.429  13.179   8.915  0.1421 -0.1568  0.0264
  609loPI   C1A 9735   8.050  13.574   8.700 -0.0205  0.0753  0.0523
  609loPI   C2A 9736   7.923  13.497   8.354  0.1682 -0.0592 -0.0606
  609loPI   C3A 9737   7.943  13.488   7.872 -0.0178  0.1694  0.1125
  609loPI   C4A 9738   8.135  13.513   7.540 -0.0082 -0.2917 -0.1131
  609loPI   C5A 9739   8.025  13.576   7.188  0.2319 -0.1197 -0.0036
  609loPI   C6A 9740   7.683  13.420   7.070  0.1250 -0.2076 -0.0967
  609loPI   C1B 9741   8.527  13.440   8.554  0.0184  0.1550 -0.0626
  609loPI   C2B 9742   8.830  13.502   8.143  0.1669  0.1672 -0.0480
  609loPI   C3B 9743   8.914  13.389   7.751  0.1328 -0.0686  0.4152
  609loPI   C4B 9744   8.534  13.278   7.506 -0.3083 -0.1895 -0.0146
  610loPI    C1 9745  10.220  10.597   9.597  0.0979  0.0400 -0.0882
  610loPI    C2 9746  10.574  10.637   9.416  0.2223  0.0622  0.1567
  610loPI    C3 9747  10.496  10.842   9.751 -0.0578  0.1285  0.0535
  610loPI   PO4 9748  10.044  10.656   9.352 -0.1245  0.0268  0.2289
  610loPI   GL1 9749   9.985  10.873   8.934  0.2876  0.0556 -0.0966
  610loPI   GL2 9750  10.205  10.666   8.870  0.3054 -0.0737  0.0930
  610loPI   C1A 9751  10.195  11.082   8.560 -0.1932  0.0156 -0.1966
  610loPI   C2A 9752  10.225  11.039   8.076  0.1928 -0.1033 -0.2060
  610loPI   C3A 9753  10.181  10.957   7.692  0.1518  0.1174  0.0179
  610loPI   C4A 9754  10.147  10.832   7.267  0.0908  0.2111 -0.1390
  610loPI   C5A 9755  10.236  10.358   7.160 -0.0150 -0.1990  0.0939
  610loPI   C6A 9756  10.563  10.040   7.254 -0.0583  0.1016 -0.2703
  610loPI   C1B 9757  10.163  10.585   8.462 -0.1858  0.5005 -0.0724
  610loPI   C2B 9758  10.188  10.492   8.011 -0.3479 -0.2830 -0.1086
  610loPI   C3B 9759  10.166  10.286   7.669  0.0758  0.1302 -0.1605
  610loPI   C4B 9760  10.063   9.957   7.454  0.2179 -0.0178  0.0959
  611loPI    C1 9761  10.179   4.614   9.769 -0.1461 -0.0205  0.1230
  611loPI    C2 9762  10.258   4.235   9.867  0.1815  0.0507  0.1473
  611loPI    C3 9763  10.210   4.509  10.154  0.3349  0.1023  0.1245
  611loPI   PO4 9764  10.122   4.590   9.550 -0.1069  0.3654  0.1165
  611loPI   GL1 9765  10.147   4.534   9.230 -0.3891  0.0317  0.0553
  611loPI   GL2 9766   9.882   4.816   9.145  0.3154 -0.2994  0.1482
  611loPI   C1A 9767  10.249   4.529   8.814 -0.3927  0.1199 -0.1800
  611loPI   C2A 9768  10.421   4.836   8.565  0.4775 -0.1127  0.0234
  611loPI   C3A 9769  10.510   4.687   8.217 -0.1478  0.0578  0.2038
  611loPI   C4A 9770  10.540   4.725   7.786 -0.0974  0.0317  0.1680
  611loPI   C5A 9771  10.728   5.099   7.488 -0.1308  0.1065 -0.3136
  611loPI   C6A 9772  11.099   5.399   7.457  0.2468 -0.1120 -0.2345
  611loPI   C1B 9773   9.944   5.028   8.765  0.0601 -0.0658  0.4234
  611loPI   C2B 9774  10.102   5.268   8.417 -0.0857 -0.1432  0.0184
  611loPI   C3B 9775  10.446   5.219   8.028  0.0281 -0.1787 -0.1152
  611loPI   C4B 9776  10.846   5.393   7.915 -0.0075  0.0960  0.0301
  612loPI    C1 9777  17.389  11.415   9.862  0.1778 -0.1858  0.0812
  612loPI    C2 9778  17.180  11.308  10.187 -0.1541  0.2495  0.0202
  612loPI    C3 9779  17.429  11.621  10.203  0.0451  0.0978 -0.0713
  612loPI   PO4 9780  17.139  11.298   9.687 -0.1503 -0.1074 -0.0273
  612loPI   GL1 9781  16.958  11.164   9.236  0.4195  0.2152 -0.1884
  612loPI   GL2 9782  16.750  11.460   9.015  0.1947  0.0615 -0.1395
  612loPI   C1A 9783  17.051  11.062   8.727 -0.3243 -0.1203  0.1707
  612loPI   C2A 9784  17.403  10.963   8.496 -0.1646 -0.2879  0.0463
  612loPI   C3A 9785  17.688  11.033   8.165 -0.0259 -0.0007 -0.1305
  612loPI   C4A 9786  17.789  11.223   7.777 -0.1130 -0.1047 -0.2545
  612loPI   C5A 9787  17.832  11.251   7.356  0.3621  0.1728 -0.0840
  612loPI   C6A 9788  17.831  11.621   7.032  0.1940 -0.0479 -0.4384
  612loPI   C1B 9789  16.757  11.426   8.573 -0.0011  0.0084  0.1873
  612loPI   C2B 9790  16.913  11.136   8.230  0.1786 -0.1944  0.1850
  612loPI   C3B 9791  16.978  10.707   8.305  0.2470  0.0276  0.0273
  612loPI   C4B 9792  16.773  10.495   8.598  0.1981  0.0545 -0.1283
  613loPI    C1 9793  10.852   6.497   9.713 -0.0367  0.1488 -0.1405
  613loPI    C2 9794  10.715   6.228   9.976  0.2744  0.1982  0.0773
  613loPI    C3 9795  10.516   6.570   9.917 -0.1786 -0.1138 -0.2742
  613loPI   PO4 9796  10.983   6.369   9.485 -0.3706 -0.2593  0.0772
  613loPI   GL1 9797  10.925   6.603   9.144  0.1006  0.2588 -0.2915
  613loPI   GL2 9798  10.949   6.262   8.999 -0.1376  0.0137 -0.0783
  613loPI   C1A 9799  11.011   6.900   8.850 -0.2584  0.0740 -0.0997
  613loPI   C2A 9800  11.011   7.166   8.484 -0.0382 -0.0801 -0.1140
  613loPI   C3A 9801  10.876   7.211   8.063  0.3584  0.2648  0.1599
  613loPI   C4A 9802  10.843   7.311   7.695 -0.0150 -0.0237 -0.0813
  613loPI   C5A 9803  10.717   7.511   7.372  0.1538 -0.3939 -0.1599
  613loPI   C6A 9804  10.619   7.509   6.947  0.2294 -0.0586 -0.2554
  613loPI   C1B 9805  10.961   6.365   8.595 -0.1645 -0.1397  0.2385
  613loPI   C2B 9806  10.903   6.597   8.093 -0.2358 -0.1850 -0.0148
  613loPI   C3B 9807  11.015   6.562   7.579 -0.0052 -0.0119  0.0364
  613loPI   C4B 9808  10.839   6.473   7.274 -0.1469 -0.0758 -0.0628
  614loPI    C1 9809  14.267  16.411   9.629  0.0517 -0.0060 -0.0463
  614loPI    C2 9810  14.417  16.054   9.530  0.1196  0.0246 -0.0555
  614loPI    C3 9811  14.525  16.228   9.874 -0.1573 -0.1064  0.1017
  614loPI   PO4 9812  14.292  16.542   9.405  0.2456 -0.1227 -0.0731
  614loPI   GL1 9813  14.154  16.484   8.952  0.0686 -0.1186  0.0109
  614loPI   GL2 9814  13.874  16.365   8.952 -0.1111  0.0748 -0.1366
  614loPI   C1A 9815  14.132  16.400   8.440  0.0986 -0.1073  0.4726
  614loPI   C2A 9816  14.193  16.478   7.985 -0.0178 -0.1597  0.1003
  614loPI   C3A 9817  13.881  16.410   7.577 -0.0242 -0.1958  0.0441
  614loPI   C4A 9818  13.580  16.438   7.337  0.0482 -0.0987 -0.1111
  614loPI   C5A 9819  13.194  16.716   7.282  0.1212 -0.1981 -0.2728
  614loPI   C6A 9820  12.925  17.051   7.020 -0.1839  0.0292 -0.0086
  614loPI   C1B 9821  13.778  16.719   8.630  0.1174 -0.1361  0.1799
  614loPI   C2B 9822  13.918  16.844   8.183 -0.0979  0.0965 -0.1166
  614loPI   C3B 9823  14.043  16.888   7.730  0.0083  0.2252 -0.0320
  614loPI   C4B 9824  14.071  16.832   7.242 -0.0200 -0.1879 -0.0103
  615loPI    C1 9825   8.587  17.911   9.449  0.0556 -0.0314 -0.1208
  615loPI    C2 9826   8.248  17.892   9.662  0.0673  0.0387 -0.0958
  615loPI    C3 9827   8.599  17.937   9.848  0.0740  0.1393 -0.1319
  615loPI   PO4 9828   8.525  18.165   9.272 -0.1620  0.1412  0.1749
  615loPI   GL1 9829   8.704  18.064   8.942 -0.2298 -0.1692 -0.1897
  615loPI   GL2 9830   8.931  17.862   9.076  0.1338 -0.1085  0.0044
  615loPI   C1A 9831   8.686  18.129   8.475 -0.2729  0.4656  0.1130
  615loPI   C2A 9832   8.743  18.079   7.996 -0.2066 -0.0944 -0.1857
  615loPI   C3A 9833   8.527  18.193   7.606 -0.0599 -0.3272 -0.0944
  615loPI   C4A 9834   8.032  18.217   7.427 -0.3070  0.2817 -0.3183
  615loPI   C5A 9835   7.699  18.204   7.151 -0.0879 -0.0053 -0.0332
  615loPI   C6A 9836   7.721  18.309   6.692  0.2891  0.1255 -0.0922
  615loPI   C1B 9837   9.138  18.032   8.715 -0.0768 -0.0294  0.1400
  615loPI   C2B 9838   9.151  17.952   8.279  0.0455  0.2095 -0.1389
  615loPI   C3B 9839   9.344  18.007   7.862 -0.0503  0.0149  0.0852
  615loPI   C4B 9840   9.561  18.115   7.537  0.2100  0.0019  0.2074
  616loPI    C1 9841   4.583  13.099  10.157  0.1027  0.0464 -0.0462
  616loPI    C2 9842   4.398  13.394   9.962  0.0327  0.0727  0.0591
  616loPI    C3 9843   4.692  13.478  10.219  0.0970  0.0411 -0.0035
  616loPI   PO4 9844   4.648  12.920   9.939  0.0403 -0.0899 -0.1300
  616loPI   GL1 9845   4.455  12.606   9.611  0.1614 -0.2045  0.0191
  616loPI   GL2 9846   4.733  12.402   9.758 -0.0292  0.0234  0.2979
  616loPI   C1A 9847   4.432  12.726   9.273  0.0177  0.2692 -0.0513
  616loPI   C2A 9848   4.360  12.499   8.863  0.1510 -0.1931  0.1095
  616loPI   C3A 9849   4.298  12.283   8.518 -0.0601 -0.0867  0.1720
  616loPI   C4A 9850   4.313  11.945   8.249 -0.1078  0.0545  0.1865
  616loPI   C5A 9851   4.652  11.655   8.090  0.0323  0.1184 -0.1571
  616loPI   C6A 9852   4.733  11.284   8.110  0.0960 -0.0292 -0.3782
  616loPI   C1B 9853   4.966  12.067   9.562 -0.1142 -0.3565  0.1842
  616loPI   C2B 9854   4.900  11.883   9.180 -0.1705 -0.0738 -0.1622
  616loPI   C3B 9855   4.865  11.995   8.840  0.0558  0.2186 -0.4083
  616loPI   C4B 9856   4.820  12.097   8.344  0.0748 -0.1679 -0.0910
  617loPI    C1 9857  11.431  12.751  10.159  0.0608  0.0291 -0.1192
  617loPI    C2 9858  11.368  13.146  10.166 -0.2161 -0.0157  0.0650
  617loPI    C3 9859  11.616  12.978  10.431  0.0384  0.0543 -0.1250
  617loPI   PO4 9860  11.371  12.726   9.845  0.0931  0.1114  0.0884
  617loPI   GL1 9861  11.264  12.402   9.506 -0.0787 -0.1296  0.0407
  617loPI   GL2 9862  11.637  12.422   9.488 -0.1959 -0.1451 -0.0803
  617loPI   C1A 9863  11.304  12.882   9.203 -0.2520 -0.0141 -0.4581
  617loPI   C2A 9864  11.503  13.019   8.776 -0.0325 -0.0814 -0.1817
  617loPI   C3A 9865  11.460  12.883   8.413  0.2555 -0.3555  0.0895
  617loPI   C4A 9866  11.434  12.811   8.090  0.0533  0.1704 -0.1188
  617loPI   C5A 9867  11.390  12.590   7.757 -0.0949  0.0343 -0.0886
  617loPI   C6A 9868  10.928  12.582   7.563 -0.0412  0.1815 -0.0803
  617loPI   C1B 9869  11.573  12.309   9.092 -0.2273  0.1767  0.2479
  617loPI   C2B 9870  11.642  12.127   8.726 -0.2195 -0.0554 -0.0450
  617loPI   C3B 9871  11.869  11.819   8.451 -0.1253  0.0261  0.1520
  617loPI   C4B 9872  11.811  11.611   8.033 -0.3294 -0.1432  0.0856
  618loPI    C1 9873   2.960  17.273   9.747  0.1114  0.5298 -0.1687
  618loPI    C2 9874   2.962  17.508  10.071  0.0118  0.1513  0.1138
  618loPI    C3 9875   3.222  17.206  10.042 -0.1544  0.0210 -0.0373
  618loPI   PO4 9876   2.943  17.406   9.569  0.0126  0.2613  0.0428
  618loPI   GL1 9877   2.922  17.530   9.233 -0.2180 -0.1983 -0.3771
  618loPI   GL2 9878   2.900  17.340   8.986  0.2139  0.3060  0.1116
  618loPI   C1A 9879   2.739  17.830   8.947  0.1537  0.4269 -0.0153
  618loPI   C2A 9880   2.520  17.699   8.480  0.4738 -0.1628 -0.0447
  618loPI   C3A 9881   2.584  17.641   8.096 -0.0927  0.2736  0.0207
  618loPI   C4A 9882   2.744  17.539   7.605  0.0872  0.0393  0.4000
  618loPI   C5A 9883   3.028  17.532   7.235  0.0231  0.0027 -0.1896
  618loPI   C6A 9884   3.440  17.536   7.034 -0.0532  0.3165  0.0499
  618loPI   C1B 9885   2.631  17.194   8.765  0.1090 -0.3187  0.1476
  618loPI   C2B 9886   2.549  17.194   8.341  0.1427 -0.0994  0.1001
  618loPI   C3B 9887   2.537  17.172   7.937  0.4021 -0.2175  0.0736
  618loPI   C4B 9888   2.487  17.066   7.511 -0.5316  0.0435 -0.1943
  619loPI    C1 9889   3.196   5.385   9.992 -0.1745  0.0022  0.1430
  619loPI    C2 9890   2.990   5.449   9.655 -0.1478 -0.0978  0.1076
  619loPI    C3 9891   2.957   5.705   9.961 -0.1194  0.0304  0.0042
  619loPI   PO4 9892   3.414   5.255   9.783  0.1955 -0.2627 -0.1431
  619loPI   GL1 9893   3.233   5.044   9.410  0.5271  0.0300 -0.2769
  619loPI   GL2 9894   3.234   4.652   9.306  0.0279 -0.1176  0.2300
  619loPI   C1A 9895   3.356   5.322   9.130  0.2292 -0.1614 -0.0531
  619loPI   C2A 9896   3.698   5.328   8.938 -0.0669 -0.2498 -0.1682
  619loPI   C3A 9897   3.563   5.442   8.582  0.0316 -0.0050  0.2711
  619loPI   C4A 9898   3.534   5.552   8.043 -0.2694  0.0148 -0.0183
  619loPI   C5A 9899   3.444   5.550   7.589  0.3720  0.3715  0.0396
  619loPI   C6A 9900   3.440   5.457   7.172 -0.2551 -0.1556 -0.3103
  619loPI   C1B 9901   3.115   4.709   8.866  0.0445 -0.2196  0.2923
  619loPI   C2B 9902   2.993   4.741   8.400  0.0373  0.2773 -0.1617
  619loPI   C3B 9903   3.059   4.869   8.034 -0.3504 -0.0357 -0.0637
  619loPI   C4B 9904   2.799   4.874   7.804 -0.1788  0.1412 -0.3821
  620loPI    C1 9905  17.051   3.025   9.647 -0.1532 -0.0288 -0.0979
  620loPI    C2 9906  16.743   3.224   9.807 -0.0333  0.1383 -0.0728
  620loPI    C3 9907  16.788   2.833   9.880 -0.3645  0.0616 -0.2579
  620loPI   PO4 9908  16.975   3.132   9.399 -0.1284  0.1280 -0.1946
  620loPI   GL1 9909  17.178   3.096   9.033 -0.0080  0.1828  0.1273
  620loPI   GL2 9910  16.996   3.361   8.884 -0.3088 -0.3194 -0.0112
  620loPI   C1A 9911  17.314   2.898   8.634  0.1736 -0.0475  0.0399
  620loPI   C2A 9912  17.350   2.732   8.205 -0.1297  0.0799 -0.1245
  620loPI   C3A 9913  17.315   2.663   7.778  0.0054 -0.2850 -0.3021
  620loPI   C4A 9914  17.362   2.402   7.477 -0.2321 -0.1316 -0.0799
  620loPI   C5A 9915  17.101   2.111   7.329  0.0003  0.0157  0.0349
  620loPI   C6A 9916  17.062   1.648   7.280 -0.0382 -0.0017 -0.1470
  620loPI   C1B 9917  16.935   3.553   8.354 -0.0146 -0.1847  0.2103
  620loPI   C2B 9918  16.828   3.685   7.836  0.0165  0.0691 -0.0664
  620loPI   C3B 9919  16.844   3.559   7.442  0.2675 -0.2720  0.0464
  620loPI   C4B 9920  17.036   3.749   7.062 -0.2689 -0.1733  0.0031
  621loPI    C1 9921  13.702  17.821   9.788 -0.0743  0.0136  0.0998
  621loPI    C2 9922  13.650  18.203   9.895  0.1938  0.0629  0.0613
  621loPI    C3 9923  13.704  17.923  10.175 -0.0012  0.0520  0.0895
  621loPI   PO4 9924  13.823  17.918   9.538  0.0125 -0.2453 -0.1015
  621loPI   GL1 9925  13.664  17.921   9.211  0.3572 -0.0977  0.0073
  621loPI   GL2 9926  13.544  17.524   9.394  0.0377  0.1377  0.2504
  621loPI   C1A 9927  13.807  17.667   8.976 -0.2007  0.1021  0.2360
  621loPI   C2A 9928  13.913  17.804   8.596  0.0718  0.1309  0.2096
  621loPI   C3A 9929  14.053  17.848   8.143 -0.1189  0.1327  0.1119
  621loPI   C4A 9930  14.044  17.798   7.740 -0.2189 -0.2014 -0.0143
  621loPI   C5A 9931  14.039  17.884   7.352 -0.2860 -0.2582  0.0484
  621loPI   C6A 9932  13.649  17.922   6.996 -0.0699 -0.1041 -0.0861
  621loPI   C1B 9933  13.363  17.424   8.918 -0.0380 -0.0526 -0.1864
  621loPI   C2B 9934  13.457  17.517   8.513 -0.0886  0.0358  0.1575
  621loPI   C3B 9935  13.414  17.593   7.932 -0.0127 -0.1445  0.2707
  621loPI   C4B 9936  13.548  17.614   7.493 -0.2240  0.1587  0.1554
  622loPI    C1 9937   3.415  10.144  10.028 -0.1211  0.3866  0.1780
  622loPI    C2 9938   3.524  10.041  10.398 -0.1126  0.0100  0.0749
  622loPI    C3 9939   3.679  10.368  10.228  0.0849  0.0388  0.3047
  622loPI   PO4 9940   3.509   9.936   9.833 -0.1891 -0.1526 -0.0878
  622loPI   GL1 9941   3.767   9.946   9.412 -0.2725  0.0744 -0.3150
  622loPI   GL2 9942   4.054   9.811   9.383  0.0039  0.2560 -0.0069
  622loPI   C1A 9943   3.654   9.972   9.007 -0.1722 -0.2432 -0.0354
  622loPI   C2A 9944   3.713   9.881   8.529  0.1013  0.0628 -0.0585
  622loPI   C3A 9945   3.773   9.805   8.106  0.1316 -0.5184 -0.1324
  622loPI   C4A 9946   3.883   9.987   7.807  0.0988 -0.2078  0.1243
  622loPI   C5A 9947   4.059  10.108   7.467  0.2300  0.1168  0.0690
  622loPI   C6A 9948   4.420   9.913   7.192  0.2011  0.0479  0.2599
  622loPI   C1B 9949   4.163   9.664   8.950  0.0231 -0.1969 -0.1310
  622loPI   C2B 9950   4.099   9.464   8.566  0.1710  0.2288 -0.0260
  622loPI   C3B 9951   4.162   9.521   8.223 -0.0298  0.1404 -0.3482
  622loPI   C4B 9952   4.063   9.417   7.821  0.2145 -0.3276 -0.0065
  623loPI    C1 9953   4.131  19.617   9.406 -0.1721  0.0522  0.0897
  623loPI    C2 9954   4.381  19.325   9.519  0.0376  0.1527 -0.1074
  623loPI    C3 9955   4.227  19.574   9.792  0.2221  0.1439  0.0063
  623loPI   PO4 9956   4.227  19.763   9.196 -0.1044  0.3847  0.1159
  623loPI   GL1 9957   4.115  20.100   9.043  0.2812 -0.0579 -0.2158
  623loPI   GL2 9958   4.119  20.403   9.101 -0.1628 -0.2135  0.0617
  623loPI   C1A 9959   4.258  19.993   8.617 -0.0881  0.0261  0.0388
  623loPI   C2A 9960   4.202  19.970   8.151  0.1306 -0.0170 -0.0586
  623loPI   C3A 9961   4.262  19.854   7.683 -0.2563  0.3700  0.2537
  623loPI   C4A 9962   4.359  19.981   7.263  0.4956 -0.1667 -0.0915
  623loPI   C5A 9963   4.466  20.196   6.898  0.0898  0.0570 -0.2576
  623loPI   C6A 9964   4.701  20.124   6.515 -0.0841  0.0334 -0.1023
  623loPI   C1B 9965   3.927  20.357   8.665 -0.1171  0.3159 -0.1944
  623loPI   C2B 9966   3.661  20.440   8.330 -0.3682 -0.0629  0.1496
  623loPI   C3B 9967   3.963  20.471   8.106  0.1866 -0.0016 -0.3509
  623loPI   C4B 9968   4.063  20.375   7.687  0.1160 -0.0338 -0.1669
  624loPI    C1 9969   6.595  13.115   9.418 -0.1188  0.0772 -0.2538
  624loPI    C2 9970   6.745  12.941   9.091 -0.0254 -0.3272 -0.0031
  624loPI    C3 9971   6.894  12.851   9.452 -0.2545 -0.0311  0.1694
  624loPI   PO4 9972   6.432  13.282   9.217 -0.4091  0.3175  0.1109
  624loPI   GL1 9973   6.442  13.366   8.787 -0.0344 -0.0818  0.0162
  624loPI   GL2 9974   6.636  13.064   8.640  0.0915 -0.4251  0.0315
  624loPI   C1A 9975   6.109  13.302   8.473 -0.0913 -0.0489 -0.1887
  624loPI   C2A 9976   5.937  13.269   8.016 -0.1186 -0.2257  0.0066
  624loPI   C3A 9977   5.584  13.302   7.712 -0.0222  0.0566  0.1591
  624loPI   C4A 9978   5.387  13.568   7.483  0.0475  0.1985  0.1510
  624loPI   C5A 9979   5.061  13.756   7.217  0.2073  0.2415  0.0495
  624loPI   C6A 9980   4.748  13.881   7.450 -0.1057  0.2105  0.2497
  624loPI   C1B 9981   6.477  13.203   8.222  0.0116 -0.0652 -0.3013
  624loPI   C2B 9982   6.423  13.036   7.784 -0.1381 -0.1795  0.2950
  624loPI   C3B 9983   6.532  13.064   7.307  0.1747 -0.2460 -0.0952
  624loPI   C4B 9984   6.298  13.028   6.928 -0.1490  0.0866 -0.2581
  625loPI    C1 9985   4.893   3.137   9.397  0.1071 -0.2984  0.0456
  625loPI    C2 9986   4.978   3.146   9.788 -0.0433  0.0308  0.0747
  625loPI    C3 9987   5.002   3.481   9.570 -0.0173 -0.1385 -0.1877
  625loPI   PO4 9988   5.102   2.981   9.257  0.2610  0.1499  0.1067
  625loPI   GL1 9989   5.229   2.954   8.841  0.0749  0.0345 -0.2207
  625loPI   GL2 9990   5.001   2.943   8.671  0.1517  0.1390 -0.3952
  625loPI   C1A 9991   5.170   3.410   8.567 -0.1489 -0.1511  0.2026
  625loPI   C2A 9992   5.228   3.560   8.089  0.2035 -0.2079 -0.2194
  625loPI   C3A 9993   5.190   3.636   7.636 -0.2667  0.0251 -0.1336
  625loPI   C4A 9994   5.128   4.067   7.462 -0.2588 -0.0831 -0.1396
  625loPI   C5A 9995   5.459   4.316   7.432 -0.2027 -0.2727  0.0348
  625loPI   C6A 9996   5.681   4.670   7.400 -0.1967 -0.1285  0.1508
  625loPI   C1B 9997   4.960   3.043   8.265  0.1440  0.0289 -0.2213
  625loPI   C2B 9998   4.774   2.861   7.863  0.0823  0.1047  0.0078
  625loPI   C3B 9999   4.594   2.683   7.477 -0.1954 -0.0685 -0.2366
  625loPI   C4B10000   4.526   2.906   7.131  0.3925  0.1678 -0.0889
  626loPI    C110001   0.056   1.776   9.452  0.1285  0.1324 -0.0930
  626loPI    C210002   0.012   2.150   9.587 -0.2356  0.0641 -0.0126
  626loPI    C310003  -0.102   1.841   9.814  0.2257 -0.1088 -0.0056
  626loPI   PO410004   0.081   1.874   9.185 -0.3810  0.4219 -0.1408
  626loPI   GL110005   0.372   1.969   8.930 -0.0418  0.1749 -0.0756
  626loPI   GL210006   0.201   1.765   8.686 -0.0728 -0.1627  0.1118
  626loPI   C1A10007   0.420   2.112   8.472 -0.1557  0.2662 -0.1256
  626loPI   C2A10008   0.387   1.808   8.115 -0.1552  0.2534 -0.4259
  626loPI   C3A10009   0.359   1.701   7.629  0.2124  0.0871  0.5253
  626loPI   C4A10010   0.431   1.715   7.176  0.1328  0.1462 -0.1908
  626loPI   C5A10011   0.543   1.925   6.752 -0.1305  0.2261  0.0471
  626loPI   C6A10012   0.507   2.330   6.501  0.1532  0.0775  0.3888
  626loPI   C1B10013  -0.053   1.808   8.445  0.0717  0.0316  0.1438
  626loPI   C2B10014  -0.257   1.791   8.154 -0.0992  0.2485  0.0439
  626loPI   C3B10015  -0.070   1.886   7.758  0.0602 -0.1400  0.0556
  626loPI   C4B10016  -0.023   1.970   7.274  0.0954 -0.0835  0.0089
  627loPI    C110017   3.564   9.074  10.163 -0.0548  0.3866 -0.1498
  627loPI    C210018   3.841   9.306  10.336 -0.0219  0.2117  0.0353
  627loPI    C310019   3.539   9.158  10.553  0.1945 -0.2704  0.0203
  627loPI   PO410020   3.537   9.179   9.827 -0.0813  0.0108 -0.1100
  627loPI   GL110021   3.523   9.518   9.590 -0.1858  0.1498  0.1639
  627loPI   GL210022   3.228   9.608   9.501 -0.0559 -0.1735 -0.1453
  627loPI   C1A10023   3.678   9.502   9.135 -0.2486 -0.1895 -0.3064
  627loPI   C2A10024   3.612   9.436   8.767  0.1750 -0.0723 -0.0820
  627loPI   C3A10025   3.511   9.448   8.394  0.1765  0.1461  0.0072
  627loPI   C4A10026   3.220   9.287   8.149 -0.0768  0.1108 -0.0678
  627loPI   C5A10027   3.354   9.200   7.774  0.1205  0.0163  0.2958
  627loPI   C6A10028   3.588   9.386   7.484 -0.2448 -0.1235  0.2451
  627loPI   C1B10029   3.193   9.648   9.015 -0.0898 -0.3542 -0.2292
  627loPI   C2B10030   3.258   9.779   8.665 -0.0789  0.0751  0.2743
  627loPI   C3B10031   3.214   9.851   8.276 -0.0132  0.1635  0.1586
  627loPI   C4B10032   3.392   9.743   7.842  0.0671  0.0339 -0.0293
  628loPI    C110033  16.752   9.598   9.752 -0.0572 -0.0205 -0.0498
  628loPI    C210034  16.712   9.992   9.807 -0.0143 -0.0205 -0.0177
  628loPI    C310035  16.742   9.748  10.123  0.1247 -0.0318 -0.0390
  628loPI   PO410036  16.603   9.465   9.595 -0.2241 -0.0526 -0.2012
  628loPI   GL110037  16.565   9.466   9.196 -0.2652 -0.2779  0.0801
  628loPI   GL210038  16.305   9.526   9.081 -0.0788  0.0131  0.1668
  628loPI   C1A10039  16.665   9.135   8.959 -0.0598  0.3256  0.0852
  628loPI   C2A10040  17.028   9.148   8.600  0.1993 -0.0316 -0.0143
  628loPI   C3A10041  16.951   9.240   8.219  0.0775  0.2038 -0.0563
  628loPI   C4A10042  16.989   9.203   7.809  0.3395 -0.2321  0.2153
  628loPI   C5A10043  16.957   9.392   7.398  0.1592  0.0980 -0.1174
  628loPI   C6A10044  16.877   9.850   7.170 -0.1923  0.2696  0.0309
  628loPI   C1B10045  16.517   9.609   8.690 -0.1551  0.0806 -0.1683
  628loPI   C2B10046  16.596   9.567   8.195  0.0247  0.0428 -0.1339
  628loPI   C3B10047  16.624   9.613   7.715 -0.0776 -0.1718  0.0740
  628loPI   C4B10048  16.496   9.535   7.243  0.1408 -0.0928  0.1083
  629loPI    C110049  11.271  18.372  10.041 -0.0433 -0.2216 -0.3429
  629loPI    C210050  11.507  18.079  10.177 -0.0283  0.0955  0.3554
  629loPI    C310051  11.112  18.064  10.241 -0.0950 -0.0122 -0.0549
  629loPI   PO410052  11.428  18.394   9.832 -0.0185 -0.0507 -0.1357
  629loPI   GL110053  11.566  18.439   9.330  0.1058 -0.2540  0.1452
  629loPI   GL210054  11.643  18.137   9.273 -0.4185 -0.1987  0.0744
  629loPI   C1A10055  11.322  18.465   8.946  0.0444 -0.0568  0.3540
  629loPI   C2A10056  11.030  18.442   8.654 -0.0934  0.2078  0.1712
  629loPI   C3A10057  10.828  18.338   8.291 -0.0688  0.1367 -0.2059
  629loPI   C4A10058  10.967  18.299   7.910 -0.0357  0.1587  0.4030
  629loPI   C5A10059  10.931  18.264   7.514  0.2305 -0.0789  0.3613
  629loPI   C6A10060  10.966  17.933   7.276 -0.3450 -0.1001  0.1370
  629loPI   C1B10061  11.936  18.024   8.901  0.0249 -0.0896 -0.0820
  629loPI   C2B10062  12.055  17.844   8.458 -0.3316  0.1548 -0.0738
  629loPI   C3B10063  12.039  17.739   7.953 -0.1996  0.1083 -0.1587
  629loPI   C4B10064  11.690  17.815   7.590 -0.1043 -0.0408 -0.1142
  630loPI    C110065   2.088   5.230   9.718 -0.0018  0.2287  0.1369
  630loPI    C210066   2.336   4.916   9.709 -0.1940  0.0737  0.1643
  630loPI    C310067   1.953   4.865   9.811 -0.2788  0.2835 -0.0393
  630loPI   PO410068   2.190   5.401   9.404  0.0808  0.0275 -0.2923
  630loPI   GL110069   2.356   5.372   8.933 -0.0305 -0.4766 -0.0707
  630loPI   GL210070   2.591   5.623   9.109  0.0580 -0.1484 -0.2014
  630loPI   C1A10071   2.532   5.426   8.505  0.0620 -0.0370  0.2267
  630loPI   C2A10072   2.323   5.577   8.166 -0.3147  0.1792  0.2778
  630loPI   C3A10073   2.109   5.564   7.875 -0.3764  0.3333  0.0242
  630loPI   C4A10074   1.790   5.582   7.592 -0.1475  0.1924  0.0244
  630loPI   C5A10075   1.632   5.832   7.254  0.0366 -0.4502  0.2884
  630loPI   C6A10076   1.572   6.299   6.990  0.1199  0.0416 -0.1422
  630loPI   C1B10077   2.879   5.257   8.909  0.2236  0.0157 -0.2156
  630loPI   C2B10078   3.014   5.230   8.498 -0.3724  0.2144  0.3818
  630loPI   C3B10079   2.838   5.364   8.102  0.2953 -0.1944  0.2178
  630loPI   C4B10080   2.971   5.337   7.673 -0.0563  0.1832  0.4153
  631loPI    C110081   7.753   4.262   9.855 -0.0551  0.0227 -0.1230
  631loPI    C210082   7.737   4.610  10.051  0.3676 -0.1595  0.2542
  631loPI    C310083   7.659   4.269  10.244  0.1525 -0.2951 -0.0636
  631loPI   PO410084   7.688   4.297   9.614 -0.2282  0.0230  0.0609
  631loPI   GL110085   7.849   4.370   9.278  0.1923 -0.1163 -0.2775
  631loPI   GL210086   7.970   4.019   9.299 -0.2690 -0.2103  0.0292
  631loPI   C1A10087   8.011   4.448   8.866 -0.1849 -0.0138  0.0329
  631loPI   C2A10088   8.070   4.574   8.457  0.0735  0.4149  0.1824
  631loPI   C3A10089   7.959   4.755   8.003  0.2312  0.0611 -0.0635
  631loPI   C4A10090   8.144   4.982   7.656  0.2002  0.0140  0.2710
  631loPI   C5A10091   8.264   5.510   7.648  0.0536  0.4443 -0.1692
  631loPI   C6A10092   8.415   5.920   7.584  0.1450  0.2396  0.0223
  631loPI   C1B10093   7.820   3.965   8.879 -0.1591  0.2144 -0.0385
  631loPI   C2B10094   7.998   4.055   8.555 -0.0356  0.0620  0.0851
  631loPI   C3B10095   7.845   4.271   8.098  0.1532 -0.1427 -0.0600
  631loPI   C4B10096   7.472   4.379   7.914 -0.1816  0.1234 -0.0092
  632loPI    C110097   0.558  13.500   9.972 -0.2456 -0.0993  0.4079
  632loPI    C210098   0.425  13.850  10.113 -0.0749  0.1288  0.0195
  632loPI    C310099   0.742  13.674  10.282  0.1732  0.4349 -0.1168
  632loPI   PO410100   0.506  13.474   9.734 -0.2318 -0.0873 -0.3069
  632loPI   GL110101   0.566  13.658   9.247 -0.1077 -0.0777  0.2139
  632loPI   GL210102   0.333  13.508   9.222  0.0167 -0.2630  0.0816
  632loPI   C1A10103   0.806  13.806   8.876  0.3792 -0.1580 -0.1258
  632loPI   C2A10104   1.020  14.047   8.579  0.0918  0.1475  0.2247
  632loPI   C3A10105   1.202  14.354   8.343  0.2227  0.1650  0.0796
  632loPI   C4A10106   1.321  14.414   8.077  0.1807 -0.1612  0.1431
  632loPI   C5A10107   1.360  14.434   7.732  0.0613  0.0680 -0.1447
  632loPI   C6A10108   1.452  14.068   7.461 -0.1635 -0.1099  0.0824
  632loPI   C1B10109   0.374  13.480   8.769 -0.0479  0.1161 -0.1111
  632loPI   C2B10110   0.622  13.625   8.401 -0.0035 -0.0388  0.1568
  632loPI   C3B10111   0.567  13.490   7.947  0.1437 -0.0311 -0.2973
  632loPI   C4B10112   0.618  13.537   7.546 -0.1657 -0.1437 -0.2303
  633loPI    C110113   1.858  14.060  10.050 -0.0712  0.1160 -0.1654
  633loPI    C210114   1.552  14.301  10.142 -0.0042  0.1385  0.0025
  633loPI    C310115   1.541  13.914  10.246  0.0859  0.1709  0.1365
  633loPI   PO410116   1.956  14.071   9.724  0.0006 -0.1641 -0.0125
  633loPI   GL110117   2.171  14.378   9.390 -0.2215 -0.1091  0.2698
  633loPI   GL210118   1.897  14.420   9.386  0.1586  0.1327  0.1453
  633loPI   C1A10119   2.170  14.553   8.985 -0.0327  0.1646  0.0145
  633loPI   C2A10120   2.343  14.562   8.601  0.0102  0.1873 -0.1022
  633loPI   C3A10121   2.439  14.488   8.185  0.0285  0.1580 -0.3274
  633loPI   C4A10122   2.366  14.435   7.769 -0.1779  0.0188 -0.2291
  633loPI   C5A10123   2.334  14.121   7.423 -0.1558  0.0293 -0.0074
  633loPI   C6A10124   2.428  13.984   7.019 -0.2476 -0.1183  0.1876
  633loPI   C1B10125   1.602  14.429   9.078  0.1820 -0.2878  0.0706
  633loPI   C2B10126   1.496  14.234   8.776 -0.0630 -0.2061 -0.0611
  633loPI   C3B10127   1.626  14.122   8.340  0.1527 -0.1468  0.2283
  633loPI   C4B10128   1.627  13.972   7.885  0.0812  0.0923 -0.1576
  634loPI    C110129  11.745   1.073   9.433 -0.0411 -0.1970  0.0929
  634loPI    C210130  11.514   0.778   9.574 -0.0850 -0.0438  0.3465
  634loPI    C310131  11.760   0.975   9.820  0.0945 -0.0039  0.1376
  634loPI   PO410132  11.869   1.001   9.169  0.3787  0.3249 -0.1519
  634loPI   GL110133  12.091   1.286   8.866 -0.1798  0.0780 -0.0670
  634loPI   GL210134  11.880   1.464   8.813 -0.0610  0.1188 -0.0332
  634loPI   C1A10135  12.190   1.478   8.432  0.0740  0.0636  0.0302
  634loPI   C2A10136  12.045   1.510   7.981 -0.0104 -0.1480 -0.2580
  634loPI   C3A10137  11.939   1.144   7.638 -0.2449  0.2970 -0.1099
  634loPI   C4A10138  12.041   0.922   7.290 -0.2689  0.2880  0.3075
  634loPI   C5A10139  11.750   0.594   7.150 -0.1317  0.1007 -0.1707
  634loPI   C6A10140  11.731   0.423   6.700  0.1355  0.1479  0.1848
  634loPI   C1B10141  11.568   1.577   8.483 -0.2298  0.3118  0.2377
  634loPI   C2B10142  11.477   1.383   8.094  0.0034  0.3893  0.0537
  634loPI   C3B10143  11.394   1.280   7.649  0.0555 -0.1496 -0.1393
  634loPI   C4B10144  11.505   1.107   7.314 -0.1422 -0.0342  0.0654
  635loPI    C110145  15.574   3.524   9.837  0.0487  0.0022 -0.0754
  635loPI    C210146  15.791   3.296   9.590  0.0679 -0.0007 -0.0558
  635loPI    C310147  15.803   3.232   9.984 -0.1599 -0.1621 -0.0729
  635loPI   PO410148  15.383   3.506   9.719 -0.1053 -0.0406 -0.1154
  635loPI   GL110149  15.394   3.412   9.269  0.0962 -0.2202 -0.0971
  635loPI   GL210150  15.551   3.287   9.079 -0.1931  0.2322 -0.0738
  635loPI   C1A10151  15.260   3.632   8.819 -0.2006 -0.1039  0.0089
  635loPI   C2A10152  14.878   3.644   8.648 -0.0956  0.1132  0.2798
  635loPI   C3A10153  14.693   3.603   8.145 -0.0647  0.0215  0.0228
  635loPI   C4A10154  14.262   3.494   8.022 -0.0848  0.0405  0.0884
  635loPI   C5A10155  14.094   3.065   8.089 -0.0584  0.1673  0.0619
  635loPI   C6A10156  14.050   2.699   8.328  0.0076  0.0031  0.2192
  635loPI   C1B10157  15.549   3.308   8.554  0.1444  0.1135 -0.0540
  635loPI   C2B10158  15.492   3.129   8.198  0.0245  0.1988 -0.0049
  635loPI   C3B10159  15.725   2.874   7.851 -0.0098 -0.0747  0.1351
  635loPI   C4B10160  15.874   2.748   7.372  0.1964 -0.0611 -0.0723
  636loPI    C110161   9.828   8.033   9.992  0.0626 -0.1005 -0.0797
  636loPI    C210162   9.793   8.403  10.138 -0.1397 -0.0586 -0.2284
  636loPI    C310163   9.620   8.096  10.328 -0.0366 -0.0670 -0.1468
  636loPI   PO410164   9.755   7.997   9.734  0.1445  0.1649  0.0380
  636loPI   GL110165   9.776   7.947   9.251  0.2004  0.1683  0.0283
  636loPI   GL210166   9.643   7.627   9.389 -0.0923  0.0078 -0.2701
  636loPI   C1A10167   9.619   8.332   9.055  0.4104 -0.4585 -0.3833
  636loPI   C2A10168   9.568   8.411   8.635  0.0522 -0.0644  0.3901
  636loPI   C3A10169   9.241   8.375   8.345 -0.0659  0.0305 -0.2547
  636loPI   C4A10170   9.123   8.443   7.931  0.3353 -0.1750  0.3609
  636loPI   C5A10171   9.135   8.373   7.474  0.2851 -0.0494 -0.2775
  636loPI   C6A10172   8.888   8.379   7.161  0.2115 -0.2801  0.1487
  636loPI   C1B10173   9.748   7.606   8.896  0.0474 -0.2021 -0.1194
  636loPI   C2B10174   9.489   7.537   8.436  0.0132  0.4506 -0.0290
  636loPI   C3B10175   9.731   7.472   8.089  0.0906  0.0532 -0.1250
  636loPI   C4B10176   9.334   7.464   7.761 -0.1766 -0.1341  0.2975
  637loPI    C110177   1.987  17.936   9.899 -0.0125 -0.3811  0.2856
  637loPI    C210178   2.367  17.922  10.025  0.0217 -0.0791  0.2238
  637loPI    C310179   2.074  18.004  10.284  0.0021 -0.2662  0.2624
  637loPI   PO410180   2.045  17.775   9.687  0.4375  0.2771  0.0592
  637loPI   GL110181   2.142  17.814   9.251  0.1282  0.0019 -0.4069
  637loPI   GL210182   2.293  18.090   9.112 -0.2581 -0.0550  0.1262
  637loPI   C1A10183   1.946  17.781   8.760 -0.0381 -0.0718  0.2547
  637loPI   C2A10184   1.715  17.752   8.352 -0.0159  0.1327  0.0438
  637loPI   C3A10185   1.675  17.359   8.135  0.1211 -0.3123  0.1284
  637loPI   C4A10186   1.553  17.258   7.677  0.2866  0.1119  0.1930
  637loPI   C5A10187   1.437  17.455   7.284 -0.0483  0.0308 -0.2808
  637loPI   C6A10188   1.638  17.640   6.922 -0.3895 -0.3778  0.1743
  637loPI   C1B10189   2.225  18.255   8.757 -0.1696  0.2726  0.0869
  637loPI   C2B10190   2.231  18.068   8.398 -0.2113  0.0933 -0.2794
  637loPI   C3B10191   2.122  17.853   8.044  0.1353 -0.0703  0.0217
  637loPI   C4B10192   2.182  17.565   7.641  0.2115  0.0108 -0.0004
  638loPI    C110193   9.269   5.263  10.327 -0.0274  0.1288  0.1609
  638loPI    C210194   9.484   4.954  10.193 -0.0278  0.1921  0.0125
  638loPI    C310195   9.101   4.901  10.296  0.0894  0.0523  0.3954
  638loPI   PO410196   9.475   5.452  10.175 -0.2019 -0.0460  0.4284
  638loPI   GL110197   9.448   5.809   9.822  0.2094 -0.0412 -0.2605
  638loPI   GL210198   9.260   5.649   9.514 -0.2282  0.2417  0.0359
  638loPI   C1A10199   9.777   5.773   9.496 -0.1178 -0.0443  0.0401
  638loPI   C2A10200   9.870   5.975   9.128 -0.1293  0.0665 -0.2384
  638loPI   C3A10201   9.673   6.096   8.673  0.1258  0.1528 -0.1204
  638loPI   C4A10202   9.695   6.242   8.294  0.1022  0.0224 -0.1740
  638loPI   C5A10203   9.729   6.243   7.851  0.0670 -0.1808  0.1823
  638loPI   C6A10204  10.083   5.989   7.691 -0.3883 -0.3176  0.0841
  638loPI   C1B10205   9.379   5.659   9.106  0.0204 -0.3304 -0.0253
  638loPI   C2B10206   9.453   5.629   8.704  0.4377 -0.0956 -0.1599
  638loPI   C3B10207   9.764   5.696   8.322  0.2765 -0.0859 -0.0356
  638loPI   C4B10208   9.732   5.382   7.985 -0.1618 -0.1530  0.4217
  639loPI    C110209  11.784   8.768   9.585 -0.1765  0.0240  0.0954
  639loPI    C210210  11.400   8.657   9.573 -0.1617 -0.0322  0.1384
  639loPI    C310211  11.498   9.042   9.529 -0.1855 -0.0839 -0.4388
  639loPI   PO410212  12.078   8.628   9.419 -0.3180 -0.0425  0.0193
  639loPI   GL110213  12.210   8.260   9.146 -0.0003  0.2777 -0.0374
  639loPI   GL210214  12.549   8.320   9.189 -0.0699  0.2023  0.3861
  639loPI   C1A10215  12.079   8.300   8.704  0.1755 -0.0090 -0.0956
  639loPI   C2A10216  11.946   8.087   8.366 -0.1728 -0.2767  0.0055
  639loPI   C3A10217  11.637   8.124   8.046 -0.0497  0.0512 -0.2657
  639loPI   C4A10218  11.620   7.852   7.747 -0.0250 -0.0290 -0.1115
  639loPI   C5A10219  11.541   7.783   7.228  0.2997  0.1975 -0.3483
  639loPI   C6A10220  11.396   7.863   6.934  0.0748 -0.4664 -0.1696
  639loPI   C1B10221  12.534   8.057   8.753 -0.0928  0.2424  0.1931
  639loPI   C2B10222  13.073   8.005   8.601  0.1833 -0.0448  0.0812
  639loPI   C3B10223  13.199   8.269   8.278  0.1702  0.2128 -0.1064
  639loPI   C4B10224  12.879   8.364   7.987 -0.1364 -0.5340  0.0235
  640loPI    C110225  18.732  11.224  10.703  0.1966 -0.2862  0.0423
  640loPI    C210226  18.974  11.542  10.722  0.0373 -0.1712  0.1710
  640loPI    C310227  18.657  11.516  10.965  0.0894 -0.4630  0.2115
  640loPI   PO410228  18.813  11.229  10.309  0.2409  0.3409 -0.0299
  640loPI   GL110229  19.042  11.264   9.889  0.1452 -0.1576  0.1907
  640loPI   GL210230  18.826  11.269   9.583 -0.2504 -0.1429 -0.0182
  640loPI   C1A10231  19.345  11.198   9.521 -0.0871 -0.3741 -0.3483
  640loPI   C2A10232  19.611  11.234   9.145 -0.0628  0.0217 -0.1072
  640loPI   C3A10233  19.524  10.995   8.817 -0.0005  0.1441  0.0890
  640loPI   C4A10234  19.589  10.919   8.385 -0.1482  0.2953  0.3040
  640loPI   C5A10235  19.460  10.746   8.038  0.1287 -0.1873  0.2545
  640loPI   C6A10236  19.516  10.426   7.709 -0.1705  0.1791 -0.0413
  640loPI   C1B10237  18.688  11.186   9.088  0.0678 -0.2107 -0.0986
  640loPI   C2B10238  18.536  11.030   8.740  0.2941  0.0519 -0.1022
  640loPI   C3B10239  18.618  11.054   8.268  0.1977  0.1115  0.0417
  640loPI   C4B10240  18.647  10.756   7.845  0.0571  0.0545 -0.3644
  641loPI    C110241   8.521  11.171   9.834  0.0404  0.0877 -0.0392
  641loPI    C210242   8.797  10.899   9.933 -0.1527 -0.0950  0.0035
  641loPI    C310243   8.413  10.839  10.027 -0.1742  0.2790  0.1759
  641loPI   PO410244   8.471  11.170   9.515 -0.1476  0.1298 -0.1255
  641loPI   GL110245   8.405  10.972   8.989  0.0699  0.0962  0.0065
  641loPI   GL210246   8.473  10.670   9.047 -0.1591 -0.1402  0.2348
  641loPI   C1A10247   8.776  10.956   8.785  0.0890  0.3415  0.1200
  641loPI   C2A10248   8.872  11.006   8.383  0.0561  0.2572  0.1507
  641loPI   C3A10249   8.950  11.340   8.070 -0.1320 -0.0382  0.2696
  641loPI   C4A10250   8.702  11.328   7.690 -0.2960  0.1360  0.0054
  641loPI   C5A10251   8.624  11.351   7.250  0.4319  0.0868 -0.1018
  641loPI   C6A10252   8.633  11.764   7.168 -0.2160  0.1867 -0.0185
  641loPI   C1B10253   8.497  10.537   8.656 -0.1689 -0.4914  0.3445
  641loPI   C2B10254   8.560  10.617   8.163  0.1107  0.1440  0.0719
  641loPI   C3B10255   8.860  10.878   7.895  0.2415  0.3195 -0.0996
  641loPI   C4B10256   8.803  10.824   7.501  0.5786 -0.2166 -0.5471
  642loPI    C110257  16.113   0.194   9.391 -0.0537  0.1919 -0.0191
  642loPI    C210258  16.106   0.365   9.753  0.2689 -0.0902  0.1266
  642loPI    C310259  16.007  -0.021   9.712 -0.0182  0.0064 -0.1300
  642loPI   PO410260  15.911   0.375   9.206  0.0946 -0.1279  0.0680
  642loPI   GL110261  15.878   0.578   8.884  0.0746  0.1124 -0.2351
  642loPI   GL210262  15.624   0.815   8.803 -0.1416  0.0578 -0.0352
  642loPI   C1A10263  16.071   0.543   8.440  0.2311 -0.2143 -0.0373
  642loPI   C2A10264  16.462   0.423   8.107 -0.1201 -0.1551 -0.3396
  642loPI   C3A10265  16.681   0.423   7.740 -0.0663 -0.1188  0.2335
  642loPI   C4A10266  16.975   0.190   7.486 -0.0265 -0.1901  0.0397
  642loPI   C5A10267  17.239  -0.197   7.167  0.1142  0.4127 -0.0115
  642loPI   C6A10268  17.498  -0.269   6.885  0.0526  0.0640 -0.2577
  642loPI   C1B10269  15.996   0.991   8.555  0.2404 -0.2099  0.0533
  642loPI   C2B10270  16.231   0.930   8.078  0.2002 -0.1548 -0.1426
  642loPI   C3B10271  16.254   1.007   7.754  0.1577 -0.1558 -0.0774
  642loPI   C4B10272  16.344   1.482   7.518 -0.0930 -0.0723 -0.0904
  643loPI    C110273   3.795   1.551   9.363  0.2869 -0.1396  0.0466
  643loPI    C210274   3.628   1.787   9.639 -0.1034  0.0831 -0.3652
  643loPI    C310275   3.951   1.911   9.438  0.1245 -0.0407 -0.0839
  643loPI   PO410276   3.616   1.488   9.204 -0.0754  0.0355 -0.2514
  643loPI   GL110277   3.470   1.510   8.859  0.1732  0.0875  0.4140
  643loPI   GL210278   3.881   1.273   8.847 -0.2411 -0.3060  0.0018
  643loPI   C1A10279   3.646   1.434   8.338  0.0226 -0.0570 -0.2084
  643loPI   C2A10280   3.760   1.425   8.004  0.0991 -0.1347 -0.1291
  643loPI   C3A10281   3.779   1.142   7.734  0.0442 -0.2974 -0.0566
  643loPI   C4A10282   3.656   0.921   7.347 -0.4259  0.3969 -0.0930
  643loPI   C5A10283   3.506   0.901   6.909 -0.1475 -0.1634 -0.1158
  643loPI   C6A10284   3.480   0.709   6.544 -0.0612  0.3700 -0.2063
  643loPI   C1B10285   4.100   1.201   8.417 -0.3333 -0.2295 -0.1393
  643loPI   C2B10286   4.249   1.240   7.967  0.2584  0.1045 -0.0295
  643loPI   C3B10287   4.367   1.167   7.566 -0.0833 -0.2445 -0.3666
  643loPI   C4B10288   4.122   0.951   7.192 -0.0347 -0.0343 -0.0402
  644loPI    C110289  12.501  17.354   9.747 -0.1707  0.3189  0.0779
  644loPI    C210290  12.660  17.220  10.089 -0.0688  0.1230 -0.0445
  644loPI    C310291  12.325  17.055   9.945 -0.0643  0.1476 -0.0834
  644loPI   PO410292  12.589  17.303   9.519  0.1916  0.1604  0.2552
  644loPI   GL110293  12.840  17.130   9.205  0.2087  0.1412  0.2626
  644loPI   GL210294  12.528  17.010   9.076 -0.0120 -0.0279  0.1792
  644loPI   C1A10295  12.885  17.263   8.798 -0.0553  0.0160 -0.1056
  644loPI   C2A10296  12.863  17.401   8.384  0.0672  0.2070  0.0236
  644loPI   C3A10297  12.890  17.537   7.932 -0.0773 -0.4219 -0.1138
  644loPI   C4A10298  12.967  17.666   7.421  0.1878 -0.0702  0.0634
  644loPI   C5A10299  13.151  18.047   7.192  0.0923 -0.1708  0.2029
  644loPI   C6A10300  13.110  18.547   7.146 -0.1598  0.0236  0.0704
  644loPI   C1B10301  12.568  16.939   8.642 -0.2454 -0.1267 -0.1245
  644loPI   C2B10302  12.718  16.918   8.237 -0.0975  0.1223 -0.0048
  644loPI   C3B10303  12.884  17.040   7.803  0.1844 -0.2806  0.0141
  644loPI   C4B10304  13.119  17.208   7.506  0.2148 -0.1148  0.3522
  645loPI    C110305   6.079  18.025   9.372 -0.2263 -0.0240  0.1126
  645loPI    C210306   6.439  18.093   9.532 -0.1160  0.0165 -0.1480
  645loPI    C310307   6.194  17.825   9.699  0.1790 -0.2759 -0.1746
  645loPI   PO410308   6.153  17.969   9.148 -0.1704  0.0844  0.2057
  645loPI   GL110309   5.854  17.971   8.819 -0.1439 -0.1506  0.2913
  645loPI   GL210310   5.732  18.226   8.557 -0.2485 -0.2560 -0.2873
  645loPI   C1A10311   6.142  17.939   8.452  0.2593  0.1296  0.2055
  645loPI   C2A10312   6.152  17.967   8.005  0.0174  0.0349  0.0529
  645loPI   C3A10313   6.026  17.937   7.553  0.0469 -0.0966  0.1161
  645loPI   C4A10314   5.703  17.931   7.198 -0.0384 -0.0405  0.0083
  645loPI   C5A10315   5.498  18.035   6.813 -0.2185 -0.1281  0.2103
  645loPI   C6A10316   5.567  17.996   6.393  0.0991  0.3204 -0.0196
  645loPI   C1B10317   5.683  18.306   8.271 -0.1646  0.1675  0.1467
  645loPI   C2B10318   5.852  18.375   7.860  0.0362 -0.0483 -0.0703
  645loPI   C3B10319   5.997  18.424   7.446  0.1533  0.2348 -0.3324
  645loPI   C4B10320   6.205  18.088   7.062  0.0090 -0.5257  0.2393
  646loPI    C110321   0.604  15.876   9.566 -0.2481 -0.0182  0.0842
  646loPI    C210322   0.368  16.006   9.863  0.0966  0.1197  0.3038
  646loPI    C310323   0.661  15.744   9.939 -0.0087 -0.0851  0.0253
  646loPI   PO410324   0.541  16.083   9.433 -0.0682 -0.0420 -0.1065
  646loPI   GL110325   0.325  16.134   9.131  0.1063 -0.0914  0.0922
  646loPI   GL210326  -0.052  16.055   9.073  0.0197  0.3192 -0.1372
  646loPI   C1A10327   0.566  16.311   8.818  0.0067 -0.0543  0.0148
  646loPI   C2A10328   0.547  16.095   8.423  0.2990 -0.0616 -0.3679
  646loPI   C3A10329   0.619  15.954   7.966 -0.1179 -0.3191 -0.2257
  646loPI   C4A10330   0.518  16.142   7.546  0.2196 -0.2815  0.0387
  646loPI   C5A10331   0.052  16.349   7.467  0.0041  0.0526 -0.3269
  646loPI   C6A10332  -0.380  16.357   7.311  0.0932 -0.4624  0.1680
  646loPI   C1B10333   0.120  15.940   8.726  0.0902 -0.0057  0.2718
  646loPI   C2B10334   0.073  15.915   8.312  0.1403 -0.0261  0.4671
  646loPI   C3B10335  -0.262  15.706   8.025  0.0855  0.3652  0.1187
  646loPI   C4B10336  -0.638  15.468   7.768 -0.1651 -0.0497  0.1359
  647loPI    C110337   4.552  11.459  10.103  0.0487  0.0771  0.0525
  647loPI    C210338   4.612  11.740  10.380  0.3250 -0.1275  0.2046
  647loPI    C310339   4.803  11.389  10.406  0.2648 -0.1932 -0.1825
  647loPI   PO410340   4.578  11.623   9.889 -0.0751  0.3684  0.0165
  647loPI   GL110341   4.407  11.562   9.425  0.0758  0.1665  0.0751
  647loPI   GL210342   4.062  11.669   9.358 -0.1680 -0.1561 -0.2387
  647loPI   C1A10343   4.684  11.484   9.063  0.2172 -0.1651  0.0791
  647loPI   C2A10344   5.110  11.480   8.931 -0.2771 -0.5048 -0.1008
  647loPI   C3A10345   5.277  11.641   8.550 -0.5053 -0.1849  0.1694
  647loPI   C4A10346   5.299  12.091   8.299 -0.1005  0.0860 -0.0043
  647loPI   C5A10347   5.377  12.280   8.606 -0.1875 -0.0903  0.0980
  647loPI   C6A10348   5.300  12.181   8.993  0.0108 -0.0161 -0.4670
  647loPI   C1B10349   4.072  11.595   8.996  0.1540  0.2238  0.0148
  647loPI   C2B10350   3.817  11.436   8.701 -0.0784 -0.1610  0.3301
  647loPI   C3B10351   3.482  11.118   8.776 -0.2156  0.0182  0.2096
  647loPI   C4B10352   3.571  10.674   8.570 -0.3696  0.3441  0.0317
  648loPI    C110353  18.008   3.862   9.887  0.1100 -0.1921 -0.1608
  648loPI    C210354  17.707   4.079  10.038  0.1776 -0.0486 -0.2302
  648loPI    C310355  17.716   3.683  10.094 -0.0046 -0.0487 -0.1962
  648loPI   PO410356  17.957   3.885   9.555 -0.1614  0.3040  0.3246
  648loPI   GL110357  18.173   4.021   9.187  0.1134 -0.0230  0.0053
  648loPI   GL210358  18.363   4.199   9.167  0.1558 -0.0379  0.0998
  648loPI   C1A10359  18.076   3.915   8.737  0.0641 -0.3182  0.1150
  648loPI   C2A10360  17.922   3.820   8.343 -0.0378 -0.1724  0.0696
  648loPI   C3A10361  17.814   3.820   7.832 -0.1444 -0.1694 -0.1279
  648loPI   C4A10362  17.767   3.781   7.380 -0.1386 -0.2190 -0.2501
  648loPI   C5A10363  18.063   3.958   7.042  0.2024  0.4269 -0.1938
  648loPI   C6A10364  18.453   4.013   6.809  0.2934 -0.4408  0.0014
  648loPI   C1B10365  18.051   4.399   8.870 -0.0975  0.2516 -0.0465
  648loPI   C2B10366  18.267   4.378   8.356 -0.1040  0.0733  0.0551
  648loPI   C3B10367  18.284   4.256   8.000 -0.0785 -0.2104  0.0042
  648loPI   C4B10368  18.234   4.043   7.639 -0.0209 -0.1474  0.0838
  649loPI    C110369   4.546  10.197   9.984 -0.2974 -0.1488 -0.0639
  649loPI    C210370   4.490  10.001  10.329  0.0481 -0.2631 -0.0689
  649loPI    C310371   4.259  10.315  10.237  0.0530 -0.1343  0.3377
  649loPI   PO410372   4.462   9.957   9.773  0.1354  0.0916 -0.1933
  649loPI   GL110373   4.684   9.976   9.326  0.3842 -0.1446  0.2495
  649loPI   GL210374   4.629  10.270   9.405  0.2150 -0.1334 -0.0851
  649loPI   C1A10375   4.551   9.979   8.856 -0.3146  0.0677 -0.2421
  649loPI   C2A10376   4.290   9.979   8.510  0.0513  0.2785  0.0470
  649loPI   C3A10377   4.315   9.991   8.094 -0.1260  0.3000  0.1740
  649loPI   C4A10378   4.418   9.869   7.748 -0.4335  0.4892 -0.2327
  649loPI   C5A10379   4.441   9.460   7.433  0.1857  0.1662  0.1089
  649loPI   C6A10380   4.697   9.179   7.173  0.4163 -0.3150 -0.0690
  649loPI   C1B10381   4.837  10.425   8.978  0.4116 -0.1048 -0.1157
  649loPI   C2B10382   4.779  10.310   8.541  0.1652 -0.1578  0.0648
  649loPI   C3B10383   4.685  10.520   8.071  0.0358 -0.0556 -0.1406
  649loPI   C4B10384   4.612  10.335   7.721  0.0697  0.2567  0.2291
  650loPI    C110385   6.208  16.021   9.722 -0.3632  0.0365  0.1018
  650loPI    C210386   5.948  15.731   9.811 -0.2180 -0.1641 -0.1182
  650loPI    C310387   6.155  15.910  10.102 -0.1604 -0.4223  0.0021
  650loPI   PO410388   6.374  15.982   9.489 -0.3375 -0.0942 -0.0971
  650loPI   GL110389   6.404  15.914   9.061 -0.2816 -0.1725 -0.2132
  650loPI   GL210390   6.594  15.657   8.996  0.0914  0.3228  0.2974
  650loPI   C1A10391   6.275  15.856   8.613 -0.1581 -0.0919  0.0852
  650loPI   C2A10392   6.193  15.725   8.186  0.2364 -0.0167  0.1718
  650loPI   C3A10393   6.112  15.604   7.803  0.1294  0.4131 -0.1612
  650loPI   C4A10394   6.152  15.533   7.435 -0.0492  0.1505  0.0519
  650loPI   C5A10395   6.125  15.393   6.984 -0.1251 -0.4215  0.0258
  650loPI   C6A10396   5.945  15.457   6.574 -0.4370 -0.2655  0.0481
  650loPI   C1B10397   6.631  15.225   8.874 -0.1263 -0.1293  0.5073
  650loPI   C2B10398   6.708  15.085   8.449  0.2221  0.1254 -0.0679
  650loPI   C3B10399   6.622  14.932   8.119 -0.0385  0.1066  0.0187
  650loPI   C4B10400   6.228  15.063   7.909 -0.3616 -0.3214 -0.0786
  651loPI    C110401  15.981  11.664   9.775 -0.2191 -0.1354  0.0973
  651loPI    C210402  15.943  11.594  10.167  0.0229  0.0456  0.1554
  651loPI    C310403  15.809  11.937  10.011  0.0058  0.0113  0.0939
  651loPI   PO410404  15.867  11.482   9.619  0.2028 -0.0187 -0.0974
  651loPI   GL110405  15.881  11.513   9.144  0.2474 -0.1660  0.0122
  651loPI   GL210406  15.571  11.328   9.125 -0.4690  0.0721  0.0379
  651loPI   C1A10407  16.084  11.816   8.928  0.0804 -0.2759  0.0223
  651loPI   C2A10408  16.237  11.884   8.417 -0.2278 -0.0885  0.2255
  651loPI   C3A10409  16.176  11.840   8.009 -0.1136  0.1925 -0.1151
  651loPI   C4A10410  16.377  11.854   7.714 -0.3331  0.0504 -0.0540
  651loPI   C5A10411  16.528  11.692   7.435  0.0828  0.1748 -0.1184
  651loPI   C6A10412  16.400  11.726   6.924  0.1762  0.1297  0.0281
  651loPI   C1B10413  15.668  11.364   8.706  0.2468  0.0585  0.0588
  651loPI   C2B10414  15.487  11.249   8.322  0.0268 -0.3952 -0.1540
  651loPI   C3B10415  15.362  11.237   7.854 -0.0281 -0.0638  0.0481
  651loPI   C4B10416  15.291  11.379   7.486 -0.2439 -0.3839 -0.1144
  652loPI    C110417   3.962  17.258   9.471  0.0898  0.1661 -0.1858
  652loPI    C210418   4.143  17.437   9.779  0.1377 -0.1770 -0.0093
  652loPI    C310419   4.101  17.039   9.776 -0.2237 -0.1415 -0.2567
  652loPI   PO410420   4.108  17.345   9.319 -0.0407 -0.1864 -0.1029
  652loPI   GL110421   4.166  17.448   8.855 -0.0406  0.0899  0.0685
  652loPI   GL210422   4.235  17.187   8.833  0.0372  0.1162 -0.0630
  652loPI   C1A10423   4.032  17.566   8.477 -0.3561 -0.3388 -0.0220
  652loPI   C2A10424   3.963  17.499   8.108 -0.2765  0.1864 -0.1127
  652loPI   C3A10425   3.934  17.408   7.705 -0.0370  0.1544  0.2165
  652loPI   C4A10426   4.103  17.334   7.271 -0.2078  0.0613  0.1997
  652loPI   C5A10427   4.246  17.252   6.881 -0.0464  0.1757 -0.0096
  652loPI   C6A10428   4.300  17.227   6.421  0.1779 -0.2396  0.0118
  652loPI   C1B10429   4.151  16.897   8.450  0.2317  0.0977  0.1782
  652loPI   C2B10430   4.216  17.078   7.999 -0.1371 -0.2641 -0.3987
  652loPI   C3B10431   4.295  16.961   7.552  0.0966 -0.0257 -0.2562
  652loPI   C4B10432   4.492  16.905   7.253 -0.0380  0.0844 -0.1099
  653loPI    C110433   9.795   2.073   9.629 -0.0339 -0.1127 -0.0234
  653loPI    C210434   9.825   2.321   9.942 -0.0762 -0.1323 -0.0036
  653loPI    C310435   9.597   1.993   9.968 -0.1451 -0.0913 -0.0827
  653loPI   PO410436   9.713   2.193   9.436  0.1699  0.0765 -0.1373
  653loPI   GL110437   9.426   2.270   9.093  0.3360 -0.1445  0.1691
  653loPI   GL210438   9.600   2.509   8.819  0.2305 -0.0545 -0.1012
  653loPI   C1A10439   9.209   2.201   8.687 -0.0518  0.0002 -0.1103
  653loPI   C2A10440   9.186   1.983   8.358 -0.1051  0.0388 -0.0124
  653loPI   C3A10441   9.109   1.896   7.883 -0.2324  0.1574  0.2304
  653loPI   C4A10442   9.194   1.898   7.412 -0.0146  0.0138  0.2360
  653loPI   C5A10443   9.192   1.978   7.023 -0.0826 -0.2311  0.0364
  653loPI   C6A10444   9.358   1.937   6.543 -0.1054  0.0039 -0.1284
  653loPI   C1B10445   9.327   2.612   8.491  0.0600  0.0473  0.0687
  653loPI   C2B10446   9.289   2.481   8.065  0.0219 -0.0084 -0.0875
  653loPI   C3B10447   9.354   2.428   7.684  0.4737  0.0155 -0.0150
  653loPI   C4B10448   9.433   2.397   7.203 -0.0457 -0.0916  0.2608
  654loPI    C110449  12.377  12.742  10.058 -0.4043  0.0821  0.1916
  654loPI    C210450  12.765  12.814  10.123 -0.3596  0.0692 -0.0517
  654loPI    C310451  12.509  12.805  10.430 -0.2189  0.3807  0.0788
  654loPI   PO410452  12.360  12.831   9.811  0.1815  0.3365 -0.2004
  654loPI   GL110453  12.274  12.771   9.396 -0.0920  0.1095 -0.0359
  654loPI   GL210454  12.153  12.549   9.446 -0.0561  0.3547 -0.0832
  654loPI   C1A10455  12.308  12.875   8.930 -0.0729  0.3290  0.0220
  654loPI   C2A10456  12.383  12.876   8.467  0.2176 -0.3549  0.1845
  654loPI   C3A10457  12.363  12.993   8.104  0.3373 -0.0267  0.1319
  654loPI   C4A10458  12.333  13.033   7.674  0.1388 -0.0776  0.0516
  654loPI   C5A10459  12.154  12.987   7.247  0.1089 -0.0183  0.0124
  654loPI   C6A10460  11.840  12.869   6.828  0.1845 -0.1272 -0.0874
  654loPI   C1B10461  11.843  12.700   9.094  0.1319 -0.4224 -0.0346
  654loPI   C2B10462  11.881  12.693   8.639  0.5020  0.1886 -0.1310
  654loPI   C3B10463  11.956  12.667   8.190 -0.0545 -0.3972  0.2985
  654loPI   C4B10464  11.978  12.608   7.730 -0.0660 -0.2807  0.0918
  655loPI    C110465   0.187   8.763   9.897  0.1082 -0.0045 -0.0636
  655loPI    C210466  -0.109   8.660  10.146  0.0416 -0.0074 -0.1439
  655loPI    C310467   0.258   8.511  10.199 -0.0620 -0.3198 -0.2808
  655loPI   PO410468   0.065   8.763   9.643  0.0530  0.0387  0.1582
  655loPI   GL110469   0.022   9.019   9.270 -0.1532 -0.1429  0.3463
  655loPI   GL210470   0.288   8.845   9.087  0.1514  0.2215  0.1222
  655loPI   C1A10471  -0.140   9.371   9.083  0.3043 -0.1465  0.1053
  655loPI   C2A10472  -0.274   9.812   8.865  0.0609  0.0046 -0.0218
  655loPI   C3A10473  -0.199   9.798   8.528  0.0380  0.1045 -0.0569
  655loPI   C4A10474  -0.433   9.630   8.249 -0.2071  0.0466  0.0946
  655loPI   C5A10475  -0.368   9.694   7.861  0.0424  0.3921  0.4931
  655loPI   C6A10476  -0.800   9.752   7.599 -0.3251 -0.1313  0.0475
  655loPI   C1B10477   0.472   8.728   8.670  0.0302 -0.1522  0.0274
  655loPI   C2B10478   0.591   8.678   8.228  0.5732 -0.2924  0.2218
  655loPI   C3B10479   0.963   8.560   7.966 -0.0067  0.2774  0.1879
  655loPI   C4B10480   0.989   8.400   7.566 -0.0241 -0.1348  0.0384
  656loPI    C110481   3.046   9.706   9.977 -0.0608  0.0898  0.0157
  656loPI    C210482   2.825   9.502   9.714  0.1947 -0.0404 -0.1012
  656loPI    C310483   3.077   9.308   9.957  0.0131  0.0855  0.1933
  656loPI   PO410484   2.952   9.944   9.902 -0.0715 -0.0303  0.1508
  656loPI   GL110485   2.793   9.985   9.507  0.1540 -0.1698  0.3768
  656loPI   GL210486   2.770  10.323   9.220  0.1764 -0.2469  0.1783
  656loPI   C1A10487   2.777   9.871   9.014  0.0841  0.0573  0.0116
  656loPI   C2A10488   2.975  10.118   8.802 -0.1210 -0.1697  0.1152
  656loPI   C3A10489   3.250  10.306   8.524 -0.1008  0.1707 -0.0256
  656loPI   C4A10490   3.225  10.640   8.182 -0.0616  0.4543 -0.2706
  656loPI   C5A10491   3.362  10.691   7.851 -0.0353  0.0996 -0.3268
  656loPI   C6A10492   3.456  10.939   7.476  0.0065 -0.3470  0.0223
  656loPI   C1B10493   2.625  10.480   8.820 -0.0300 -0.0656  0.1640
  656loPI   C2B10494   2.795  10.407   8.357 -0.0660  0.0585  0.1554
  656loPI   C3B10495   2.910  10.222   7.919  0.2235  0.0494 -0.0937
  656loPI   C4B10496   3.237  10.204   7.586 -0.3274  0.1880  0.0556
  657loPI    C110497  17.958  17.336   9.868 -0.1663 -0.1822  0.1151
  657loPI    C210498  17.608  17.500   9.969 -0.1087  0.1137 -0.1519
  657loPI    C310499  17.950  17.666  10.093 -0.0598 -0.2882  0.2769
  657loPI   PO410500  17.930  17.345   9.616  0.0145  0.2152  0.0635
  657loPI   GL110501  17.814  17.586   9.171 -0.0942  0.0943 -0.0405
  657loPI   GL210502  17.989  17.447   9.126 -0.2280  0.1686 -0.0108
  657loPI   C1A10503  17.597  17.432   8.848  0.1743  0.0603  0.1107
  657loPI   C2A10504  17.389  17.516   8.471 -0.0796  0.0668 -0.1259
  657loPI   C3A10505  17.422  17.464   8.031 -0.1012  0.0222 -0.2966
  657loPI   C4A10506  17.716  17.616   7.797  0.0489  0.3009 -0.1782
  657loPI   C5A10507  17.862  17.487   7.382 -0.1291 -0.3697  0.0838
  657loPI   C6A10508  17.674  17.514   7.086  0.2075  0.0741  0.1155
  657loPI   C1B10509  17.996  17.091   8.868  0.0061 -0.2694  0.0640
  657loPI   C2B10510  18.099  16.747   8.623 -0.3418 -0.3637 -0.2476
  657loPI   C3B10511  18.291  16.449   8.343  0.0041  0.0662 -0.0736
  657loPI   C4B10512  18.681  16.256   8.311  0.1033 -0.0611  0.1977
  658loPI    C110513  17.671  19.095   9.754 -0.3245  0.0289  0.1688
  658loPI    C210514  17.897  19.232  10.055 -0.1741  0.0971  0.0261
  658loPI    C310515  17.578  19.440   9.933 -0.1143  0.1747  0.0015
  658loPI   PO410516  17.909  18.880   9.571  0.0313 -0.0727  0.0528
  658loPI   GL110517  18.169  18.854   9.233 -0.0145 -0.0177  0.0107
  658loPI   GL210518  18.373  18.850   8.990 -0.2242  0.0828  0.3489
  658loPI   C1A10519  17.941  18.688   8.821 -0.2062  0.1008 -0.0858
  658loPI   C2A10520  17.813  18.362   8.617  0.0539 -0.0403 -0.0512
  658loPI   C3A10521  17.820  18.270   8.273  0.0852 -0.0518  0.1276
  658loPI   C4A10522  17.815  18.117   7.823 -0.0915  0.3516 -0.5347
  658loPI   C5A10523  17.665  17.986   7.447 -0.0325 -0.1116  0.3151
  658loPI   C6A10524  17.817  17.967   7.044  0.3984 -0.1787  0.0338
  658loPI   C1B10525  18.441  18.538   8.654 -0.2270 -0.3052  0.1248
  658loPI   C2B10526  18.546  18.548   8.193  0.0052  0.4434 -0.0478
  658loPI   C3B10527  18.724  18.484   7.763 -0.0867 -0.1613  0.0682
  658loPI   C4B10528  18.688  18.342   7.401  0.1190  0.0360  0.2487
  659loPI    C110529   3.187  12.620  10.372  0.0813  0.0950  0.1803
  659loPI    C210530   3.446  12.354  10.224  0.0418  0.0661  0.1629
  659loPI    C310531   3.513  12.521  10.581  0.1504  0.1550  0.1015
  659loPI   PO410532   3.197  12.774  10.132 -0.2700  0.1176 -0.2577
  659loPI   GL110533   3.183  12.725   9.691 -0.2652  0.0887  0.2183
  659loPI   GL210534   2.986  12.406   9.711 -0.2051  0.1310 -0.2436
  659loPI   C1A10535   3.475  12.541   9.214  0.3264 -0.0500 -0.1500
  659loPI   C2A10536   3.358  12.629   8.733 -0.1478 -0.0158 -0.0876
  659loPI   C3A10537   2.983  12.529   8.438 -0.2772 -0.1445 -0.2123
  659loPI   C4A10538   2.876  12.529   7.946  0.0176 -0.3063 -0.3205
  659loPI   C5A10539   2.407  12.438   7.856 -0.1158  0.2202  0.0166
  659loPI   C6A10540   2.163  12.569   7.521  0.0055 -0.1794  0.1955
  659loPI   C1B10541   2.548  12.425   9.494  0.0325  0.1356 -0.1798
  659loPI   C2B10542   2.385  12.389   9.111 -0.1236  0.0212 -0.0966
  659loPI   C3B10543   2.495  12.410   8.680 -0.2844  0.2711 -0.2134
  659loPI   C4B10544   2.560  12.233   8.280 -0.0211  0.0926  0.2455
  660loPI    C110545  14.208   9.179   9.740 -0.1811  0.2512 -0.0576
  660loPI    C210546  14.182   9.155  10.139  0.1230  0.1471 -0.0411
  660loPI    C310547  14.096   9.499   9.953  0.0935  0.2301  0.1241
  660loPI   PO410548  14.401   9.042   9.677  0.1591  0.0408  0.1377
  660loPI   GL110549  14.430   8.838   9.218  0.0424  0.1303 -0.0895
  660loPI   GL210550  14.349   8.506   9.257 -0.2410  0.0701  0.4724
  660loPI   C1A10551  14.333   8.874   8.695  0.3109  0.0843  0.0726
  660loPI   C2A10552  14.365   8.718   8.182  0.3721  0.2342  0.0087
  660loPI   C3A10553  14.233   8.679   7.822 -0.1245  0.1450  0.1070
  660loPI   C4A10554  13.846   8.495   7.577  0.0355 -0.0379  0.0417
  660loPI   C5A10555  13.532   8.638   7.259  0.0122 -0.2506 -0.4536
  660loPI   C6A10556  13.289   8.748   6.992  0.1013 -0.1063 -0.1730
  660loPI   C1B10557  14.558   8.490   8.879  0.2345 -0.2560  0.0176
  660loPI   C2B10558  14.947   8.580   8.592  0.0706 -0.3762  0.0813
  660loPI   C3B10559  15.286   8.598   8.329  0.0242 -0.2320 -0.0514
  660loPI   C4B10560  14.928   8.620   8.057 -0.1957  0.1790 -0.1665
  661loPI    C110561   4.790  15.427   9.539  0.2520 -0.2267 -0.1173
  661loPI    C210562   5.067  15.451   9.827 -0.1106  0.1817  0.2121
  661loPI    C310563   4.680  15.427   9.924 -0.2134 -0.1394 -0.2447
  661loPI   PO410564   4.876  15.585   9.392 -0.1559 -0.2690 -0.0102
  661loPI   GL110565   5.170  15.895   9.149 -0.3617 -0.0793  0.0597
  661loPI   GL210566   5.396  15.845   8.951  0.0365 -0.1444 -0.0587
  661loPI   C1A10567   4.967  15.917   8.770 -0.5160  0.0106  0.0531
  661loPI   C2A10568   4.868  15.922   8.318 -0.1701 -0.0135 -0.0632
  661loPI   C3A10569   5.142  16.069   7.894 -0.1481  0.1845  0.0761
  661loPI   C4A10570   5.205  16.195   7.451 -0.2353 -0.3053 -0.1835
  661loPI   C5A10571   5.280  16.131   7.055 -0.1235  0.1559 -0.1958
  661loPI   C6A10572   5.244  15.787   6.987  0.2237  0.0103  0.0371
  661loPI   C1B10573   5.432  16.093   8.555  0.1529 -0.2382 -0.1969
  661loPI   C2B10574   5.399  16.283   8.226 -0.0119  0.0124  0.0142
  661loPI   C3B10575   5.639  16.354   7.788  0.3369 -0.2323 -0.2054
  661loPI   C4B10576   5.717  16.470   7.337  0.3280  0.0438  0.1131
  662loPI    C110577  18.960   1.797   9.914  0.2068  0.0836  0.1156
  662loPI    C210578  18.896   1.445  10.093  0.1149  0.1158  0.1467
  662loPI    C310579  18.803   1.785  10.282  0.2216  0.1577  0.1242
  662loPI   PO410580  19.049   1.699   9.630  0.0270  0.1003 -0.0557
  662loPI   GL110581  19.203   1.854   9.245  0.0685 -0.1003 -0.2189
  662loPI   GL210582  19.356   1.604   8.950  0.0599  0.1540 -0.2583
  662loPI   C1A10583  19.050   2.191   8.944 -0.0060 -0.0221 -0.1932
  662loPI   C2A10584  19.077   2.256   8.459  0.1168  0.1078 -0.2521
  662loPI   C3A10585  19.042   2.155   8.102  0.0764 -0.0361  0.1445
  662loPI   C4A10586  19.102   2.133   7.653  0.1665  0.1422 -0.0518
  662loPI   C5A10587  19.031   2.172   7.235  0.3071  0.0636  0.1482
  662loPI   C6A10588  18.703   2.016   6.969  0.2713  0.1685  0.0322
  662loPI   C1B10589  19.189   1.818   8.729  0.1558  0.0546 -0.4245
  662loPI   C2B10590  18.932   1.796   8.442  0.4240 -0.0676  0.2354
  662loPI   C3B10591  18.921   1.695   7.993  0.0706  0.2591 -0.1123
  662loPI   C4B10592  18.721   1.271   7.775  0.0713  0.2046 -0.0352
  663loPI    C110593  14.432  15.588   9.286 -0.3690 -0.1260  0.4599
  663loPI    C210594  14.580  15.217   9.264 -0.1445 -0.0148 -0.0778
  663loPI    C310595  14.639  15.437   9.593 -0.0952 -0.3753  0.1607
  663loPI   PO410596  14.447  15.786   9.080 -0.1072 -0.0092  0.1305
  663loPI   GL110597  14.174  15.985   8.809  0.1664 -0.1950 -0.0413
  663loPI   GL210598  14.518  16.120   8.637 -0.2955  0.1275 -0.0102
  663loPI   C1A10599  14.059  15.933   8.395  0.1974  0.2937 -0.1153
  663loPI   C2A10600  13.771  16.055   8.076 -0.0796  0.1367 -0.1944
  663loPI   C3A10601  13.652  16.004   7.593 -0.0957  0.1295  0.1285
  663loPI   C4A10602  13.492  15.629   7.293 -0.0034  0.4573 -0.0513
  663loPI   C5A10603  13.108  15.758   6.855  0.2754  0.2955 -0.2224
  663loPI   C6A10604  12.771  15.996   6.714 -0.0900  0.0166  0.0213
  663loPI   C1B10605  14.545  16.224   8.236 -0.1114 -0.0241  0.3695
  663loPI   C2B10606  14.498  16.131   7.832 -0.3286 -0.0114 -0.0514
  663loPI   C3B10607  14.560  16.022   7.415  0.0549 -0.0272 -0.2698
  663loPI   C4B10608  14.543  16.286   7.027  0.1658  0.0790 -0.0529
  664loPI    C110609   7.914  12.522   9.339 -0.0971  0.1045 -0.0010
  664loPI    C210610   7.997  12.631   9.715 -0.0850  0.0937 -0.0006
  664loPI    C310611   7.739  12.334   9.645  0.2718 -0.2287  0.0145
  664loPI   PO410612   7.809  12.676   9.195 -0.1568 -0.3580  0.1943
  664loPI   GL110613   7.573  12.673   8.828  0.1302  0.3364 -0.0802
  664loPI   GL210614   7.082  12.718   8.814 -0.1648  0.0299 -0.2585
  664loPI   C1A10615   7.539  12.674   8.451  0.0058  0.1324 -0.4473
  664loPI   C2A10616   7.395  12.677   8.122 -0.1940  0.3503 -0.0007
  664loPI   C3A10617   7.390  12.684   7.725 -0.0502 -0.2243  0.3522
  664loPI   C4A10618   7.411  12.531   7.296 -0.2123  0.1972  0.0173
  664loPI   C5A10619   7.614  12.328   6.901 -0.2835 -0.2275  0.0671
  664loPI   C6A10620   7.768  12.316   6.405  0.1933  0.0244 -0.3168
  664loPI   C1B10621   7.065  12.841   8.497  0.1737  0.1199 -0.1041
  664loPI   C2B10622   7.119  13.154   8.157 -0.0441 -0.0325 -0.0840
  664loPI   C3B10623   7.408  13.409   7.871  0.2482 -0.2116 -0.0386
  664loPI   C4B10624   7.183  13.817   7.729 -0.0435 -0.0894  0.0837
  665loPI    C110625  11.523  16.101   9.925 -0.1660  0.0564  0.0177
  665loPI    C210626  11.755  15.780   9.979  0.2072  0.2680 -0.2843
  665loPI    C310627  11.557  15.937  10.289  0.0631 -0.2143 -0.1222
  665loPI   PO410628  11.613  16.129   9.636  0.1805 -0.2187 -0.2577
  665loPI   GL110629  11.565  16.023   9.260  0.0391  0.0174  0.1252
  665loPI   GL210630  11.297  16.222   9.286 -0.4497 -0.0589 -0.0258
  665loPI   C1A10631  11.720  16.326   8.981 -0.3076 -0.0935 -0.2485
  665loPI   C2A10632  12.045  16.585   8.726 -0.0829 -0.3130  0.1545
  665loPI   C3A10633  12.026  16.416   8.365 -0.0504  0.1006  0.0832
  665loPI   C4A10634  11.960  16.456   7.904  0.5432  0.1050 -0.4544
  665loPI   C5A10635  12.018  16.487   7.572  0.1873 -0.0441  0.2677
  665loPI   C6A10636  12.040  16.840   7.342 -0.2159 -0.0968  0.1894
  665loPI   C1B10637  11.210  16.264   8.942  0.0897 -0.1715  0.3371
  665loPI   C2B10638  11.257  16.319   8.562 -0.2097  0.2295 -0.0139
  665loPI   C3B10639  11.596  16.288   8.328 -0.0660  0.3191 -0.1608
  665loPI   C4B10640  11.893  16.001   8.050  0.3910  0.2047 -0.3285
  666loPI    C110641   6.424   1.300   9.757  0.0870  0.1727  0.0625
  666loPI    C210642   6.473   0.903   9.761  0.0536  0.1575 -0.4203
  666loPI    C310643   6.149   1.067   9.930  0.0388 -0.0240 -0.2700
  666loPI   PO410644   6.462   1.251   9.420  0.3788  0.1385 -0.0005
  666loPI   GL110645   6.634   1.312   8.997 -0.3185 -0.1021 -0.0600
  666loPI   GL210646   6.403   1.072   8.821 -0.1196 -0.1386 -0.2750
  666loPI   C1A10647   6.896   0.977   8.835  0.0501 -0.1406  0.1669
  666loPI   C2A10648   7.052   0.897   8.421 -0.1515 -0.1664  0.1006
  666loPI   C3A10649   7.170   0.981   7.964  0.2652  0.0820 -0.3630
  666loPI   C4A10650   7.417   0.935   7.589  0.0029  0.0824  0.1943
  666loPI   C5A10651   7.651   0.912   7.188 -0.2877 -0.2000 -0.2066
  666loPI   C6A10652   7.509   1.075   6.904  0.0904  0.1440  0.2428
  666loPI   C1B10653   6.677   1.237   8.480  0.0073 -0.1182 -0.1912
  666loPI   C2B10654   6.737   1.347   8.088  0.1298  0.0208  0.0990
  666loPI   C3B10655   6.842   1.363   7.653  0.0237 -0.0321 -0.1517
  666loPI   C4B10656   7.090   1.810   7.474  0.0753  0.0343 -0.2312
  667loPI    C110657  12.161   7.362   9.868 -0.0761 -0.0983  0.0998
  667loPI    C210658  12.457   7.582   9.712 -0.1724 -0.0717 -0.0474
  667loPI    C310659  12.531   7.211   9.844  0.0256  0.1034  0.3506
  667loPI   PO410660  11.973   7.433   9.625  0.1390  0.0658 -0.0650
  667loPI   GL110661  12.104   7.603   9.223  0.0793  0.0524  0.2924
  667loPI   GL210662  12.423   7.710   9.227 -0.0486 -0.3099 -0.1827
  667loPI   C1A10663  11.880   7.830   8.877 -0.1750 -0.0437 -0.0360
  667loPI   C2A10664  11.478   7.741   8.563  0.1863  0.0913 -0.4267
  667loPI   C3A10665  11.199   7.641   8.274  0.1767  0.0860 -0.2183
  667loPI   C4A10666  11.182   7.698   7.908 -0.3289 -0.1959  0.0126
  667loPI   C5A10667  11.232   7.559   7.510  0.1549 -0.0351  0.1579
  667loPI   C6A10668  11.146   7.449   7.117 -0.1825 -0.0311  0.1326
  667loPI   C1B10669  12.315   7.514   8.693  0.3622  0.1056  0.0441
  667loPI   C2B10670  12.416   7.379   8.245 -0.0072  0.2122 -0.0497
  667loPI   C3B10671  12.377   7.174   7.850  0.1619 -0.1083  0.0693
  667loPI   C4B10672  12.099   7.034   7.447 -0.3664 -0.1420  0.0357
  668loPI    C110673   6.017   8.206   9.934  0.1602 -0.0989 -0.0596
  668loPI    C210674   5.670   8.035  10.038 -0.1521  0.3905 -0.2609
  668loPI    C310675   5.973   8.047  10.299 -0.2909 -0.0191 -0.0724
  668loPI   PO410676   6.043   8.124   9.661  0.1799  0.1925  0.3154
  668loPI   GL110677   6.122   7.858   9.324 -0.4531  0.2250  0.3132
  668loPI   GL210678   5.909   7.535   9.220  0.1085 -0.1335 -0.1012
  668loPI   C1A10679   5.964   7.933   8.911  0.2789  0.3198  0.3054
  668loPI   C2A10680   5.812   7.719   8.527  0.0903 -0.1895 -0.0197
  668loPI   C3A10681   5.657   7.591   8.110 -0.4217 -0.2089 -0.1180
  668loPI   C4A10682   5.553   7.377   7.722 -0.2244  0.0503 -0.2252
  668loPI   C5A10683   5.642   7.167   7.328 -0.2757  0.0834 -0.3051
  668loPI   C6A10684   5.731   7.029   6.964  0.1393  0.0737  0.0356
  668loPI   C1B10685   5.504   7.539   8.955  0.1719 -0.1988 -0.0814
  668loPI   C2B10686   5.275   7.609   8.533  0.0690  0.0344 -0.0501
  668loPI   C3B10687   4.964   7.750   8.300 -0.0074  0.0749 -0.1084
  668loPI   C4B10688   4.852   7.830   7.890 -0.0644 -0.2940  0.3243
  669loPI    C110689  15.457   0.228   9.299  0.2223 -0.1376  0.0341
  669loPI    C210690  15.686  -0.100   9.279 -0.0193 -0.3211  0.2091
  669loPI    C310691  15.508  -0.001   9.624  0.1414  0.0599  0.1881
  669loPI   PO410692  15.446   0.274   9.035 -0.0107 -0.1327  0.2392
  669loPI   GL110693  15.217   0.261   8.744 -0.1007 -0.1042 -0.0801
  669loPI   GL210694  15.463   0.450   8.525 -0.3851  0.2517 -0.2889
  669loPI   C1A10695  14.985   0.375   8.322  0.3467 -0.0459  0.0556
  669loPI   C2A10696  14.792   0.299   7.942  0.0231 -0.1267  0.2423
  669loPI   C3A10697  14.610   0.246   7.618 -0.0995  0.0644  0.1218
  669loPI   C4A10698  14.661   0.406   7.187  0.4086  0.3215 -0.4105
  669loPI   C5A10699  14.474   0.425   6.766 -0.2053  0.0462 -0.0794
  669loPI   C6A10700  14.120   0.396   6.484 -0.0729 -0.2033 -0.1254
  669loPI   C1B10701  15.635   0.565   8.133 -0.1101  0.0894  0.2221
  669loPI   C2B10702  15.758   0.710   7.709  0.1571 -0.4532 -0.0206
  669loPI   C3B10703  15.866   1.070   7.404 -0.3383  0.0619  0.2619
  669loPI   C4B10704  16.266   1.119   7.223 -0.0338  0.3598  0.0112
  670loPI    C110705   7.389   0.728   9.682 -0.1975 -0.0451  0.0237
  670loPI    C210706   7.210   0.436   9.889 -0.1112 -0.0959  0.0274
  670loPI    C310707   7.012   0.774   9.808 -0.2373 -0.1855 -0.0420
  670loPI   PO410708   7.577   0.509   9.446  0.1443 -0.2328 -0.0245
  670loPI   GL110709   7.787   0.630   8.997 -0.0460 -0.2173 -0.1964
  670loPI   GL210710   8.042   0.498   8.896 -0.2284  0.0457 -0.0667
  670loPI   C1A10711   7.653   0.699   8.557  0.0285 -0.0924 -0.0563
  670loPI   C2A10712   7.325   0.526   8.174  0.4497 -0.1360  0.0040
  670loPI   C3A10713   7.059   0.541   7.824 -0.1183  0.2524  0.0295
  670loPI   C4A10714   7.001   0.323   7.537  0.0504 -0.1757  0.1613
  670loPI   C5A10715   6.952   0.163   7.123 -0.1303 -0.1534  0.2891
  670loPI   C6A10716   6.989  -0.035   6.765  0.1825 -0.3452 -0.1465
  670loPI   C1B10717   8.346   0.421   8.656  0.0038 -0.0107 -0.1509
  670loPI   C2B10718   8.573   0.352   8.209  0.0582  0.1218 -0.0751
  670loPI   C3B10719   8.639   0.504   7.756 -0.1745 -0.2596 -0.0467
  670loPI   C4B10720   8.762   0.508   7.313  0.1553 -0.0518 -0.2501
  671loPI    C110721  17.685  12.133   9.539 -0.0890  0.0053 -0.0897
  671loPI    C210722  17.939  12.143   9.847 -0.2869  0.1085  0.0726
  671loPI    C310723  17.658  11.860   9.830 -0.0443 -0.1221 -0.2041
  671loPI   PO410724  17.812  12.258   9.353 -0.2082  0.1180  0.3659
  671loPI   GL110725  17.725  12.365   9.011 -0.4678  0.0255  0.2964
  671loPI   GL210726  17.398  12.100   9.092 -0.2580  0.0993  0.0954
  671loPI   C1A10727  18.036  12.354   8.581 -0.3246  0.0378  0.0447
  671loPI   C2A10728  18.047  12.534   8.273 -0.1803  0.1062  0.2294
  671loPI   C3A10729  18.404  12.815   8.063 -0.4905  0.0163  0.1390
  671loPI   C4A10730  18.346  13.170   7.864  0.0958  0.0315 -0.3096
  671loPI   C5A10731  18.379  13.185   7.374 -0.1511  0.0389  0.2041
  671loPI   C6A10732  18.363  13.402   7.012  0.0603  0.0290  0.0887
  671loPI   C1B10733  17.528  12.273   8.610  0.3225 -0.1693  0.1554
  671loPI   C2B10734  17.548  12.408   8.146 -0.0789 -0.0779  0.1284
  671loPI   C3B10735  17.397  12.450   7.702  0.1909  0.1357 -0.0395
  671loPI   C4B10736  17.174  12.310   7.365  0.1467 -0.0220  0.0097
  672loPI    C110737  13.169  16.769   9.852  0.2163 -0.2792  0.1684
  672loPI    C210738  13.499  16.961   9.973  0.0718  0.0319  0.0792
  672loPI    C310739  13.246  16.808  10.242  0.0600  0.1897  0.1584
  672loPI   PO410740  13.249  16.587   9.684  0.2611 -0.5225 -0.4099
  672loPI   GL110741  13.094  16.717   9.198 -0.0343 -0.1788 -0.0235
  672loPI   GL210742  12.909  16.470   9.158  0.3671  0.2155  0.3441
  672loPI   C1A10743  13.415  16.878   8.928  0.0655  0.1543  0.0623
  672loPI   C2A10744  13.332  16.980   8.529 -0.1304 -0.1825  0.2047
  672loPI   C3A10745  13.177  17.096   8.221 -0.0598  0.1698 -0.0606
  672loPI   C4A10746  13.413  16.999   7.857  0.1009  0.0626 -0.1160
  672loPI   C5A10747  13.621  17.006   7.422 -0.1994 -0.2752 -0.1061
  672loPI   C6A10748  13.565  16.996   7.093 -0.1202  0.0369 -0.1991
  672loPI   C1B10749  13.026  16.578   8.729  0.1970  0.0014  0.1988
  672loPI   C2B10750  13.007  16.493   8.271 -0.1795  0.1744 -0.2074
  672loPI   C3B10751  12.906  16.344   7.896  0.0355  0.2143 -0.2866
  672loPI   C4B10752  12.781  16.568   7.599 -0.0370 -0.1447 -0.1563
  673loPI    C110753   2.345   4.421   9.480  0.2738  0.2615 -0.0872
  673loPI    C210754   2.071   4.347   9.762  0.1102 -0.0319 -0.3166
  673loPI    C310755   2.440   4.462   9.866 -0.0436  0.1889  0.0012
  673loPI   PO410756   2.198   4.258   9.298 -0.0295 -0.3535  0.3064
  673loPI   GL110757   1.820   4.313   9.034  0.0856 -0.1567 -0.2520
  673loPI   GL210758   1.910   4.002   8.990  0.1990 -0.0230  0.0655
  673loPI   C1A10759   1.732   4.618   8.746  0.0017 -0.2199  0.0343
  673loPI   C2A10760   1.511   4.826   8.364 -0.0106  0.0006 -0.1477
  673loPI   C3A10761   1.509   4.780   7.932 -0.0032  0.0540  0.0919
  673loPI   C4A10762   1.634   4.594   7.607 -0.2384 -0.2781  0.3569
  673loPI   C5A10763   1.640   4.321   7.200 -0.0569 -0.0831  0.1326
  673loPI   C6A10764   1.726   3.897   7.138 -0.0431  0.2076  0.0836
  673loPI   C1B10765   2.141   4.194   8.601 -0.0420 -0.1536 -0.1175
  673loPI   C2B10766   2.452   4.012   8.386  0.0056  0.3668 -0.2328
  673loPI   C3B10767   2.583   4.076   7.940 -0.1994  0.0289 -0.0691
  673loPI   C4B10768   2.601   4.041   7.499 -0.1283 -0.0504 -0.2377
  674loPI    C110769  13.528  11.071   9.467  0.2812 -0.1542 -0.0003
  674loPI    C210770  13.861  10.861   9.538  0.2069 -0.2767 -0.0117
  674loPI    C310771  13.513  10.747   9.700  0.1769 -0.1268  0.0317
  674loPI   PO410772  13.671  11.384   9.495  0.1973  0.1158 -0.0892
  674loPI   GL110773  13.833  11.341   9.129 -0.0839 -0.0721  0.2708
  674loPI   GL210774  13.922  10.990   8.999  0.1065 -0.0757  0.3292
  674loPI   C1A10775  13.700  11.590   8.852  0.1207 -0.0431  0.2723
  674loPI   C2A10776  13.815  11.734   8.426 -0.3539  0.1458  0.5560
  674loPI   C3A10777  13.793  12.159   8.127  0.1930  0.2402  0.0957
  674loPI   C4A10778  13.662  12.386   7.810  0.2912  0.0218  0.4964
  674loPI   C5A10779  13.629  12.516   7.346 -0.2665  0.1513  0.0544
  674loPI   C6A10780  13.745  12.742   7.023  0.2202  0.0315 -0.1257
  674loPI   C1B10781  13.983  11.279   8.595 -0.1089  0.0091  0.1868
  674loPI   C2B10782  13.888  11.268   8.186  0.0208 -0.3148 -0.2728
  674loPI   C3B10783  13.648  11.608   7.972  0.0974 -0.0247  0.3034
  674loPI   C4B10784  13.779  11.861   7.656 -0.0749  0.1460 -0.0811
  675loPI    C110785   7.306   2.108   9.601 -0.0929 -0.1459 -0.0612
  675loPI    C210786   7.337   2.213   9.986 -0.1815 -0.3415  0.0005
  675loPI    C310787   7.160   2.459   9.725  0.0266 -0.1351  0.0509
  675loPI   PO410788   7.316   1.956   9.395  0.2552  0.0530 -0.2594
  675loPI   GL110789   7.402   1.970   9.025  0.1139 -0.1151 -0.0847
  675loPI   GL210790   7.136   2.193   8.896 -0.4065 -0.4098  0.0688
  675loPI   C1A10791   7.504   1.790   8.641  0.0169 -0.4182  0.1096
  675loPI   C2A10792   7.547   1.882   8.248 -0.1936  0.0153  0.0648
  675loPI   C3A10793   7.629   1.956   7.820 -0.1362 -0.2308 -0.1786
  675loPI   C4A10794   7.525   2.138   7.533 -0.2382 -0.1711  0.1076
  675loPI   C5A10795   7.426   2.509   7.186 -0.0324  0.2845  0.1019
  675loPI   C6A10796   7.321   2.804   6.877 -0.1428 -0.3103  0.0400
  675loPI   C1B10797   7.003   1.968   8.597 -0.2513  0.1256  0.3267
  675loPI   C2B10798   7.097   2.008   8.244 -0.4271 -0.0142  0.0174
  675loPI   C3B10799   6.997   2.157   7.916 -0.0057  0.1888  0.2556
  675loPI   C4B10800   6.995   2.293   7.493  0.0328  0.1785  0.1757
  676loPI    C110801  16.282  18.188   9.649  0.1211 -0.0859  0.0250
  676loPI    C210802  15.968  18.170   9.895 -0.1777 -0.0824 -0.3474
  676loPI    C310803  16.135  17.833   9.758 -0.0002 -0.0846 -0.1309
  676loPI   PO410804  16.214  18.342   9.440 -0.0011 -0.1180 -0.1173
  676loPI   GL110805  16.386  18.429   9.106 -0.1583  0.0916 -0.1891
  676loPI   GL210806  16.659  18.483   9.045  0.2309  0.3243  0.1879
  676loPI   C1A10807  16.147  18.583   8.761 -0.0450 -0.0851 -0.1137
  676loPI   C2A10808  16.025  18.580   8.275  0.3465 -0.4661  0.1324
  676loPI   C3A10809  16.132  18.513   7.864  0.0634  0.2578 -0.1436
  676loPI   C4A10810  16.467  18.628   7.612  0.1399 -0.1360 -0.0927
  676loPI   C5A10811  16.615  18.554   7.191  0.0728  0.1433 -0.0516
  676loPI   C6A10812  16.807  18.778   6.855  0.2208 -0.1292  0.0630
  676loPI   C1B10813  16.909  18.439   8.742  0.0743  0.1783  0.0791
  676loPI   C2B10814  17.290  18.277   8.614  0.0475 -0.1514  0.1916
  676loPI   C3B10815  17.302  17.949   8.301  0.7296 -0.1775 -0.1703
  676loPI   C4B10816  17.252  17.925   7.850 -0.3597 -0.0279 -0.2325
  677PSPI    C110817  12.561   4.934   4.955  0.1338 -0.3067  0.2568
  677PSPI    C210818  12.837   4.745   4.735  0.0982 -0.1408  0.0673
  677PSPI    C310819  12.472   4.813   4.585  0.1432  0.1696  0.0922
  677PSPI   PO410820  12.498   4.775   5.190  0.0359 -0.0144  0.1462
  677PSPI   GL110821  12.559   4.519   5.512  0.1427 -0.2426 -0.3344
  677PSPI   GL210822  12.282   4.688   5.668  0.2024  0.1842 -0.2176
  677PSPI   C1A10823  12.878   4.644   5.813 -0.1599  0.0568 -0.0462
  677PSPI   C2A10824  12.874   4.641   6.275  0.2525  0.1107  0.3732
  677PSPI   C3A10825  13.033   4.924   6.641  0.1125 -0.0561 -0.1760
  677PSPI   C4A10826  13.085   5.238   6.870  0.1739 -0.0974  0.3081
  677PSPI   C1B10827  12.396   4.644   6.088  0.1990  0.1657  0.0182
  677PSPI   C2B10828  12.475   4.664   6.555 -0.1057  0.2354  0.0817
  677PSPI   C3B10829  12.478   4.732   6.966 -0.0290 -0.0368  0.1814
  677PSPI   C4B10830  12.160   4.488   7.196  0.0572  0.1385  0.0417
  678PSPI    C110831  14.646   1.462   4.535 -0.0888  0.1209 -0.2871
  678PSPI    C210832  14.603   1.147   4.292 -0.1822 -0.0118 -0.1011
  678PSPI    C310833  14.965   1.245   4.431 -0.1618 -0.0760 -0.1087
  678PSPI   PO410834  14.553   1.488   4.775  0.0815  0.2748  0.1914
  678PSPI   GL110835  14.513   1.645   5.202  0.0628  0.1399  0.0390
  678PSPI   GL210836  14.701   1.372   5.230  0.0071  0.0159 -0.0363
  678PSPI   C1A10837  14.684   1.862   5.565  0.3161 -0.1886  0.0590
  678PSPI   C2A10838  15.021   1.950   5.788 -0.1756 -0.0197  0.0682
  678PSPI   C3A10839  15.243   1.732   6.131  0.2464 -0.2808  0.1754
  678PSPI   C4A10840  15.608   1.834   6.243  0.0154 -0.2843  0.3875
  678PSPI   C1B10841  14.561   1.365   5.718  0.2341 -0.1607  0.3274
  678PSPI   C2B10842  14.785   1.475   6.038 -0.1705  0.1629 -0.2701
  678PSPI   C3B10843  14.774   1.742   6.369 -0.0197 -0.4770  0.0440
  678PSPI   C4B10844  14.697   1.964   6.754  0.1698  0.0022  0.1819
  679PSPI    C110845  18.018   0.844   4.636  0.1591 -0.4140  0.1481
  679PSPI    C210846  17.694   0.656   4.777 -0.2726  0.2208  0.0438
  679PSPI    C310847  17.684   0.829   4.416  0.1854  0.2561  0.0420
  679PSPI   PO410848  18.261   0.721   4.857  0.1874  0.1254  0.4127
  679PSPI   GL110849  18.453   0.587   5.240  0.4168  0.1969 -0.0890
  679PSPI   GL210850  18.712   0.473   5.400  0.0960  0.3822 -0.0854
  679PSPI   C1A10851  18.281   0.350   5.560  0.0641 -0.3364 -0.1718
  679PSPI   C2A10852  18.355   0.175   5.943 -0.0978  0.1611 -0.2145
  679PSPI   C3A10853  18.300   0.150   6.269 -0.1490  0.1263  0.0535
  679PSPI   C4A10854  18.397   0.318   6.623 -0.0894  0.0272  0.1218
  679PSPI   C1B10855  18.890   0.225   5.705 -0.0507 -0.3330  0.0361
  679PSPI   C2B10856  19.121   0.349   6.080 -0.0978 -0.0220 -0.1964
  679PSPI   C3B10857  19.152   0.360   6.527 -0.0727 -0.0436  0.0832
  679PSPI   C4B10858  19.298   0.136   7.000 -0.0272  0.1923  0.1428
  680PSPI    C110859   3.406  14.533   4.995 -0.0154  0.0838 -0.1431
  680PSPI    C210860   3.545  14.900   4.920  0.1142  0.0401 -0.1200
  680PSPI    C310861   3.492  14.641   4.620  0.3503 -0.0360 -0.0981
  680PSPI   PO410862   3.502  14.400   5.226 -0.3297  0.0510 -0.0540
  680PSPI   GL110863   3.748  14.280   5.657 -0.0764  0.1781  0.2112
  680PSPI   GL210864   3.636  13.927   5.611 -0.1949 -0.1762  0.0791
  680PSPI   C1A10865   3.582  14.520   5.971  0.0433  0.2068  0.1420
  680PSPI   C2A10866   3.614  14.432   6.398  0.3278  0.1268  0.0238
  680PSPI   C3A10867   3.667  14.523   6.814  0.3690 -0.0783 -0.0602
  680PSPI   C4A10868   3.696  14.460   7.225 -0.1005 -0.5191 -0.4348
  680PSPI   C1B10869   3.551  13.893   5.937  0.2195  0.2046 -0.2781
  680PSPI   C2B10870   3.475  13.954   6.344 -0.1547  0.0738  0.0909
  680PSPI   C3B10871   3.498  14.080   6.699  0.0231 -0.1333 -0.0204
  680PSPI   C4B10872   3.810  14.029   6.980 -0.1280  0.4041 -0.2395
  681PSPI    C110873   4.618   6.591   5.322 -0.0854 -0.0605  0.0835
  681PSPI    C210874   4.824   6.776   5.034 -0.2526 -0.2243 -0.1449
  681PSPI    C310875   4.852   6.902   5.412  0.0624 -0.0821 -0.2123
  681PSPI   PO410876   4.744   6.319   5.367 -0.1538  0.1074 -0.0442
  681PSPI   GL110877   4.770   6.070   5.744 -0.0718  0.2385  0.1942
  681PSPI   GL210878   4.487   5.860   5.855  0.0801  0.3083 -0.1298
  681PSPI   C1A10879   4.690   6.249   6.130  0.0311  0.1025  0.0621
  681PSPI   C2A10880   4.718   6.169   6.564  0.2812  0.2654 -0.1622
  681PSPI   C3A10881   4.574   6.378   6.936 -0.2296 -0.0156 -0.1173
  681PSPI   C4A10882   4.689   6.738   7.240  0.1917  0.0067 -0.0246
  681PSPI   C1B10883   4.273   5.696   6.215  0.0469  0.1127 -0.0488
  681PSPI   C2B10884   4.199   5.505   6.609 -0.0112 -0.1883  0.1237
  681PSPI   C3B10885   4.294   5.474   6.908 -0.2217 -0.1480  0.0148
  681PSPI   C4B10886   4.679   5.327   7.102  0.0069  0.1724  0.0566
  682PSPI    C110887  14.832   7.355   5.007 -0.1018 -0.1766 -0.0052
  682PSPI    C210888  14.967   7.671   4.803  0.0731 -0.2377  0.0146
  682PSPI    C310889  14.815   7.357   4.607  0.2563 -0.3034 -0.0244
  682PSPI   PO410890  14.996   7.571   5.307  0.1569 -0.0813  0.1448
  682PSPI   GL110891  15.244   7.583   5.651 -0.0775 -0.2560  0.1993
  682PSPI   GL210892  15.390   7.894   5.568 -0.0513 -0.0791  0.2480
  682PSPI   C1A10893  15.268   7.374   6.080  0.1641  0.0094  0.0253
  682PSPI   C2A10894  15.389   7.179   6.408 -0.0382  0.0004  0.3364
  682PSPI   C3A10895  15.532   7.165   6.802 -0.3026 -0.0290  0.1381
  682PSPI   C4A10896  15.973   7.009   7.042  0.1502  0.0528 -0.1835
  682PSPI   C1B10897  15.400   7.965   5.980 -0.0437  0.2982 -0.1028
  682PSPI   C2B10898  15.628   7.958   6.397 -0.0173 -0.1506  0.0642
  682PSPI   C3B10899  15.486   7.761   6.745 -0.0608  0.0199  0.2168
  682PSPI   C4B10900  15.279   7.738   7.110 -0.1183 -0.0730  0.0106
  683PSPI    C110901  17.463   6.920   5.240  0.1573  0.0082  0.0520
  683PSPI    C210902  17.409   7.311   5.173 -0.1143  0.0311  0.3793
  683PSPI    C310903  17.226   7.041   4.941 -0.1070  0.0994  0.2935
  683PSPI   PO410904  17.660   6.896   5.319 -0.1197  0.1105  0.1249
  683PSPI   GL110905  17.726   7.035   5.720  0.4187 -0.0134  0.0802
  683PSPI   GL210906  18.022   7.133   5.748  0.0735  0.2965 -0.1378
  683PSPI   C1A10907  17.608   7.269   6.020 -0.1251  0.2388  0.1628
  683PSPI   C2A10908  17.729   7.092   6.415 -0.0030 -0.1782 -0.0640
  683PSPI   C3A10909  17.658   6.869   6.784 -0.1765  0.3357  0.0992
  683PSPI   C4A10910  17.235   6.884   6.901  0.1631  0.3573 -0.0179
  683PSPI   C1B10911  18.157   7.028   6.092  0.0408  0.2778  0.0660
  683PSPI   C2B10912  18.303   6.943   6.506  0.1071  0.0437 -0.2659
  683PSPI   C3B10913  18.184   6.730   6.864 -0.1459  0.2776  0.1514
  683PSPI   C4B10914  17.906   6.519   7.061 -0.1190  0.0805  0.1829
  684PSPI    C110915  12.087   2.309   4.878  0.1897  0.1374 -0.1825
  684PSPI    C210916  12.133   2.696   4.970 -0.0967  0.1494 -0.0816
  684PSPI    C310917  12.022   2.590   4.600 -0.4100  0.1900 -0.0021
  684PSPI   PO410918  12.250   2.220   5.107 -0.3776  0.0640  0.0324
  684PSPI   GL110919  12.379   2.370   5.521 -0.1601  0.0617  0.0693
  684PSPI   GL210920  12.129   2.570   5.408  0.0637  0.2332 -0.0175
  684PSPI   C1A10921  12.501   2.472   5.963 -0.1613  0.2823 -0.2513
  684PSPI   C2A10922  12.816   2.353   6.294  0.2595 -0.1929  0.0574
  684PSPI   C3A10923  13.055   2.208   6.709 -0.0171 -0.2616  0.2450
  684PSPI   C4A10924  13.388   2.364   6.920 -0.0600 -0.2025 -0.0388
  684PSPI   C1B10925  12.047   2.748   5.789 -0.1274 -0.1091 -0.2631
  684PSPI   C2B10926  12.090   2.786   6.179  0.0619  0.1247 -0.0891
  684PSPI   C3B10927  11.851   2.598   6.504 -0.1005  0.0402 -0.1690
  684PSPI   C4B10928  12.011   2.316   6.908  0.2969  0.0354 -0.0635
  685PSPI    C110929   9.241  12.280   4.916 -0.1865  0.1947 -0.0848
  685PSPI    C210930   9.260  12.081   4.569  0.0894 -0.0940  0.0912
  685PSPI    C310931   9.344  12.472   4.580  0.1504 -0.0986 -0.1554
  685PSPI   PO410932   9.439  12.090   5.118 -0.0270  0.1633  0.0844
  685PSPI   GL110933   9.405  12.019   5.562 -0.0424  0.1893 -0.2966
  685PSPI   GL210934   9.197  11.719   5.458 -0.0588  0.3692 -0.0943
  685PSPI   C1A10935   9.385  11.986   5.933  0.0524  0.1492  0.0584
  685PSPI   C2A10936   9.494  12.129   6.330  0.1102  0.1211  0.2470
  685PSPI   C3A10937   9.841  12.025   6.622 -0.2117  0.1925  0.2151
  685PSPI   C4A10938  10.103  11.710   6.785  0.0299  0.2456 -0.0119
  685PSPI   C1B10939   8.944  11.858   5.762 -0.0459  0.1505  0.0235
  685PSPI   C2B10940   9.021  11.753   6.148 -0.0316  0.0405  0.0463
  685PSPI   C3B10941   9.298  11.682   6.443  0.2697  0.1061  0.1092
  685PSPI   C4B10942   9.470  11.787   6.946 -0.2232  0.4994  0.0838
  686PSPI    C110943   7.127   7.174   5.248 -0.1324 -0.0500 -0.0180
  686PSPI    C210944   7.146   7.569   5.186 -0.1870 -0.0447 -0.0022
  686PSPI    C310945   7.479   7.363   5.269 -0.1568 -0.0039 -0.0212
  686PSPI   PO410946   6.872   7.066   5.394 -0.4230  0.1480  0.1587
  686PSPI   GL110947   6.754   6.851   5.824 -0.1196 -0.0132  0.0785
  686PSPI   GL210948   6.894   6.952   6.080 -0.1373 -0.2199 -0.2122
  686PSPI   C1A10949   6.605   6.524   6.059  0.1118  0.2342  0.0034
  686PSPI   C2A10950   6.565   6.497   6.583 -0.1314 -0.1353 -0.0719
  686PSPI   C3A10951   6.929   6.538   6.837  0.1462  0.2831  0.2393
  686PSPI   C4A10952   6.916   6.383   7.190  0.2220  0.2631  0.1445
  686PSPI   C1B10953   7.021   6.886   6.499 -0.1267 -0.2518  0.0271
  686PSPI   C2B10954   7.030   7.114   6.898 -0.0932 -0.0089 -0.1040
  686PSPI   C3B10955   7.164   7.261   7.278 -0.5667 -0.3120 -0.1853
  686PSPI   C4B10956   7.457   7.123   7.417  0.3619 -0.0043  0.2030
  687PSPI    C110957  14.126  13.161   4.664 -0.1728 -0.0811  0.1326
  687PSPI    C210958  14.195  13.532   4.797 -0.0369 -0.0236 -0.0938
  687PSPI    C310959  13.840  13.440   4.639 -0.0442  0.0319 -0.1101
  687PSPI   PO410960  14.168  12.988   4.893 -0.1914 -0.4366 -0.0652
  687PSPI   GL110961  14.208  12.841   5.253 -0.0652  0.1869  0.0725
  687PSPI   GL210962  13.910  12.853   5.482  0.0230 -0.2422  0.0651
  687PSPI   C1A10963  14.384  13.180   5.475 -0.1711 -0.1965  0.0935
  687PSPI   C2A10964  14.525  13.138   5.911 -0.3594 -0.0308 -0.0673
  687PSPI   C3A10965  14.917  13.174   6.039  0.1838  0.2464  0.1283
  687PSPI   C4A10966  15.296  12.958   6.202  0.0674 -0.0487  0.2776
  687PSPI   C1B10967  14.305  12.706   5.701 -0.0222 -0.2670  0.1493
  687PSPI   C2B10968  14.505  12.546   6.012  0.0812  0.0503  0.1529
  687PSPI   C3B10969  14.643  12.389   6.429 -0.0953 -0.0371  0.1514
  687PSPI   C4B10970  14.947  12.276   6.701  0.4278 -0.2011 -0.1099
  688PSPI    C110971   9.191  17.253   4.896 -0.2371  0.1221 -0.2465
  688PSPI    C210972   9.268  16.864   4.949 -0.2739  0.1260 -0.1638
  688PSPI    C310973   9.456  17.068   4.661 -0.0632  0.1073 -0.0419
  688PSPI   PO410974   8.840  17.252   4.987 -0.0338  0.5113  0.1322
  688PSPI   GL110975   8.647  17.353   5.446 -0.3460  0.0373  0.6580
  688PSPI   GL210976   8.817  17.146   5.438  0.2439  0.2016 -0.1813
  688PSPI   C1A10977   8.598  17.558   5.832  0.0008  0.1942 -0.1151
  688PSPI   C2A10978   8.598  17.729   6.267 -0.1059 -0.4599 -0.2139
  688PSPI   C3A10979   8.459  17.841   6.622  0.0437 -0.0276  0.1107
  688PSPI   C4A10980   8.533  17.693   7.078  0.2190  0.4239  0.2878
  688PSPI   C1B10981   8.968  17.194   5.907  0.1035 -0.0727  0.1875
  688PSPI   C2B10982   9.214  16.973   6.166 -0.2415 -0.2653  0.1888
  688PSPI   C3B10983   9.419  16.684   6.416  0.1964 -0.1821  0.0922
  688PSPI   C4B10984   9.635  16.820   6.829  0.0965  0.0836  0.3186
  689PSPI    C110985  13.487   8.366   5.455 -0.0266 -0.3766  0.0315
  689PSPI    C210986  13.883   8.329   5.492  0.0152  0.0389  0.0522
  689PSPI    C310987  13.717   8.346   5.129  0.0424  0.1106  0.0431
  689PSPI   PO410988  13.357   8.178   5.565 -0.0724 -0.2262 -0.4632
  689PSPI   GL110989  13.347   7.763   5.734 -0.0702  0.2346 -0.2678
  689PSPI   GL210990  13.020   7.579   5.785 -0.0423  0.2097  0.0773
  689PSPI   C1A10991  13.411   7.597   6.187  0.0539  0.2708 -0.2249
  689PSPI   C2A10992  13.526   7.369   6.605  0.0920  0.2588 -0.1552
  689PSPI   C3A10993  13.507   6.990   6.816  0.1544 -0.1413 -0.0567
  689PSPI   C4A10994  13.617   6.650   7.156  0.0818  0.1743  0.3017
  689PSPI   C1B10995  13.010   7.113   5.897  0.0877 -0.1149  0.0176
  689PSPI   C2B10996  12.686   6.959   6.158 -0.1306 -0.0786  0.0933
  689PSPI   C3B10997  12.709   6.684   6.509  0.1695 -0.2359  0.1336
  689PSPI   C4B10998  12.647   6.525   6.985 -0.1559 -0.0522  0.1723
  690PSPI    C110999   5.787   8.373   5.061 -0.3420  0.1906 -0.1890
  690PSPI    C211000   6.057   8.434   4.773 -0.1114 -0.0250 -0.0230
  690PSPI    C311001   5.943   8.062   4.865 -0.1618  0.0400  0.1828
  690PSPI   PO411002   5.897   8.515   5.274  0.1396  0.0045  0.1367
  690PSPI   GL111003   5.738   8.631   5.717 -0.0144 -0.2601  0.4249
  690PSPI   GL211004   5.813   8.392   5.786 -0.1619 -0.1332 -0.0788
  690PSPI   C1A11005   5.668   9.038   5.950 -0.2327  0.1829  0.2864
  690PSPI   C2A11006   5.617   9.280   6.304  0.3087 -0.1131  0.1176
  690PSPI   C3A11007   5.363   9.249   6.593 -0.1666  0.0423 -0.2613
  690PSPI   C4A11008   5.297   8.988   6.991  0.1391  0.1610 -0.3007
  690PSPI   C1B11009   5.626   8.421   6.128  0.2161 -0.2296  0.1604
  690PSPI   C2B11010   5.436   8.350   6.602 -0.2498 -0.1207  0.3094
  690PSPI   C3B11011   5.465   8.422   7.061  0.0758  0.1241 -0.3538
  690PSPI   C4B11012   5.632   8.188   7.385 -0.0591 -0.1278 -0.1894
  691PSPI    C111013  18.927   8.295   5.221 -0.0170  0.2088 -0.2037
  691PSPI    C211014  18.868   8.401   4.840  0.1225 -0.2422 -0.3579
  691PSPI    C311015  18.986   8.029   4.927 -0.1843 -0.2294  0.1484
  691PSPI   PO411016  18.722   8.300   5.426 -0.0188  0.0248  0.2756
  691PSPI   GL111017  18.516   7.961   5.764 -0.4277 -0.0003 -0.3063
  691PSPI   GL211018  18.737   7.698   5.939  0.0828 -0.2691  0.0302
  691PSPI   C1A11019  18.196   8.041   6.046  0.0200  0.1166 -0.1333
  691PSPI   C2A11020  18.057   8.070   6.434  0.2650  0.2882  0.0321
  691PSPI   C3A11021  17.883   7.801   6.809 -0.2071  0.2449  0.0715
  691PSPI   C4A11022  18.042   7.271   6.727 -0.3145  0.0654 -0.2272
  691PSPI   C1B11023  18.914   7.577   6.354  0.1188  0.2937 -0.0603
  691PSPI   C2B11024  19.115   7.755   6.690 -0.0456 -0.0322 -0.1810
  691PSPI   C3B11025  19.415   8.084   6.874  0.2116 -0.3879 -0.1001
  691PSPI   C4B11026  19.647   8.312   7.149  0.0209 -0.1736  0.1060
  692PSPI    C111027  16.338  12.891   5.104  0.0072  0.1333 -0.1752
  692PSPI    C211028  16.205  12.621   4.840 -0.1989  0.0764 -0.0155
  692PSPI    C311029  15.949  12.798   5.092 -0.0722  0.4505 -0.1429
  692PSPI   PO411030  16.542  12.792   5.201  0.1363  0.0677  0.0944
  692PSPI   GL111031  16.822  13.048   5.473  0.1526 -0.2353 -0.1612
  692PSPI   GL211032  16.653  13.253   5.333  0.1023  0.1636 -0.0708
  692PSPI   C1A11033  17.080  13.187   5.894 -0.2430 -0.0048 -0.1643
  692PSPI   C2A11034  17.334  13.193   6.271 -0.0519 -0.3351  0.2114
  692PSPI   C3A11035  17.741  13.137   6.399  0.3961 -0.1760 -0.1867
  692PSPI   C4A11036  17.951  13.338   6.639  0.3273 -0.1497  0.5694
  692PSPI   C1B11037  16.506  13.310   5.763  0.1144  0.2803 -0.0291
  692PSPI   C2B11038  16.360  13.446   6.130 -0.2451 -0.2082 -0.0901
  692PSPI   C3B11039  16.127  13.602   6.522  0.1011 -0.1659  0.1317
  692PSPI   C4B11040  15.844  13.878   6.853 -0.2490  0.2027 -0.3571
  693PSPI    C111041   9.467   4.684   5.014 -0.2136 -0.0202 -0.0022
  693PSPI    C211042   9.536   5.035   4.834  0.0041 -0.0995 -0.0761
  693PSPI    C311043   9.706   4.701   4.694 -0.0457 -0.2051  0.1112
  693PSPI   PO411044   9.511   4.843   5.277  0.0763 -0.0035  0.0060
  693PSPI   GL111045   9.528   5.164   5.685  0.1731 -0.0331 -0.1317
  693PSPI   GL211046   9.924   5.181   5.672 -0.2283  0.2505  0.0673
  693PSPI   C1A11047   9.542   5.436   5.971 -0.2847  0.1185  0.2588
  693PSPI   C2A11048   9.579   5.629   6.277  0.0424  0.4259  0.0314
  693PSPI   C3A11049   9.527   5.631   6.709  0.0945  0.1840  0.0035
  693PSPI   C4A11050   9.394   5.517   7.125  0.0274 -0.0055  0.3876
  693PSPI   C1B11051   9.916   5.257   6.210 -0.2374  0.0589  0.1594
  693PSPI   C2B11052   9.903   5.232   6.730  0.2309  0.1125  0.0204
  693PSPI   C3B11053   9.899   5.462   7.026  0.0457  0.2538  0.0127
  693PSPI   C4B11054  10.082   5.744   7.250 -0.0235 -0.2806  0.0723
  694PSPI    C111055   5.243  12.211   4.820 -0.1147 -0.0997  0.0406
  694PSPI    C211056   5.394  12.433   5.117  0.0579 -0.0010 -0.1182
  694PSPI    C311057   5.017  12.490   4.996  0.0672  0.1317 -0.0861
  694PSPI   PO411058   5.208  11.978   4.924  0.2425 -0.4011  0.0022
  694PSPI   GL111059   5.293  11.818   5.369  0.1152 -0.0755 -0.1490
  694PSPI   GL211060   5.121  12.103   5.446  0.0823  0.2237  0.0440
  694PSPI   C1A11061   5.279  11.815   5.743  0.0783 -0.0310 -0.5163
  694PSPI   C2A11062   5.389  11.655   6.121 -0.3552 -0.0611 -0.0360
  694PSPI   C3A11063   5.683  11.553   6.430 -0.0559 -0.2117 -0.0811
  694PSPI   C4A11064   5.981  11.463   6.772 -0.0396  0.2679  0.0849
  694PSPI   C1B11065   5.431  12.279   5.759 -0.1867 -0.6340  0.0661
  694PSPI   C2B11066   5.508  12.100   6.245 -0.1324  0.3598  0.0745
  694PSPI   C3B11067   5.705  12.031   6.444  0.3775 -0.2521 -0.0696
  694PSPI   C4B11068   5.964  12.124   6.786  0.0993  0.0747  0.0820
  695PSPI    C111069   2.784  19.484   4.967  0.1456  0.2323 -0.0746
  695PSPI    C211070   2.723  19.735   4.662  0.0713  0.2157 -0.0735
  695PSPI    C311071   2.413  19.604   4.878  0.1206  0.2030 -0.0102
  695PSPI   PO411072   3.032  19.462   5.053  0.0673 -0.0256 -0.0979
  695PSPI   GL111073   3.087  19.311   5.476  0.3155  0.0247  0.1160
  695PSPI   GL211074   2.892  19.612   5.538  0.1215  0.0681  0.3060
  695PSPI   C1A11075   3.163  19.305   5.916 -0.1227  0.1138 -0.0488
  695PSPI   C2A11076   3.523  19.581   6.094  0.1183 -0.0652 -0.1133
  695PSPI   C3A11077   3.803  19.767   5.808  0.1266  0.0846 -0.1037
  695PSPI   C4A11078   3.970  19.805   5.430 -0.0755 -0.2704 -0.1703
  695PSPI   C1B11079   2.580  19.723   5.847  0.2534 -0.3789  0.0184
  695PSPI   C2B11080   2.642  19.769   6.189 -0.2693  0.0204  0.0407
  695PSPI   C3B11081   2.525  20.026   6.501 -0.0322  0.0318 -0.0353
  695PSPI   C4B11082   2.342  20.021   6.820 -0.2239 -0.2384  0.1764
  696PSPI    C111083  14.077   2.462   4.773  0.0857 -0.0193 -0.1319
  696PSPI    C211084  13.908   2.099   4.771  0.0503 -0.0027 -0.1349
  696PSPI    C311085  14.085   2.240   4.441  0.0977 -0.0331 -0.1224
  696PSPI   PO411086  14.102   2.461   5.034  0.1860 -0.2134  0.0561
  696PSPI   GL111087  14.016   2.604   5.376  0.1108 -0.1452  0.2872
  696PSPI   GL211088  14.359   2.627   5.580 -0.0660 -0.0295 -0.1926
  696PSPI   C1A11089  13.800   2.480   5.750  0.1048 -0.4324 -0.2638
  696PSPI   C2A11090  13.943   2.329   6.155  0.0227  0.3623  0.2830
  696PSPI   C3A11091  13.822   2.470   6.580  0.0390  0.2765  0.1229
  696PSPI   C4A11092  13.967   2.521   6.954 -0.0333 -0.0282  0.0360
  696PSPI   C1B11093  14.207   2.773   5.978 -0.0348 -0.0042  0.3883
  696PSPI   C2B11094  14.319   2.644   6.448  0.1366  0.3987  0.0165
  696PSPI   C3B11095  14.418   2.639   6.844  0.2096  0.0017 -0.0092
  696PSPI   C4B11096  14.626   2.359   7.193 -0.0705  0.1139 -0.4868
  697POPI    C111097   2.989   6.040   5.433 -0.2129  0.0099 -0.1186
  697POPI    C211098   2.889   6.260   5.114  0.1540  0.0572 -0.2053
  697POPI    C311099   3.271   6.157   5.174  0.0282 -0.3123 -0.0081
  697POPI   PO411100   2.870   5.741   5.407 -0.1398  0.0492 -0.1120
  697POPI   GL111101   2.683   5.509   5.840  0.0908  0.3512 -0.2177
  697POPI   GL211102   3.025   5.458   5.815  0.0039  0.1178 -0.1794
  697POPI   C1A11103   2.492   5.494   6.356 -0.0003 -0.1926  0.0778
  697POPI   D2A11104   2.694   5.683   6.738  0.0422 -0.1413  0.3056
  697POPI   C3A11105   2.908   5.400   7.160  0.1314 -0.1143 -0.1576
  697POPI   C4A11106   2.863   5.006   7.300 -0.1777  0.0509 -0.2013
  697POPI   C1B11107   3.454   5.740   6.000 -0.0644  0.1536 -0.0342
  697POPI   C2B11108   3.751   5.980   6.343 -0.1186  0.0924  0.1575
  697POPI   C3B11109   3.756   6.127   6.765 -0.0260  0.2260  0.1447
  697POPI   C4B11110   4.107   6.274   7.168 -0.2462 -0.4375  0.1919
  698POPI    C111111   3.589  17.613   4.938  0.0322 -0.3479  0.0994
  698POPI    C211112   3.385  17.422   4.652  0.1645 -0.0297 -0.2157
  698POPI    C311113   3.475  17.809   4.609  0.0837  0.0558  0.3156
  698POPI   PO411114   3.664  17.480   5.079 -0.0032  0.1479 -0.3594
  698POPI   GL111115   3.751  17.132   5.428  0.2816  0.1756 -0.0673
  698POPI   GL211116   3.762  16.789   5.383  0.0794 -0.1365  0.1133
  698POPI   C1A11117   3.994  16.986   5.775 -0.1464  0.0051 -0.0506
  698POPI   D2A11118   3.898  17.009   6.186  0.0063  0.0767 -0.0519
  698POPI   C3A11119   3.843  17.187   6.665  0.0246 -0.1882 -0.1513
  698POPI   C4A11120   3.695  17.157   6.963  0.0037 -0.0036  0.1530
  698POPI   C1B11121   3.452  16.860   5.720  0.2904 -0.0462 -0.4819
  698POPI   C2B11122   3.313  17.023   6.224  0.2769 -0.2172  0.2978
  698POPI   C3B11123   3.336  17.345   6.488 -0.0778  0.0653  0.3475
  698POPI   C4B11124   3.067  17.503   6.685 -0.0477  0.1063 -0.3262
  699POPI    C111125   4.676  13.969   5.574 -0.0787 -0.2472  0.0464
  699POPI    C211126   4.413  13.841   5.301 -0.0255 -0.0419 -0.1033
  699POPI    C311127   4.592  13.579   5.544 -0.2680 -0.1976 -0.0893
  699POPI   PO411128   4.869  14.109   5.427 -0.0383  0.3916  0.1112
  699POPI   GL111129   5.248  14.329   5.458  0.0252  0.1944 -0.1978
  699POPI   GL211130   5.358  14.599   5.540  0.2663  0.0648  0.1058
  699POPI   C1A11131   5.358  14.169   5.890 -0.1665  0.1286 -0.0031
  699POPI   D2A11132   5.309  14.263   6.367 -0.0524  0.1129 -0.1873
  699POPI   C3A11133   5.083  14.037   6.736  0.1545 -0.1092  0.1273
  699POPI   C4A11134   4.743  14.214   7.049 -0.0579 -0.0929  0.1525
  699POPI   C1B11135   5.161  14.739   5.898  0.0017 -0.1936  0.1708
  699POPI   C2B11136   5.278  14.731   6.399  0.0863  0.2136  0.0421
  699POPI   C3B11137   5.498  14.918   6.704  0.2992 -0.1358 -0.0409
  699POPI   C4B11138   5.401  14.862   7.067 -0.0233 -0.2413 -0.0046
  700POPI    C111139   3.141  15.798   4.495 -0.0203  0.1635 -0.0066
  700POPI    C211140   3.022  15.471   4.297  0.1351 -0.0259  0.2076
  700POPI    C311141   3.136  15.797   4.095 -0.0169 -0.1041 -0.0078
  700POPI   PO411142   3.286  15.657   4.672  0.1422  0.2384  0.1647
  700POPI   GL111143   3.432  15.639   5.178 -0.0689 -0.5856 -0.4582
  700POPI   GL211144   3.481  15.377   5.255 -0.1818 -0.2350 -0.4318
  700POPI   C1A11145   3.476  15.886   5.609 -0.2627  0.2131  0.1625
  700POPI   D2A11146   3.885  15.957   5.877  0.1325  0.1316  0.1514
  700POPI   C3A11147   4.266  16.004   5.603  0.3535  0.0560 -0.0825
  700POPI   C4A11148   4.730  16.016   5.612  0.2396 -0.1738 -0.0678
  700POPI   C1B11149   3.514  15.407   5.725  0.2210 -0.2465 -0.0565
  700POPI   C2B11150   3.496  15.635   6.096  0.0060 -0.1348  0.5513
  700POPI   C3B11151   3.538  15.950   6.326 -0.2924  0.0635 -0.3513
  700POPI   C4B11152   3.482  16.038   6.684 -0.0872  0.0797  0.1012
  701POPI    C111153  11.489  10.288   5.181  0.2460  0.1746  0.0211
  701POPI    C211154  11.467  10.616   5.409 -0.4177  0.1699 -0.0161
  701POPI    C311155  11.387  10.639   5.018  0.0319  0.0487 -0.1211
  701POPI   PO411156  11.417  10.022   5.332  0.4097 -0.0954  0.2362
  701POPI   GL111157  11.007   9.860   5.539 -0.3428 -0.0757  0.4566
  701POPI   GL211158  10.698   9.835   5.631  0.1217  0.0458  0.2575
  701POPI   C1A11159  11.150   9.829   5.979  0.2331  0.2267 -0.0706
  701POPI   D2A11160  11.599   9.874   6.055 -0.3291 -0.0295  0.1107
  701POPI   C3A11161  11.700  10.021   6.402 -0.2165 -0.3688  0.0732
  701POPI   C4A11162  11.849  10.259   6.695  0.2723 -0.0935 -0.2469
  701POPI   C1B11163  10.358   9.900   5.914  0.1086 -0.0887 -0.0730
  701POPI   C2B11164   9.978  10.119   5.910 -0.0160  0.3324 -0.2912
  701POPI   C3B11165   9.780  10.174   6.182  0.0404  0.4610  0.0003
  701POPI   C4B11166   9.631  10.078   6.526 -0.0957  0.1082  0.1059
  702POPI    C111167  19.528   9.938   5.693  0.1778  0.1108  0.0043
  702POPI    C211168  19.475   9.542   5.721 -0.1207  0.1533  0.0768
  702POPI    C311169  19.655   9.698   5.399 -0.0890 -0.0330  0.0031
  702POPI   PO411170  19.182   9.990   5.707  0.0592  0.2233  0.2855
  702POPI   GL111171  18.959  10.159   5.964 -0.1090  0.3049  0.4766
  702POPI   GL211172  18.662  10.064   5.935 -0.0911  0.0040  0.0676
  702POPI   C1A11173  18.885  10.207   6.374 -0.2678  0.2649  0.2509
  702POPI   D2A11174  18.925  10.159   6.799  0.1137  0.2302  0.2270
  702POPI   C3A11175  18.757  10.421   7.078  0.2377  0.3037 -0.0595
  702POPI   C4A11176  18.739  10.788   7.287  0.1210 -0.1681  0.2270
  702POPI   C1B11177  18.494   9.935   6.398  0.0961 -0.3488 -0.3898
  702POPI   C2B11178  18.420  10.010   6.834  0.0563 -0.3351  0.0877
  702POPI   C3B11179  18.230  10.225   7.071  0.1616  0.1823 -0.0619
  702POPI   C4B11180  18.152  10.487   7.397 -0.1009 -0.1314  0.2285
  703POPI    C111181   8.112  13.779   5.655 -0.0333 -0.1638 -0.0253
  703POPI    C211182   8.265  13.655   5.307  0.2183 -0.2709  0.1214
  703POPI    C311183   7.944  13.472   5.460  0.1119 -0.2289 -0.0489
  703POPI   PO411184   8.132  14.062   5.660  0.0863 -0.0997 -0.3623
  703POPI   GL111185   8.310  14.293   6.041  0.4364  0.2070 -0.1898
  703POPI   GL211186   8.482  14.570   5.917  0.1471 -0.1220  0.2300
  703POPI   C1A11187   8.481  14.155   6.437  0.1137  0.3418  0.2783
  703POPI   D2A11188   8.457  13.749   6.670 -0.1346 -0.0176  0.2122
  703POPI   C3A11189   8.740  13.684   7.067 -0.0889  0.0400  0.0009
  703POPI   C4A11190   8.516  13.826   7.470  0.1735  0.0207 -0.1808
  703POPI   C1B11191   8.140  14.688   6.243 -0.1960  0.1294 -0.0120
  703POPI   C2B11192   7.986  15.065   6.489 -0.0539  0.2230 -0.0859
  703POPI   C3B11193   7.805  15.128   6.843 -0.0323 -0.0445  0.1489
  703POPI   C4B11194   7.423  14.985   7.070  0.0994  0.1753  0.1035
  704POPI    C111195   7.411   7.999   5.036 -0.0515 -0.1217  0.0867
  704POPI    C211196   7.668   7.981   4.730 -0.4130  0.0982 -0.2395
  704POPI    C311197   7.509   7.645   4.878 -0.1404 -0.0187 -0.2052
  704POPI   PO411198   7.549   8.196   5.226  0.2636 -0.0501  0.1487
  704POPI   GL111199   7.699   8.305   5.617 -0.1409 -0.1163  0.2588
  704POPI   GL211200   7.874   8.071   5.658  0.1421 -0.2468 -0.2653
  704POPI   C1A11201   7.763   8.568   6.017 -0.2455 -0.1081  0.0043
  704POPI   D2A11202   7.460   8.644   6.330 -0.2059 -0.2265 -0.3736
  704POPI   C3A11203   7.050   8.508   6.214 -0.1566  0.1429  0.3185
  704POPI   C4A11204   6.808   8.639   5.795  0.2622 -0.2691 -0.4385
  704POPI   C1B11205   7.900   8.137   6.114  0.1618  0.3415 -0.0100
  704POPI   C2B11206   7.757   8.191   6.583 -0.0840 -0.1389  0.1298
  704POPI   C3B11207   7.571   8.614   6.829 -0.2066 -0.2785 -0.0234
  704POPI   C4B11208   7.541   9.062   6.800 -0.0408 -0.3243  0.2027
  705POPI    C111209  17.431   2.679   5.165  0.0980 -0.1202  0.1092
  705POPI    C211210  17.113   2.439   5.190  0.0455 -0.0300  0.3397
  705POPI    C311211  17.093   2.776   4.976  0.1099 -0.2121  0.0401
  705POPI   PO411212  17.600   2.556   5.216  0.0257 -0.0275 -0.2757
  705POPI   GL111213  17.824   2.611   5.502 -0.2661  0.2500 -0.1792
  705POPI   GL211214  17.752   2.362   5.747  0.1017  0.0429  0.0113
  705POPI   C1A11215  18.122   2.832   5.684 -0.1865 -0.5226  0.3264
  705POPI   D2A11216  18.448   2.830   5.940 -0.3362 -0.0438 -0.1705
  705POPI   C3A11217  18.646   2.467   6.148  0.1432  0.0357 -0.1015
  705POPI   C4A11218  18.884   2.160   6.356  0.0155  0.1316  0.2392
  705POPI   C1B11219  17.543   2.505   6.109 -0.2774  0.0804  0.2699
  705POPI   C2B11220  17.333   2.422   6.577  0.1246 -0.1147  0.1535
  705POPI   C3B11221  16.994   2.173   6.801 -0.2129 -0.1918 -0.1560
  705POPI   C4B11222  16.598   2.335   6.809 -0.5182  0.0101 -0.3843
  706POPI    C111223  12.091  13.305   5.034  0.0344  0.0907  0.1885
  706POPI    C211224  12.024  13.402   4.652 -0.1054  0.0925  0.2131
  706POPI    C311225  12.387  13.278   4.766 -0.0486  0.1451  0.0909
  706POPI   PO411226  11.854  13.384   5.223 -0.1797  0.0208 -0.0566
  706POPI   GL111227  11.855  13.566   5.747  0.3072 -0.1281  0.1759
  706POPI   GL211228  12.190  13.710   5.801  0.0221  0.1923 -0.0473
  706POPI   C1A11229  11.611  13.305   6.063 -0.3162 -0.1383 -0.2846
  706POPI   D2A11230  11.429  12.881   6.175  0.1031  0.0372 -0.2787
  706POPI   C3A11231  11.681  12.657   6.364  0.2975 -0.3578 -0.0256
  706POPI   C4A11232  11.782  12.317   6.647  0.1636 -0.1832 -0.0172
  706POPI   C1B11233  12.037  13.683   6.148 -0.0908  0.2130  0.1304
  706POPI   C2B11234  12.030  13.917   6.543 -0.0865  0.0887  0.1288
  706POPI   C3B11235  11.962  13.990   6.917 -0.0563  0.0755  0.0495
  706POPI   C4B11236  11.892  13.921   7.355 -0.3863 -0.0874  0.0533
  707POPI    C111237   6.318  12.039   5.107  0.1225  0.1011 -0.0322
  707POPI    C211238   6.135  11.894   4.782 -0.0394 -0.0313  0.1168
  707POPI    C311239   6.219  12.284   4.806 -0.4251  0.0574  0.1012
  707POPI   PO411240   6.207  11.910   5.288  0.1073  0.2465  0.1005
  707POPI   GL111241   6.218  12.014   5.611 -0.2507  0.3583 -0.1896
  707POPI   GL211242   6.456  11.767   5.822  0.0435 -0.0453 -0.1783
  707POPI   C1A11243   6.399  12.403   5.716 -0.4808 -0.1429  0.0920
  707POPI   D2A11244   6.828  12.501   5.900  0.0552 -0.1673  0.0950
  707POPI   C3A11245   6.855  12.793   6.109 -0.0095  0.3454 -0.1615
  707POPI   C4A11246   6.496  13.108   6.213  0.0633  0.0088  0.0210
  707POPI   C1B11247   6.582  12.075   6.050 -0.0000 -0.1243  0.0476
  707POPI   C2B11248   6.696  12.259   6.303  0.1071 -0.0054 -0.1555
  707POPI   C3B11249   6.761  12.670   6.630 -0.0084  0.2189 -0.0962
  707POPI   C4B11250   6.826  13.063   6.767  0.3762 -0.3324 -0.2186
  708POPI    C111251  17.103  11.556   5.221  0.4677 -0.1084  0.1511
  708POPI    C211252  17.186  11.306   4.920 -0.0245 -0.1108  0.0085
  708POPI    C311253  17.032  11.667   4.843  0.0334 -0.0329  0.2492
  708POPI   PO411254  16.938  11.480   5.351 -0.0968  0.1165  0.0026
  708POPI   GL111255  16.777  11.520   5.703 -0.0913  0.0437  0.0521
  708POPI   GL211256  16.625  11.821   5.709  0.2924 -0.0650  0.2727
  708POPI   C1A11257  16.591  11.105   5.843 -0.2209  0.0210 -0.0966
  708POPI   D2A11258  16.375  10.752   5.951 -0.1906  0.4718 -0.1827
  708POPI   C3A11259  16.352  10.297   6.174 -0.1680 -0.1465  0.1285
  708POPI   C4A11260  16.013  10.176   6.410  0.0911  0.2562 -0.0418
  708POPI   C1B11261  16.759  11.888   6.113  0.1956 -0.3768 -0.0063
  708POPI   C2B11262  17.175  11.954   6.401  0.0873 -0.3417  0.2210
  708POPI   C3B11263  17.517  11.876   6.194  0.3438 -0.0713  0.3301
  708POPI   C4B11264  17.881  11.637   6.073  0.1866 -0.2066 -0.0328
  709POPI    C111265   2.167   7.401   5.322 -0.1507 -0.0578  0.1217
  709POPI    C211266   2.437   7.263   5.061  0.0575  0.4945  0.0307
  709POPI    C311267   2.049   7.269   4.963  0.0460  0.0280  0.0239
  709POPI   PO411268   2.386   7.513   5.457 -0.0198 -0.1678 -0.2825
  709POPI   GL111269   2.610   7.499   5.741 -0.1554  0.0140 -0.1624
  709POPI   GL211270   2.949   7.425   5.811  0.0059 -0.0704  0.1495
  709POPI   C1A11271   2.485   7.252   6.078  0.1407  0.0650  0.3998
  709POPI   D2A11272   2.183   7.359   6.325  0.0209 -0.1551  0.0128
  709POPI   C3A11273   1.939   7.647   6.358  0.0307  0.4882  0.2236
  709POPI   C4A11274   1.764   7.698   6.067  0.1611 -0.2312  0.0434
  709POPI   C1B11275   2.959   7.494   6.232  0.2858 -0.1463  0.0457
  709POPI   C2B11276   2.630   7.398   6.555 -0.0437 -0.2458  0.0760
  709POPI   C3B11277   2.336   7.446   6.854  0.0482 -0.4251 -0.3316
  709POPI   C4B11278   1.949   7.754   6.948 -0.1305 -0.1091  0.1579
  710POPI    C111279   1.329  13.543   5.637 -0.0455  0.1776  0.0237
  710POPI    C211280   1.467  13.485   5.266 -0.0510  0.1229  0.0302
  710POPI    C311281   1.411  13.856   5.403  0.0887  0.1455  0.0270
  710POPI   PO411282   1.061  13.480   5.629  0.2805  0.3456  0.2870
  710POPI   GL111283   0.711  13.546   5.778 -0.1664 -0.1384 -0.1134
  710POPI   GL211284   0.568  13.928   5.667  0.2776 -0.0515 -0.0983
  710POPI   C1A11285   1.017  13.354   6.217 -0.2689  0.0107  0.3146
  710POPI   D2A11286   0.752  13.085   6.523 -0.3252 -0.1092  0.2458
  710POPI   C3A11287   0.983  12.822   6.863  0.1230  0.2298 -0.1163
  710POPI   C4A11288   1.138  12.325   6.755 -0.0611  0.2097 -0.1420
  710POPI   C1B11289   0.369  13.938   6.085  0.0933  0.0994 -0.0530
  710POPI   C2B11290   0.505  13.660   6.293  0.1196 -0.1670  0.0576
  710POPI   C3B11291   0.632  13.572   6.665  0.3210 -0.1744  0.2545
  710POPI   C4B11292   0.719  13.679   6.979  0.0077 -0.2198 -0.2001
  711POPI    C111293   0.314   5.095   4.637 -0.0100  0.0528  0.0459
  711POPI    C211294   0.462   4.848   4.359 -0.3991 -0.0710 -0.0588
  711POPI    C311295   0.440   5.241   4.287 -0.1524 -0.0539 -0.0512
  711POPI   PO411296   0.389   5.162   4.888  0.1179 -0.0357  0.0245
  711POPI   GL111297   0.488   5.250   5.309  0.0494  0.0831  0.2775
  711POPI   GL211298   0.255   5.191   5.461 -0.2761 -0.1417  0.0820
  711POPI   C1A11299   0.798   5.071   5.485  0.0350  0.0549  0.2214
  711POPI   D2A11300   0.752   5.103   5.868 -0.0670 -0.2960  0.2482
  711POPI   C3A11301   0.684   4.883   6.203 -0.3300 -0.0288 -0.2161
  711POPI   C4A11302   0.468   4.910   6.553  0.0768 -0.1093 -0.1303
  711POPI   C1B11303   0.205   5.301   5.794 -0.2925  0.1233  0.3064
  711POPI   C2B11304   0.195   5.228   6.245  0.2915 -0.1571 -0.0113
  711POPI   C3B11305  -0.046   4.934   6.483  0.0185 -0.1609  0.0638
  711POPI   C4B11306  -0.338   5.127   6.680  0.1735 -0.0138  0.2500
  712POPI    C111307   3.817   1.896   4.921 -0.2135 -0.1506  0.1661
  712POPI    C211308   3.898   1.886   4.529 -0.3431 -0.1134  0.1378
  712POPI    C311309   4.170   2.028   4.786 -0.1728 -0.3395  0.0852
  712POPI   PO411310   3.698   1.635   5.038 -0.2632  0.1157  0.0120
  712POPI   GL111311   3.385   1.479   5.254 -0.3048  0.0676  0.0452
  712POPI   GL211312   3.411   1.136   5.392 -0.0129  0.2299 -0.1007
  712POPI   C1A11313   3.310   1.557   5.664  0.0763  0.0003 -0.0367
  712POPI   D2A11314   3.210   1.810   6.045 -0.2395 -0.1243 -0.3010
  712POPI   C3A11315   3.224   1.708   6.392 -0.1210  0.1145 -0.1000
  712POPI   C4A11316   3.414   1.479   6.798 -0.1584 -0.0265 -0.0667
  712POPI   C1B11317   3.141   1.113   5.814 -0.2992 -0.0705  0.2721
  712POPI   C2B11318   2.918   1.455   6.071  0.1361 -0.3849  0.0426
  712POPI   C3B11319   2.701   1.532   6.406 -0.2036  0.1636  0.0617
  712POPI   C4B11320   2.330   1.513   6.658 -0.0953 -0.1838  0.0195
  713POPI    C111321  16.653   6.049   5.227 -0.1204 -0.0703  0.0932
  713POPI    C211322  16.605   6.392   5.027 -0.0832 -0.0575  0.1060
  713POPI    C311323  16.610   6.044   4.829 -0.1485 -0.0530  0.0960
  713POPI   PO411324  16.841   6.229   5.419 -0.0965 -0.0059  0.0933
  713POPI   GL111325  16.678   6.453   5.782 -0.0092  0.2306  0.1115
  713POPI   GL211326  16.973   6.494   5.802 -0.2447 -0.1066 -0.0757
  713POPI   C1A11327  16.732   6.781   6.110  0.2697 -0.2787  0.1721
  713POPI   D2A11328  16.886   6.880   6.565  0.0787  0.1662  0.2750
  713POPI   C3A11329  16.907   6.471   6.765  0.1766 -0.1156  0.1009
  713POPI   C4A11330  16.751   6.207   7.167  0.2782  0.0171  0.0651
  713POPI   C1B11331  17.145   6.477   6.255  0.2828 -0.3690  0.0283
  713POPI   C2B11332  17.391   6.510   6.606 -0.0044 -0.0312 -0.3036
  713POPI   C3B11333  17.806   6.388   6.554  0.1598  0.1627  0.1118
  713POPI   C4B11334  18.201   6.202   6.692  0.3979 -0.3626  0.4321
  714POPI    C111335   6.638  14.428   4.878  0.3670 -0.3409 -0.2611
  714POPI    C211336   6.716  14.750   4.653  0.1929 -0.1601 -0.0673
  714POPI    C311337   6.359  14.572   4.630  0.2496 -0.2716 -0.0907
  714POPI   PO411338   6.647  14.536   5.168  0.0393 -0.1427  0.3865
  714POPI   GL111339   6.639  14.714   5.570 -0.0619 -0.0511  0.0416
  714POPI   GL211340   6.701  14.423   5.697 -0.0043 -0.2483 -0.2056
  714POPI   C1A11341   6.224  14.658   5.688  0.0115  0.2819 -0.0232
  714POPI   D2A11342   5.798  14.784   5.845 -0.5799  0.0672 -0.1165
  714POPI   C3A11343   5.749  14.612   6.261  0.4747  0.1207 -0.0421
  714POPI   C4A11344   5.666  14.428   6.670 -0.1086  0.0054 -0.0089
  714POPI   C1B11345   6.842  14.398   6.174 -0.0468  0.1458 -0.0789
  714POPI   C2B11346   7.062  14.278   6.520 -0.0540  0.2198  0.1632
  714POPI   C3B11347   6.935  14.220   6.868  0.0724  0.1683 -0.3658
  714POPI   C4B11348   7.050  13.942   7.196 -0.0376 -0.1328 -0.1663
  715POPI    C111349   9.731  15.027   5.346  0.3077  0.1549  0.1114
  715POPI    C211350   9.565  14.950   4.991  0.0133 -0.1129  0.3022
  715POPI    C311351   9.938  15.092   5.010  0.0886 -0.2428 -0.1075
  715POPI   PO411352   9.443  14.947   5.573  0.0410 -0.1851 -0.3982
  715POPI   GL111353   9.436  15.051   6.006 -0.3102  0.0331 -0.1974
  715POPI   GL211354   9.807  15.065   5.895  0.3580 -0.3869  0.1932
  715POPI   C1A11355   9.569  14.882   6.366  0.2047  0.0991  0.1251
  715POPI   D2A11356   9.887  14.663   6.623 -0.0502  0.0400  0.2620
  715POPI   C3A11357  10.313  14.708   6.555  0.1463 -0.2897 -0.0707
  715POPI   C4A11358  10.625  14.621   6.799 -0.1837 -0.0058  0.2435
  715POPI   C1B11359  10.132  15.169   6.106 -0.2098  0.0036 -0.1190
  715POPI   C2B11360  10.132  15.161   6.510  0.1109  0.0939  0.0324
  715POPI   C3B11361  10.107  15.047   6.934 -0.0624 -0.1448 -0.0250
  715POPI   C4B11362  10.061  15.311   7.419 -0.0930 -0.0540  0.2178
  716POPI    C111363  18.141  15.337   4.621 -0.0893  0.0729 -0.0722
  716POPI    C211364  18.022  15.715   4.566  0.3849  0.2152 -0.1687
  716POPI    C311365  17.880  15.424   4.331 -0.2911  0.2596  0.1605
  716POPI   PO411366  18.181  15.349   4.891  0.0402  0.1994  0.1871
  716POPI   GL111367  18.330  15.161   5.264  0.0326  0.2542 -0.1906
  716POPI   GL211368  18.616  15.098   5.401  0.1214  0.0184 -0.1855
  716POPI   C1A11369  18.155  15.270   5.686  0.1765 -0.1377  0.2655
  716POPI   D2A11370  18.133  15.463   5.979  0.2788  0.2427 -0.1194
  716POPI   C3A11371  18.206  15.766   6.335 -0.0949  0.1133 -0.1690
  716POPI   C4A11372  18.136  16.005   6.664  0.0427  0.4250  0.3199
  716POPI   C1B11373  18.684  15.290   5.720  0.0416  0.0159  0.0381
  716POPI   C2B11374  18.545  15.291   6.127 -0.2121  0.0097 -0.2813
  716POPI   C3B11375  18.662  15.477   6.499 -0.1434 -0.0964  0.3503
  716POPI   C4B11376  18.580  15.812   6.747  0.1314  0.0846  0.0470
  717POPI    C111377   9.328   9.262   4.804 -0.1720 -0.0350  0.2410
  717POPI    C211378   9.511   8.910   4.751 -0.0721  0.0292  0.1563
  717POPI    C311379   9.111   8.930   4.748 -0.0844 -0.1259  0.4313
  717POPI   PO411380   9.410   9.411   5.097 -0.0226 -0.1000  0.1219
  717POPI   GL111381   9.264   9.543   5.445 -0.0872  0.1297 -0.7052
  717POPI   GL211382   9.291   9.201   5.590 -0.1992 -0.1956  0.0303
  717POPI   C1A11383   9.066   9.667   5.791 -0.0727 -0.2115 -0.0648
  717POPI   D2A11384   9.086  10.109   5.974 -0.0698  0.0941  0.3751
  717POPI   C3A11385   9.112  10.128   6.365 -0.2303  0.0336  0.1546
  717POPI   C4A11386   9.224  10.227   6.816 -0.0439 -0.2278 -0.1196
  717POPI   C1B11387   9.282   9.275   5.977  0.1234  0.1859 -0.0499
  717POPI   C2B11388   9.186   9.239   6.391  0.2312 -0.0604 -0.1984
  717POPI   C3B11389   9.127   9.245   6.829 -0.1509 -0.1878 -0.2311
  717POPI   C4B11390   9.097   9.485   7.351  0.3509  0.0342 -0.0635
  718POPI    C111391   3.934   2.709   4.751 -0.0696  0.0842  0.2176
  718POPI    C211392   3.759   2.360   4.839  0.2554 -0.2158 -0.2706
  718POPI    C311393   3.667   2.549   4.499  0.2503  0.0624 -0.1174
  718POPI   PO411394   4.169   2.605   4.966  0.0964  0.2333  0.0667
  718POPI   GL111395   4.279   2.668   5.394 -0.3945 -0.1084  0.0663
  718POPI   GL211396   4.047   2.773   5.557  0.2433  0.2536 -0.0147
  718POPI   C1A11397   4.678   2.597   5.521  0.1882  0.1750 -0.0064
  718POPI   D2A11398   4.749   2.523   5.977 -0.0926 -0.0733  0.1603
  718POPI   C3A11399   5.094   2.209   6.121  0.0109  0.0201  0.2704
  718POPI   C4A11400   5.110   2.156   6.738  0.0523 -0.1462  0.0658
  718POPI   C1B11401   4.227   2.551   5.854  0.0434  0.0954 -0.2034
  718POPI   C2B11402   4.394   2.533   6.354  0.0687 -0.0896  0.1810
  718POPI   C3B11403   4.456   2.389   6.772 -0.0449 -0.1587 -0.1230
  718POPI   C4B11404   4.781   2.453   7.051  0.1427 -0.0863 -0.1177
  719POPI    C111405  15.621  15.190   4.961  0.1896  0.1757  0.0559
  719POPI    C211406  15.469  15.081   4.607  0.3535 -0.2594  0.1135
  719POPI    C311407  15.231  15.109   4.927  0.2306 -0.0040  0.0028
  719POPI   PO411408  15.837  15.047   4.989 -0.1818  0.2211  0.0659
  719POPI   GL111409  15.900  14.849   5.312  0.2866 -0.2427 -0.3043
  719POPI   GL211410  16.093  14.735   5.534  0.0364 -0.1375  0.0104
  719POPI   C1A11411  15.622  15.013   5.692  0.2471 -0.3364 -0.1538
  719POPI   D2A11412  15.567  15.201   6.078  0.0796  0.1015 -0.0661
  719POPI   C3A11413  15.629  14.823   6.281 -0.1775 -0.1387 -0.0270
  719POPI   C4A11414  15.846  14.593   6.517  0.2011  0.0848  0.4120
  719POPI   C1B11415  16.083  14.962   5.973 -0.2292  0.2526 -0.0436
  719POPI   C2B11416  16.007  15.094   6.374  0.0328 -0.1970  0.1900
  719POPI   C3B11417  15.690  15.488   6.452 -0.2431 -0.3129 -0.2770
  719POPI   C4B11418  15.665  16.010   6.642  0.2958  0.0795  0.0569
  720POPI    C111419  12.766  13.363   4.998  0.1130 -0.0346  0.0722
  720POPI    C211420  13.073  13.126   5.098 -0.0322 -0.2468  0.0221
  720POPI    C311421  13.090  13.344   4.763  0.1177 -0.1559  0.0877
  720POPI   PO411422  12.650  13.438   5.224 -0.0090 -0.1688 -0.0456
  720POPI   GL111423  12.726  13.593   5.521  0.1962 -0.3846 -0.0175
  720POPI   GL211424  12.628  13.937   5.705 -0.0534 -0.0509 -0.3791
  720POPI   C1A11425  12.814  13.602   5.998  0.1460  0.1098  0.0083
  720POPI   D2A11426  12.816  13.813   6.405 -0.0531  0.1010 -0.1252
  720POPI   C3A11427  12.437  13.671   6.692 -0.2252 -0.2290  0.0614
  720POPI   C4A11428  12.326  13.705   7.098 -0.3609 -0.4058  0.1786
  720POPI   C1B11429  12.429  14.085   6.191  0.0748  0.2097  0.3944
  720POPI   C2B11430  12.472  14.234   6.562 -0.1621  0.0781  0.2532
  720POPI   C3B11431  12.497  14.429   7.001  0.0119 -0.2292  0.4023
  720POPI   C4B11432  12.844  14.605   7.245  0.0513 -0.0839 -0.0337
  721POPI    C111433   5.460   5.138   4.822 -0.1437  0.0961  0.1341
  721POPI    C211434   5.560   5.496   4.674  0.1564 -0.1146 -0.1889
  721POPI    C311435   5.206   5.334   4.583 -0.0502  0.1666  0.0920
  721POPI   PO411436   5.482   5.120   5.112  0.0283  0.0950 -0.0305
  721POPI   GL111437   5.814   5.043   5.468 -0.2119 -0.1178  0.2083
  721POPI   GL211438   5.793   5.215   5.700 -0.2297 -0.5171 -0.2541
  721POPI   C1A11439   6.053   4.719   5.642  0.1521 -0.1555 -0.1704
  721POPI   D2A11440   5.778   4.534   6.107  0.2036 -0.0242  0.0329
  721POPI   C3A11441   6.065   4.481   6.465  0.0877  0.2474 -0.0369
  721POPI   C4A11442   6.376   4.594   6.845  0.0340 -0.0654  0.0315
  721POPI   C1B11443   5.375   4.900   5.876  0.0426 -0.0294 -0.2715
  721POPI   C2B11444   5.241   4.487   6.131 -0.1519  0.4418 -0.0099
  721POPI   C3B11445   5.278   4.279   6.500 -0.2701  0.1365 -0.2096
  721POPI   C4B11446   5.235   3.895   6.760  0.1181  0.3420  0.1169
  722POPI    C111447   8.343  13.275   4.982 -0.2366  0.0833 -0.0517
  722POPI    C211448   8.641  13.461   4.791 -0.1194  0.0028  0.0505
  722POPI    C311449   8.546  13.084   4.696 -0.0790 -0.0280  0.1317
  722POPI   PO411450   8.379  13.195   5.284  0.2827  0.1000  0.2402
  722POPI   GL111451   8.405  12.918   5.622 -0.2819  0.1642  0.1955
  722POPI   GL211452   8.760  12.970   5.613  0.3201  0.1839  0.0783
  722POPI   C1A11453   8.291  12.574   5.954 -0.1248 -0.0994  0.0632
  722POPI   D2A11454   8.258  12.492   6.352  0.1054  0.0517 -0.0539
  722POPI   C3A11455   8.181  12.215   6.618 -0.1487 -0.0955 -0.1128
  722POPI   C4A11456   8.512  12.187   6.841  0.1997 -0.1023  0.3325
  722POPI   C1B11457   8.895  12.917   6.007  0.1305 -0.0310  0.1086
  722POPI   C2B11458   8.767  12.861   6.453  0.0723  0.1724  0.3631
  722POPI   C3B11459   8.527  12.707   6.784  0.0067 -0.0832 -0.2111
  722POPI   C4B11460   8.051  12.734   6.773 -0.0659 -0.1640  0.1046
  723POPI    C111461  15.402  11.390   5.338  0.3390 -0.1419 -0.0296
  723POPI    C211462  15.177  11.063   5.389  0.0997  0.0203 -0.0298
  723POPI    C311463  15.543  11.080   5.549  0.0612 -0.1932  0.0855
  723POPI   PO411464  15.157  11.607   5.291  0.1446  0.0531 -0.2785
  723POPI   GL111465  15.057  11.715   5.680  0.2435 -0.0848  0.1338
  723POPI   GL211466  15.030  12.101   5.643 -0.0624 -0.0570  0.0231
  723POPI   C1A11467  15.275  11.292   5.855  0.0280 -0.1418  0.1406
  723POPI   D2A11468  15.196  11.222   6.252 -0.0593 -0.0091  0.4385
  723POPI   C3A11469  15.084  11.503   6.589  0.0085 -0.0549  0.1205
  723POPI   C4A11470  15.093  11.350   7.026  0.2610 -0.4379 -0.0515
  723POPI   C1B11471  14.794  12.028   5.987 -0.1220 -0.0097 -0.1749
  723POPI   C2B11472  14.917  11.948   6.393  0.0832 -0.1968 -0.0676
  723POPI   C3B11473  14.763  11.805   6.832 -0.1754  0.1186  0.0358
  723POPI   C4B11474  14.546  11.499   6.927  0.1410 -0.0056  0.3495
  724POPI    C111475  18.629  15.400   4.614 -0.1058 -0.2274 -0.1597
  724POPI    C211476  18.862  15.240   4.331  0.0136 -0.2589 -0.0447
  724POPI    C311477  18.527  15.053   4.443 -0.1981 -0.0924 -0.3833
  724POPI   PO411478  18.806  15.407   4.820  0.0299  0.0930  0.3878
  724POPI   GL111479  19.016  15.224   5.252 -0.1406 -0.4303 -0.0736
  724POPI   GL211480  19.239  15.069   5.486  0.0726  0.1147 -0.3549
  724POPI   C1A11481  19.095  15.508   5.585  0.2619 -0.3228 -0.2989
  724POPI   D2A11482  19.112  15.489   6.116 -0.0314 -0.1081 -0.0249
  724POPI   C3A11483  19.140  15.468   6.496  0.2903  0.2212 -0.1380
  724POPI   C4A11484  19.048  15.352   6.857 -0.1602 -0.0768  0.0007
  724POPI   C1B11485  19.400  15.074   5.950 -0.0474 -0.2701  0.2240
  724POPI   C2B11486  19.402  15.003   6.358 -0.0439  0.0794 -0.1793
  724POPI   C3B11487  19.523  14.749   6.658  0.3569  0.0763 -0.1157
  724POPI   C4B11488  19.600  14.407   7.063  0.1209 -0.3142  0.2805
  725POPI    C111489   2.776  13.944   5.201 -0.1942  0.0453 -0.1550
  725POPI    C211490   3.014  14.260   5.144  0.0874 -0.1232  0.0614
  725POPI    C311491   2.687  14.214   4.920  0.1758  0.1908 -0.1388
  725POPI   PO411492   2.886  13.711   5.158 -0.0781  0.2810  0.4484
  725POPI   GL111493   2.942  13.381   5.366 -0.1561 -0.2062  0.0090
  725POPI   GL211494   3.292  13.492   5.435  0.0141  0.1044 -0.2962
  725POPI   C1A11495   3.044  13.556   5.828 -0.2959 -0.1533 -0.4449
  725POPI   D2A11496   3.273  13.534   6.231  0.3050 -0.0160  0.1470
  725POPI   C3A11497   3.048  13.760   6.543 -0.1254  0.0197 -0.1030
  725POPI   C4A11498   2.909  13.999   6.836  0.3672  0.2794 -0.0908
  725POPI   C1B11499   3.565  13.346   5.761 -0.0120 -0.0952  0.0889
  725POPI   C2B11500   3.824  13.401   6.195 -0.3012 -0.1369  0.0411
  725POPI   C3B11501   3.834  13.612   6.538 -0.0246 -0.0807  0.1300
  725POPI   C4B11502   3.454  13.523   6.830 -0.2044  0.0643 -0.1239
  726POPI    C111503   1.191   2.067   5.034 -0.1717  0.0506 -0.2822
  726POPI    C211504   1.287   2.422   4.878 -0.1272  0.1527 -0.0277
  726POPI    C311505   1.436   2.087   4.719  0.0275  0.2626 -0.1171
  726POPI   PO411506   0.905   2.163   5.069 -0.2853 -0.1007 -0.2552
  726POPI   GL111507   0.636   2.215   5.430  0.2180  0.0285 -0.1777
  726POPI   GL211508   0.467   2.491   5.485  0.3262 -0.1609  0.1671
  726POPI   C1A11509   0.388   1.735   5.516 -0.2932  0.5112  0.0551
  726POPI   D2A11510   0.163   1.391   5.502 -0.0176 -0.2118 -0.0765
  726POPI   C3A11511  -0.033   1.037   5.692 -0.1343 -0.0651  0.4033
  726POPI   C4A11512  -0.298   0.580   5.535 -0.2794  0.1982 -0.1798
  726POPI   C1B11513   0.326   2.670   5.796  0.1531 -0.1273 -0.1241
  726POPI   C2B11514   0.282   2.659   6.259  0.2000  0.0367 -0.4297
  726POPI   C3B11515   0.286   2.781   6.678 -0.2824  0.1346 -0.1958
  726POPI   C4B11516   0.017   2.944   7.024  0.0562 -0.1724 -0.1191
  727POPI    C111517   0.549   8.477   5.052  0.1097 -0.2233 -0.1988
  727POPI    C211518   0.695   8.394   4.689  0.0241  0.1226 -0.3154
  727POPI    C311519   0.660   8.774   4.810 -0.0721  0.0156  0.0051
  727POPI   PO411520   0.761   8.331   5.277 -0.2806 -0.3299 -0.0036
  727POPI   GL111521   0.517   8.296   5.658  0.0852 -0.1836  0.0589
  727POPI   GL211522   0.756   8.558   5.749  0.2974 -0.1406  0.1113
  727POPI   C1A11523   0.487   8.019   6.029  0.2953 -0.0368  0.1093
  727POPI   D2A11524   0.367   7.711   6.373  0.0123 -0.0513  0.1097
  727POPI   C3A11525   0.476   7.668   6.849 -0.1126 -0.2452  0.1748
  727POPI   C4A11526   0.849   7.815   7.226 -0.0993 -0.0076  0.2016
  727POPI   C1B11527   0.624   8.492   6.137  0.2922 -0.3561 -0.0521
  727POPI   C2B11528   0.551   8.690   6.543 -0.0918 -0.1363 -0.0933
  727POPI   C3B11529   0.261   8.736   6.864  0.0378 -0.1429  0.1425
  727POPI   C4B11530   0.265   8.716   7.268  0.0712 -0.0526 -0.0295
  728POPI    C111531   1.903  11.466   5.463 -0.0019  0.0146  0.0876
  728POPI    C211532   2.052  11.649   5.140 -0.0904 -0.1017 -0.0204
  728POPI    C311533   1.841  11.312   5.099 -0.0648 -0.1414  0.1633
  728POPI   PO411534   1.838  11.829   5.633  0.2632  0.1384  0.0113
  728POPI   GL111535   1.563  11.912   6.043  0.2684 -0.1824 -0.0427
  728POPI   GL211536   1.864  11.937   6.152  0.1303  0.0146 -0.2563
  728POPI   C1A11537   1.613  11.628   6.449  0.0033  0.1145 -0.2532
  728POPI   D2A11538   1.851  11.665   6.903 -0.0550  0.1177  0.1128
  728POPI   C3A11539   1.923  11.670   7.380  0.5329 -0.5598  0.0304
  728POPI   C4A11540   1.758  11.809   7.767 -0.2126  0.1517  0.2315
  728POPI   C1B11541   1.802  12.050   6.581  0.0167  0.1287 -0.0016
  728POPI   C2B11542   1.661  12.293   6.863  0.2509 -0.1069 -0.1569
  728POPI   C3B11543   1.768  12.232   7.332  0.1985  0.5588 -0.1436
  728POPI   C4B11544   2.136  12.078   7.537  0.0825  0.1768 -0.1742
  729POPI    C111545   2.484  18.718   4.677  0.0018 -0.0160  0.0839
  729POPI    C211546   2.381  18.439   4.410 -0.2847  0.1076  0.0611
  729POPI    C311547   2.758  18.573   4.425 -0.2091 -0.0806 -0.1109
  729POPI   PO411548   2.488  18.603   4.951  0.0313 -0.0104  0.1282
  729POPI   GL111549   2.402  18.785   5.386  0.3333 -0.2028 -0.1229
  729POPI   GL211550   2.253  18.430   5.347 -0.3525 -0.1486 -0.1714
  729POPI   C1A11551   2.137  18.912   5.629  0.1133 -0.2749 -0.2442
  729POPI   D2A11552   1.903  18.624   5.707  0.2371  0.1654 -0.1819
  729POPI   C3A11553   1.981  18.612   6.112 -0.0780  0.3489 -0.0609
  729POPI   C4A11554   2.219  18.259   6.335  0.1419 -0.0360 -0.0422
  729POPI   C1B11555   2.256  18.271   5.782  0.0620  0.1665 -0.0729
  729POPI   C2B11556   2.663  18.125   6.017  0.0179 -0.1158  0.0153
  729POPI   C3B11557   2.843  18.011   6.379 -0.4092  0.1181  0.0120
  729POPI   C4B11558   3.031  18.178   6.745  0.1234 -0.0896  0.3206
  730POPI    C111559  15.845  11.308   5.120  0.0914  0.0135 -0.1433
  730POPI    C211560  15.614  11.002   5.005  0.1962 -0.1210 -0.0004
  730POPI    C311561  15.549  11.368   4.859 -0.0337 -0.1799 -0.0485
  730POPI   PO411562  15.923  11.365   5.392  0.5927 -0.1574  0.1592
  730POPI   GL111563  16.068  11.155   5.708  0.1345 -0.0048  0.0246
  730POPI   GL211564  16.133  11.443   5.800 -0.1989  0.0027 -0.0945
  730POPI   C1A11565  15.841  10.792   5.906 -0.1616 -0.2265 -0.1561
  730POPI   D2A11566  15.915  10.643   6.244  0.1658  0.1366  0.2780
  730POPI   C3A11567  16.287  10.575   6.566  0.0257  0.2253  0.0356
  730POPI   C4A11568  16.675  10.311   6.543 -0.2337  0.0641  0.2376
  730POPI   C1B11569  16.347  11.643   6.150 -0.0620 -0.0039 -0.0069
  730POPI   C2B11570  16.317  11.542   6.472  0.1628 -0.2522  0.4833
  730POPI   C3B11571  16.181  11.233   6.738 -0.1336 -0.0580 -0.0104
  730POPI   C4B11572  16.401  10.930   6.914  0.0591  0.0042  0.0354
  731POPI    C111573  10.197  16.826   4.980 -0.0901  0.1507 -0.0100
  731POPI    C211574   9.894  16.771   4.725  0.0622 -0.2215 -0.1175
  731POPI    C311575  10.183  16.496   4.753  0.0736 -0.1645  0.4234
  731POPI   PO411576  10.274  17.109   4.947 -0.3047  0.1372 -0.1674
  731POPI   GL111577  10.322  17.262   5.380 -0.0205 -0.0530  0.0369
  731POPI   GL211578  10.260  17.586   5.335 -0.2820 -0.0424 -0.0769
  731POPI   C1A11579  10.036  17.095   5.743  0.2386  0.0887 -0.2835
  731POPI   D2A11580  10.169  16.715   5.967  0.2507  0.1084  0.2576
  731POPI   C3A11581  10.012  16.547   6.315  0.0652  0.1192 -0.0368
  731POPI   C4A11582  10.035  16.510   6.734 -0.3404  0.1850 -0.0291
  731POPI   C1B11583  10.052  17.582   5.750 -0.0160  0.1227 -0.2478
  731POPI   C2B11584   9.991  17.505   6.128  0.0384 -0.3775 -0.0904
  731POPI   C3B11585   9.863  17.511   6.578 -0.0635  0.0347  0.0485
  731POPI   C4B11586  10.003  17.441   6.893  0.4091 -0.0381 -0.1771
  732POPI    C111587  17.929  13.681   5.135 -0.0198  0.0734  0.1421
  732POPI    C211588  17.827  13.343   5.323 -0.1780  0.0614  0.0363
  732POPI    C311589  17.788  13.371   4.926 -0.3339  0.2648  0.0642
  732POPI   PO411590  17.820  13.939   5.327  0.2149 -0.2407  0.1665
  732POPI   GL111591  17.762  14.093   5.682 -0.1594 -0.2837  0.3422
  732POPI   GL211592  18.072  13.880   5.785  0.0311  0.0239 -0.0597
  732POPI   C1A11593  17.593  14.045   6.096 -0.1947 -0.3027 -0.0693
  732POPI   D2A11594  17.668  13.715   6.251 -0.2997 -0.1203 -0.1236
  732POPI   C3A11595  17.505  13.560   6.591  0.1580  0.1472 -0.0820
  732POPI   C4A11596  17.066  13.440   6.747  0.0919 -0.1302  0.0226
  732POPI   C1B11597  18.294  13.989   6.296  0.0302  0.1314  0.0471
  732POPI   C2B11598  18.489  13.592   6.556  0.0639  0.1582  0.1539
  732POPI   C3B11599  18.799  13.306   6.691 -0.1541 -0.0456 -0.0172
  732POPI   C4B11600  18.934  13.365   7.203 -0.1459 -0.2769 -0.2829
  733POPI    C111601  12.699  15.749   4.524 -0.3777 -0.0676  0.2244
  733POPI    C211602  12.591  15.397   4.367 -0.1111 -0.0655  0.0279
  733POPI    C311603  12.977  15.476   4.433 -0.1646  0.2121  0.0206
  733POPI   PO411604  12.598  15.799   4.815  0.2435 -0.3193  0.0087
  733POPI   GL111605  12.711  15.941   5.188  0.1197 -0.0150  0.1482
  733POPI   GL211606  12.439  15.626   5.270 -0.1915  0.0672 -0.1725
  733POPI   C1A11607  12.867  16.096   5.588 -0.0830  0.0627  0.0904
  733POPI   D2A11608  12.808  16.501   5.855 -0.1479 -0.1745 -0.0613
  733POPI   C3A11609  12.830  16.669   6.226  0.0048 -0.2014 -0.0256
  733POPI   C4A11610  12.986  16.689   6.751 -0.0722 -0.0033  0.0948
  733POPI   C1B11611  12.422  15.824   5.637  0.0423 -0.0063  0.0892
  733POPI   C2B11612  12.479  16.113   5.922 -0.2078 -0.3009  0.0126
  733POPI   C3B11613  12.494  16.164   6.301 -0.1126 -0.0753  0.1989
  733POPI   C4B11614  12.577  16.467   6.581  0.0611 -0.0784  0.3652
  734POPI    C111615  13.533   4.433   4.725  0.0879 -0.0533  0.0247
  734POPI    C211616  13.839   4.632   4.888 -0.0540  0.2872 -0.1142
  734POPI    C311617  13.666   4.770   4.554 -0.4371  0.1669  0.0293
  734POPI   PO411618  13.566   4.192   4.949 -0.1858 -0.1030  0.0454
  734POPI   GL111619  13.344   4.270   5.399  0.1120  0.1020 -0.2251
  734POPI   GL211620  13.273   4.561   5.547 -0.0175 -0.0649  0.2141
  734POPI   C1A11621  13.517   4.183   5.769 -0.3101  0.0023 -0.1418
  734POPI   D2A11622  13.646   4.102   6.224  0.0667 -0.0119 -0.0204
  734POPI   C3A11623  13.298   4.122   6.565 -0.2375 -0.2611  0.1668
  734POPI   C4A11624  13.183   4.056   7.044 -0.3664 -0.0722 -0.2129
  734POPI   C1B11625  13.328   4.555   6.052 -0.1521 -0.1838 -0.1446
  734POPI   C2B11626  13.559   4.632   6.421  0.0869 -0.1475 -0.0986
  734POPI   C3B11627  13.802   4.357   6.686  0.0256 -0.1818  0.1388
  734POPI   C4B11628  13.707   3.935   6.877 -0.4079  0.1865  0.1223
  735POPI    C111629  10.246   5.508   5.082  0.1011 -0.0686 -0.2772
  735POPI    C211630   9.925   5.488   4.844 -0.0281  0.0034 -0.1107
  735POPI    C311631  10.287   5.400   4.699 -0.1082  0.0265 -0.3278
  735POPI   PO411632  10.115   5.460   5.363  0.0836 -0.1039  0.0343
  735POPI   GL111633  10.284   5.579   5.658  0.6110  0.0705  0.4854
  735POPI   GL211634  10.526   5.617   5.867 -0.0462  0.2133  0.2302
  735POPI   C1A11635  10.008   5.749   6.046  0.0749  0.0314 -0.2624
  735POPI   D2A11636   9.993   5.691   6.573 -0.1534 -0.0862 -0.2097
  735POPI   C3A11637  10.419   5.729   6.776 -0.1169 -0.1107 -0.4815
  735POPI   C4A11638  10.556   6.061   6.914  0.1731  0.1578  0.1895
  735POPI   C1B11639  10.662   5.612   6.291  0.0820  0.0374 -0.1814
  735POPI   C2B11640  10.958   5.570   6.645  0.1255 -0.2691 -0.1964
  735POPI   C3B11641  11.037   5.697   7.074 -0.1878 -0.0840  0.2671
  735POPI   C4B11642  10.947   5.989   7.422  0.2336 -0.4898 -0.4407
  736POPI    C111643  10.540  11.736   5.254 -0.1575  0.1623  0.0290
  736POPI    C211644  10.368  12.094   5.301 -0.2454  0.1379 -0.1030
  736POPI    C311645  10.698  12.058   5.078 -0.1364  0.1649  0.0523
  736POPI   PO411646  10.607  11.635   5.578  0.0933 -0.0747  0.1234
  736POPI   GL111647  10.942  11.642   5.883 -0.1162 -0.1462 -0.0936
  736POPI   GL211648  11.130  11.373   6.055  0.2428  0.2345  0.0772
  736POPI   C1A11649  10.702  11.939   6.160  0.2351  0.1292 -0.0126
  736POPI   D2A11650  10.728  12.286   6.500  0.1796 -0.2574 -0.1999
  736POPI   C3A11651  10.373  12.309   6.855  0.3100 -0.4717  0.5419
  736POPI   C4A11652  10.289  12.468   7.165  0.0144  0.0020 -0.0333
  736POPI   C1B11653  11.066  11.626   6.439 -0.1069 -0.0061 -0.2398
  736POPI   C2B11654  11.079  11.988   6.665 -0.2455  0.1922  0.0553
  736POPI   C3B11655  10.913  12.100   6.976  0.3891 -0.2908  0.0129
  736POPI   C4B11656  10.707  12.102   7.403 -0.1797 -0.2128 -0.2426
  737POPI    C111657  11.514  11.131   5.109 -0.2163 -0.3934  0.1445
  737POPI    C211658  11.673  10.977   4.775 -0.0842  0.1487 -0.0526
  737POPI    C311659  11.288  11.085   4.782 -0.0083  0.4351 -0.1411
  737POPI   PO411660  11.731  11.101   5.356  0.1635 -0.0634 -0.0971
  737POPI   GL111661  11.997  10.748   5.666 -0.0406  0.0539 -0.0690
  737POPI   GL211662  11.661  10.747   5.796  0.2178  0.3299 -0.3293
  737POPI   C1A11663  12.097  10.974   6.049  0.0020 -0.0841  0.0844
  737POPI   D2A11664  12.124  11.041   6.426  0.0849 -0.2041  0.1296
  737POPI   C3A11665  12.317  11.374   6.594 -0.1145 -0.0820 -0.0713
  737POPI   C4A11666  12.523  11.767   6.580 -0.3092 -0.1431 -0.0476
  737POPI   C1B11667  11.726  10.758   6.146 -0.0194 -0.3342 -0.2733
  737POPI   C2B11668  11.746  10.751   6.571  0.2024 -0.1388 -0.1145
  737POPI   C3B11669  11.896  10.768   6.914  0.0270 -0.5213  0.1011
  737POPI   C4B11670  12.016  10.496   7.212  0.2205 -0.1397 -0.1086
  738POPI    C111671   5.410   9.945   4.917 -0.0556  0.0256 -0.0683
  738POPI    C211672   5.011   9.922   4.919 -0.0611  0.0964 -0.2047
  738POPI    C311673   5.191  10.250   4.778  0.0450  0.0780 -0.1129
  738POPI   PO411674   5.444   9.689   5.104 -0.1568 -0.0951 -0.0194
  738POPI   GL111675   5.639   9.798   5.503 -0.2548  0.2558 -0.3282
  738POPI   GL211676   5.512  10.014   5.708  0.0078  0.0107 -0.2398
  738POPI   C1A11677   5.451   9.548   5.888  0.0528  0.0939 -0.0300
  738POPI   D2A11678   5.174   9.409   6.037  0.2604 -0.0716  0.1269
  738POPI   C3A11679   4.919   9.259   6.334  0.0515 -0.2365 -0.0636
  738POPI   C4A11680   4.780   9.077   6.694  0.0231 -0.1503  0.0509
  738POPI   C1B11681   5.518  10.315   5.960 -0.1592  0.0627  0.0540
  738POPI   C2B11682   5.580  10.645   6.361  0.1801  0.1704 -0.0359
  738POPI   C3B11683   5.621  10.505   6.747  0.0743 -0.1431  0.1223
  738POPI   C4B11684   5.481  10.655   7.153 -0.3274 -0.1811 -0.1313
  739POPI    C111685   9.525   0.955   4.426  0.1527 -0.3069 -0.0263
  739POPI    C211686   9.887   1.109   4.351 -0.1015  0.2920 -0.0745
  739POPI    C311687   9.657   0.982   4.049 -0.0234  0.1189 -0.0624
  739POPI   PO411688   9.548   0.917   4.739 -0.0243  0.1771  0.3123
  739POPI   GL111689   9.493   0.733   5.130 -0.1915  0.1353  0.2138
  739POPI   GL211690   9.420   0.585   5.405 -0.0031 -0.4160 -0.1456
  739POPI   C1A11691   9.246   1.034   5.535  0.1782  0.0101 -0.1605
  739POPI   D2A11692   9.460   1.194   5.973 -0.1600  0.1389 -0.0549
  739POPI   C3A11693   9.491   1.467   6.360  0.1782  0.2906  0.1597
  739POPI   C4A11694   9.738   1.587   6.735 -0.0293  0.0555 -0.2861
  739POPI   C1B11695   9.406   0.694   5.846 -0.2375 -0.0372  0.1574
  739POPI   C2B11696   9.560   0.742   6.239 -0.0851  0.1670 -0.0315
  739POPI   C3B11697   9.442   0.979   6.564  0.0605 -0.0557  0.0492
  739POPI   C4B11698   9.263   1.090   6.887 -0.1642 -0.0002 -0.3083
  740POPI    C111699  16.131   1.183   4.812  0.0133 -0.0240  0.5018
  740POPI    C211700  15.971   0.818   4.785 -0.1416  0.0751 -0.0311
  740POPI    C311701  15.769   1.112   4.965 -0.1779 -0.0106  0.0687
  740POPI   PO411702  16.390   1.128   4.862  0.2079  0.2253 -0.0666
  740POPI   GL111703  16.401   1.102   5.342 -0.2425 -0.0888  0.1469
  740POPI   GL211704  16.809   1.152   5.409 -0.0930  0.0637 -0.3376
  740POPI   C1A11705  16.391   1.339   5.759 -0.0463 -0.2530  0.3043
  740POPI   D2A11706  16.432   1.451   6.246  0.1370  0.0191 -0.2730
  740POPI   C3A11707  16.168   1.330   6.664  0.0008  0.5132 -0.1115
  740POPI   C4A11708  15.877   1.333   6.943  0.0456 -0.0342  0.0640
  740POPI   C1B11709  16.829   1.064   5.871 -0.3585 -0.0626  0.0798
  740POPI   C2B11710  16.896   1.319   6.147  0.0532  0.3527 -0.1591
  740POPI   C3B11711  16.819   1.430   6.617 -0.1807  0.1387 -0.1576
  740POPI   C4B11712  16.567   1.446   7.004  0.0802  0.2664 -0.2202
  741POPI    C111713   7.026  17.278   4.926 -0.5462 -0.1984  0.0171
  741POPI    C211714   7.231  17.131   4.616 -0.3040  0.2457 -0.0427
  741POPI    C311715   6.878  16.972   4.717 -0.2328 -0.1141 -0.3389
  741POPI   PO411716   7.124  17.195   5.110  0.1266  0.0338 -0.0904
  741POPI   GL111717   7.382  17.219   5.408 -0.1234  0.0479  0.1747
  741POPI   GL211718   7.502  17.600   5.480 -0.0979  0.3870 -0.0795
  741POPI   C1A11719   7.508  17.218   5.841  0.1595 -0.4146  0.4178
  741POPI   D2A11720   7.449  17.221   6.368  0.3486 -0.0644 -0.0307
  741POPI   C3A11721   7.133  17.071   6.666  0.5279  0.2322  0.1994
  741POPI   C4A11722   6.808  17.202   6.970  0.0089 -0.1114  0.1750
  741POPI   C1B11723   7.110  17.584   5.767 -0.1992 -0.1124  0.0923
  741POPI   C2B11724   7.031  17.697   6.164 -0.1480 -0.1050  0.1347
  741POPI   C3B11725   6.854  17.927   6.438 -0.1499  0.0792  0.2592
  741POPI   C4B11726   6.593  17.756   6.780 -0.1075 -0.1665 -0.0675
  742POPI    C111727   8.031  10.627   4.725 -0.0754  0.0373  0.0107
  742POPI    C211728   8.051  10.965   4.513 -0.0352 -0.0381 -0.1068
  742POPI    C311729   8.272  10.649   4.407 -0.2147 -0.1635 -0.1108
  742POPI   PO411730   7.983  10.680   5.028 -0.0495 -0.0841 -0.0598
  742POPI   GL111731   7.951  11.048   5.339  0.2480 -0.0698  0.0843
  742POPI   GL211732   7.709  11.282   5.407  0.1669  0.2245 -0.3315
  742POPI   C1A11733   7.930  10.979   5.735 -0.2191 -0.1814 -0.0762
  742POPI   D2A11734   7.927  10.976   6.216  0.1787 -0.0342 -0.0703
  742POPI   C3A11735   7.748  10.761   6.460 -0.1102  0.0730  0.1055
  742POPI   C4A11736   7.465  10.574   6.790  0.1574 -0.0974 -0.0370
  742POPI   C1B11737   7.432  11.109   5.670 -0.4655  0.2503 -0.4799
  742POPI   C2B11738   7.131  11.374   6.001 -0.2833 -0.4242  0.0165
  742POPI   C3B11739   6.709  11.570   6.270  0.2095  0.1268 -0.0125
  742POPI   C4B11740   6.264  11.806   6.425 -0.1372 -0.1111  0.1339
  743POPI    C111741  10.772  13.782   4.912 -0.1806 -0.0803 -0.0842
  743POPI    C211742  10.935  14.100   4.731  0.1686 -0.1470  0.1050
  743POPI    C311743  10.913  13.749   4.539 -0.0832 -0.0491 -0.0502
  743POPI   PO411744  10.609  13.988   5.231  0.1103  0.3736 -0.1770
  743POPI   GL111745  10.626  14.015   5.709 -0.2020 -0.0731 -0.1571
  743POPI   GL211746  10.329  13.804   5.588 -0.0196 -0.2629  0.0039
  743POPI   C1A11747  10.877  14.085   6.117 -0.0403 -0.1557 -0.0117
  743POPI   D2A11748  11.181  14.225   6.332  0.2973  0.1054  0.2186
  743POPI   C3A11749  11.099  14.366   6.720 -0.1214 -0.2315 -0.1154
  743POPI   C4A11750  10.935  14.448   7.142  0.0560 -0.1769 -0.1502
  743POPI   C1B11751  10.317  13.779   6.072 -0.0733 -0.0300  0.2273
  743POPI   C2B11752  10.266  13.729   6.606  0.3831 -0.0877  0.0687
  743POPI   C3B11753  10.141  13.462   6.841  0.2889  0.2775  0.1530
  743POPI   C4B11754  10.031  13.087   7.116 -0.4057  0.1626 -0.2538
  744POPS   CNO11755   3.892   4.585   5.334 -0.1629 -0.0749 -0.2198
  744POPS   PO411756   4.174   4.283   5.158  0.0252  0.1810  0.1891
  744POPS   GL111757   4.529   4.272   5.332  0.0072 -0.0162 -0.1291
  744POPS   GL211758   4.593   4.403   5.542 -0.4785  0.0032 -0.0483
  744POPS   C1A11759   4.767   3.965   5.601 -0.0091  0.1942 -0.4504
  744POPS   D2A11760   4.659   3.757   5.921  0.0509  0.0444  0.1310
  744POPS   C3A11761   4.360   4.004   6.238 -0.1275  0.3063  0.0384
  744POPS   C4A11762   4.009   4.150   6.296 -0.1370  0.3333  0.0074
  744POPS   C1B11763   4.723   4.711   5.901 -0.1200 -0.2208 -0.0032
  744POPS   C2B11764   4.796   4.710   6.368 -0.0799  0.1351 -0.1023
  744POPS   C3B11765   5.049   4.628   6.698  0.1275 -0.0309 -0.2272
  744POPS   C4B11766   5.091   4.253   7.028 -0.1228  0.0891 -0.1066
  745POPS   CNO11767   8.806   5.623   4.942 -0.0481  0.2481  0.0784
  745POPS   PO411768   8.676   5.415   5.249  0.0992  0.0781  0.3299
  745POPS   GL111769   8.564   5.240   5.581 -0.0692  0.1715  0.2130
  745POPS   GL211770   8.554   4.965   5.631  0.0023 -0.0207 -0.2896
  745POPS   C1A11771   8.641   5.332   5.957  0.0683  0.1840 -0.0574
  745POPS   D2A11772   8.593   5.278   6.392  0.2245  0.2422 -0.0516
  745POPS   C3A11773   8.803   5.118   6.471 -0.0233  0.4279  0.0684
  745POPS   C4A11774   8.933   4.745   6.503 -0.1105  0.1300  0.2387
  745POPS   C1B11775   8.543   4.838   6.088 -0.0948 -0.0806  0.2145
  745POPS   C2B11776   8.427   4.735   6.460  0.0897  0.0352 -0.0949
  745POPS   C3B11777   8.368   4.914   6.813  0.1347 -0.0459  0.0050
  745POPS   C4B11778   8.325   5.099   7.160 -0.1488  0.0125 -0.0110
  746POPS   CNO11779  17.611  16.028   4.588 -0.1239 -0.0516 -0.1268
  746POPS   PO411780  17.423  16.068   5.018  0.1424 -0.1026 -0.0878
  746POPS   GL111781  17.321  16.252   5.395  0.1799 -0.0608 -0.2945
  746POPS   GL211782  17.092  16.434   5.291  0.0427  0.2680  0.2057
  746POPS   C1A11783  17.290  16.047   5.785  0.1500 -0.0734 -0.1507
  746POPS   D2A11784  17.064  15.952   6.227  0.2295 -0.0228 -0.1483
  746POPS   C3A11785  17.114  15.960   6.680  0.3708 -0.1564  0.1673
  746POPS   C4A11786  17.167  16.250   7.071 -0.2714  0.2015 -0.0277
  746POPS   C1B11787  17.123  16.667   5.599  0.2099  0.1125 -0.0015
  746POPS   C2B11788  17.014  16.771   6.004  0.1311 -0.0137 -0.0198
  746POPS   C3B11789  17.353  16.878   6.299  0.2515 -0.1582  0.1297
  746POPS   C4B11790  17.625  16.692   6.436  0.2783  0.1699 -0.2399
  747POPS   CNO11791  18.346   8.952   5.161  0.1519 -0.1424 -0.0486
  747POPS   PO411792  18.409   8.833   5.602 -0.1845 -0.1159 -0.3594
  747POPS   GL111793  18.373   8.771   6.070 -0.0114 -0.0438 -0.2198
  747POPS   GL211794  18.160   8.536   6.070 -0.1758 -0.0495 -0.3907
  747POPS   C1A11795  18.559   8.564   6.363  0.0986  0.0011 -0.1494
  747POPS   D2A11796  18.972   8.585   6.541 -0.0028 -0.0016  0.0322
  747POPS   C3A11797  18.995   8.392   7.004 -0.2507 -0.0256 -0.1945
  747POPS   C4A11798  19.134   8.125   7.366  0.1088 -0.3243  0.2445
  747POPS   C1B11799  18.042   8.726   6.496 -0.2753 -0.0602  0.0367
  747POPS   C2B11800  18.080   9.104   6.587 -0.0544  0.2133 -0.3282
  747POPS   C3B11801  18.084   9.161   7.047 -0.0171 -0.0091 -0.1643
  747POPS   C4B11802  18.296   9.141   7.351  0.2571 -0.3837  0.0756
  748POPS   CNO11803  13.288   8.666   5.045  0.0038  0.3146  0.1471
  748POPS   PO411804  12.956   8.336   5.255 -0.0526 -0.1196 -0.1204
  748POPS   GL111805  12.847   8.326   5.737  0.0471  0.0695  0.3131
  748POPS   GL211806  12.798   8.023   5.802 -0.4446  0.1899  0.0784
  748POPS   C1A11807  12.945   8.429   6.085  0.0663  0.1683 -0.1417
  748POPS   D2A11808  13.280   8.056   6.208 -0.1437  0.0858  0.3571
  748POPS   C3A11809  13.414   7.875   6.595  0.1916 -0.1634  0.1188
  748POPS   C4A11810  13.369   7.888   7.030 -0.0185 -0.0735 -0.1071
  748POPS   C1B11811  12.513   7.925   6.030  0.0985  0.1425  0.1354
  748POPS   C2B11812  12.525   7.442   6.166  0.0063  0.0061 -0.0728
  748POPS   C3B11813  12.438   7.236   6.491 -0.1604 -0.4756 -0.0600
  748POPS   C4B11814  12.231   6.883   6.442 -0.0039 -0.0252  0.3979
  749POPS   CNO11815   2.527  10.421   5.256  0.0943  0.2888  0.2672
  749POPS   PO411816   2.752  10.150   5.538  0.2986  0.1982  0.1810
  749POPS   GL111817   2.866  10.119   5.994 -0.2231  0.1759 -0.1567
  749POPS   GL211818   2.853   9.847   5.998  0.2096  0.2874 -0.1941
  749POPS   C1A11819   3.232  10.090   6.255  0.1716 -0.0235  0.0367
  749POPS   D2A11820   3.475  10.302   6.588 -0.1273  0.0731  0.0143
  749POPS   C3A11821   3.334  10.202   7.000  0.0456 -0.0381  0.1835
  749POPS   C4A11822   3.092  10.427   7.200  0.2510 -0.1772 -0.0264
  749POPS   C1B11823   2.829   9.612   6.503 -0.0398 -0.1269  0.3589
  749POPS   C2B11824   2.919   9.689   6.964 -0.1797 -0.0396 -0.3307
  749POPS   C3B11825   2.913   9.925   7.246  0.3325 -0.1568  0.1614
  749POPS   C4B11826   2.699  10.229   7.495 -0.0233 -0.2758  0.1461
  750POPS   CNO11827   0.939  11.701   5.725  0.2003  0.0712 -0.0432
  750POPS   PO411828   1.176  12.044   5.657 -0.1027 -0.1469 -0.0151
  750POPS   GL111829   1.035  12.155   6.062  0.0164  0.5337  0.3220
  750POPS   GL211830   0.855  12.424   5.926  0.1860 -0.1681 -0.3506
  750POPS   C1A11831   1.229  12.030   6.410 -0.1658 -0.0380  0.0196
  750POPS   D2A11832   1.379  11.854   6.807 -0.1208  0.1049 -0.0731
  750POPS   C3A11833   1.358  11.983   7.128  0.0344  0.1439 -0.3151
  750POPS   C4A11834   1.036  11.998   7.433  0.0803 -0.1291  0.3127
  750POPS   C1B11835   0.434  12.276   6.044  0.0636  0.0758  0.1558
  750POPS   C2B11836   0.050  12.301   6.193  0.0397  0.2161  0.1669
  750POPS   C3B11837  -0.147  12.466   6.573 -0.2750 -0.3062 -0.2075
  750POPS   C4B11838  -0.137  12.724   6.730  0.0390 -0.4045 -0.3020
  751POPS   CNO11839   3.265   7.812   5.231  0.2850 -0.2636  0.1497
  751POPS   PO411840   3.740   7.755   5.355 -0.1438 -0.3686  0.1898
  751POPS   GL111841   3.611   7.922   5.746  0.2985 -0.0167 -0.1079
  751POPS   GL211842   3.430   8.192   5.725  0.0238  0.0084  0.1974
  751POPS   C1A11843   3.892   7.875   6.073 -0.2560  0.2585  0.1491
  751POPS   D2A11844   3.926   8.150   6.413 -0.0187 -0.0276 -0.0195
  751POPS   C3A11845   4.285   8.116   6.721  0.1753  0.1691  0.0086
  751POPS   C4A11846   4.684   7.945   6.960  0.0086  0.0289 -0.0695
  751POPS   C1B11847   3.511   8.226   6.147  0.2847 -0.0748 -0.2576
  751POPS   C2B11848   3.480   8.344   6.569  0.2869 -0.0454 -0.1948
  751POPS   C3B11849   3.645   8.061   6.922  0.2326  0.0019  0.4838
  751POPS   C4B11850   3.706   7.864   7.246  0.0381 -0.0185 -0.0193
  752POPS   CNO11851  13.954  13.289   5.239  0.1969 -0.1637 -0.2149
  752POPS   PO411852  13.514  13.410   5.062  0.2062 -0.4386  0.0424
  752POPS   GL111853  13.461  13.235   5.452 -0.0505 -0.0744 -0.2425
  752POPS   GL211854  13.185  13.354   5.544  0.0297  0.0315  0.2730
  752POPS   C1A11855  13.592  13.002   5.832  0.1168 -0.1363 -0.0976
  752POPS   D2A11856  13.385  12.880   6.228 -0.2211 -0.2730 -0.0087
  752POPS   C3A11857  13.708  12.864   6.547 -0.1334 -0.2867  0.0617
  752POPS   C4A11858  14.091  13.130   6.718  0.2128 -0.3232  0.0559
  752POPS   C1B11859  13.164  13.277   6.008 -0.0037 -0.2806 -0.0596
  752POPS   C2B11860  13.036  13.314   6.400 -0.1449  0.1729 -0.1146
  752POPS   C3B11861  12.926  13.381   6.904 -0.1156 -0.2156 -0.1405
  752POPS   C4B11862  13.150  13.484   7.247 -0.2739  0.0382 -0.0501
  753POPS   CNO11863   9.040  14.246   5.421  0.0919 -0.1543  0.1557
  753POPS   PO411864   9.199  13.786   5.419  0.0451 -0.2976 -0.0417
  753POPS   GL111865   9.642  13.593   5.499 -0.0199 -0.0805 -0.0765
  753POPS   GL211866   9.649  13.304   5.515  0.2533  0.0982  0.0088
  753POPS   C1A11867   9.828  13.545   5.952  0.2447 -0.0155 -0.3053
  753POPS   D2A11868   9.812  13.424   6.278  0.2855  0.0760 -0.3543
  753POPS   C3A11869   9.422  13.190   6.342 -0.2867  0.2184 -0.0469
  753POPS   C4A11870   9.182  12.926   6.748  0.0296 -0.0315 -0.1372
  753POPS   C1B11871   9.702  13.044   5.868  0.2353  0.1088  0.0060
  753POPS   C2B11872   9.861  12.900   6.371  0.0678  0.4581  0.0718
  753POPS   C3B11873   9.687  12.966   6.807  0.0221 -0.1418 -0.0399
  753POPS   C4B11874   9.493  13.245   7.112 -0.1706 -0.0147 -0.0931
  754POPS   CNO11875   9.629   6.143   5.398 -0.0229  0.0111 -0.1300
  754POPS   PO411876   9.670   5.777   5.502  0.0184  0.2723 -0.0519
  754POPS   GL111877   9.316   5.905   5.806  0.1385  0.1351 -0.0423
  754POPS   GL211878   9.122   5.965   5.697 -0.0541  0.2011  0.0225
  754POPS   C1A11879   9.186   5.953   6.184  0.2365 -0.0689 -0.0306
  754POPS   D2A11880   8.965   6.094   6.486  0.3035  0.0495 -0.0159
  754POPS   C3A11881   8.692   5.732   6.725  0.1178 -0.1195  0.1933
  754POPS   C4A11882   8.730   5.389   6.880  0.2225  0.0994  0.1715
  754POPS   C1B11883   8.785   5.826   5.893  0.1452 -0.1982 -0.2606
  754POPS   C2B11884   8.531   5.818   6.270 -0.0640 -0.1261  0.0701
  754POPS   C3B11885   8.344   6.096   6.445  0.0720  0.0160 -0.0133
  754POPS   C4B11886   8.103   6.320   6.586 -0.1873 -0.2329 -0.1325
  755POPS   CNO11887  14.519  13.909   4.622  0.1255  0.3333  0.1266
  755POPS   PO411888  14.250  14.063   4.961 -0.1362 -0.2614 -0.1862
  755POPS   GL111889  14.033  14.082   5.432 -0.2974  0.1591  0.0430
  755POPS   GL211890  13.805  14.263   5.429  0.0732 -0.3321 -0.0998
  755POPS   C1A11891  14.144  14.067   5.911 -0.0461  0.0129 -0.3623
  755POPS   D2A11892  13.944  13.837   6.264  0.0467 -0.4450 -0.1740
  755POPS   C3A11893  14.136  13.731   6.758  0.1670 -0.0578 -0.3053
  755POPS   C4A11894  14.260  13.530   7.010  0.2475  0.1536  0.0599
  755POPS   C1B11895  13.682  14.173   5.835  0.3240 -0.0906  0.1068
  755POPS   C2B11896  13.714  14.323   6.174 -0.2081 -0.1007 -0.1963
  755POPS   C3B11897  13.623  14.445   6.768  0.2394 -0.1803  0.3475
  755POPS   C4B11898  13.382  14.639   7.166 -0.0333  0.4257 -0.1207
  756POPS   CNO11899  16.103   2.633   5.297  0.1702  0.2468 -0.0674
  756POPS   PO411900  15.768   2.958   5.169  0.0309 -0.0816 -0.0895
  756POPS   GL111901  15.960   3.221   5.363 -0.0143  0.1290 -0.0619
  756POPS   GL211902  16.166   3.073   5.552  0.0403 -0.0509  0.0289
  756POPS   C1A11903  15.860   3.598   5.599  0.0737  0.2492 -0.2527
  756POPS   D2A11904  15.867   4.099   5.678 -0.2473 -0.2472 -0.2938
  756POPS   C3A11905  15.561   4.425   5.805 -0.0047  0.1390  0.0038
  756POPS   C4A11906  15.522   4.852   5.907 -0.1982  0.2232  0.0260
  756POPS   C1B11907  16.336   3.470   5.831  0.0807  0.1137 -0.0499
  756POPS   C2B11908  16.255   3.749   6.161 -0.0704  0.0505  0.0755
  756POPS   C3B11909  16.174   3.927   6.576  0.1279 -0.0363  0.1544
  756POPS   C4B11910  16.296   4.285   6.795 -0.1759 -0.0888  0.1402
  757POPS   CNO11911   1.204  11.348   5.032 -0.1005  0.1078  0.3287
  757POPS   PO411912   1.038  11.294   5.450 -0.3303 -0.5019  0.2975
  757POPS   GL111913   0.743  11.119   5.884 -0.0639 -0.0885 -0.1485
  757POPS   GL211914   0.558  11.481   6.050 -0.0253  0.2548 -0.1024
  757POPS   C1A11915   0.626  11.054   6.356 -0.1457 -0.1486  0.0388
  757POPS   D2A11916   0.627  10.989   6.725  0.1926 -0.2664 -0.0637
  757POPS   C3A11917   0.760  10.604   6.957  0.3082 -0.1533  0.1578
  757POPS   C4A11918   1.119  10.487   7.252  0.2282  0.1019  0.0283
  757POPS   C1B11919   0.678  11.868   6.363 -0.1474 -0.0523  0.1450
  757POPS   C2B11920   0.722  12.230   6.471 -0.2008 -0.1557  0.0818
  757POPS   C3B11921   0.908  12.542   6.373  0.0782 -0.1608 -0.2153
  757POPS   C4B11922   1.043  12.829   6.170 -0.0462 -0.0717  0.2966
  758POPS   CNO11923   7.936  16.257   5.113  0.2272  0.3553  0.0631
  758POPS   PO411924   7.690  15.907   5.018  0.0062 -0.1665 -0.1191
  758POPS   GL111925   7.663  15.971   5.429 -0.2641 -0.0971  0.1006
  758POPS   GL211926   7.911  15.990   5.654 -0.0632  0.1599  0.4042
  758POPS   C1A11927   7.523  16.150   5.864  0.2410 -0.1925 -0.0892
  758POPS   D2A11928   7.566  16.414   6.171 -0.1014  0.1852 -0.2378
  758POPS   C3A11929   7.783  16.277   6.602  0.2386 -0.2004  0.2280
  758POPS   C4A11930   7.979  16.037   6.928 -0.0371  0.0311  0.1337
  758POPS   C1B11931   8.014  16.302   5.837 -0.1984 -0.3316  0.0589
  758POPS   C2B11932   8.067  16.517   6.194  0.1638  0.1473 -0.0418
  758POPS   C3B11933   8.367  16.458   6.585  0.1065  0.1595  0.2088
  758POPS   C4B11934   8.678  16.473   6.846  0.0719 -0.1859  0.1034
  759POPS   CNO11935   2.604   0.940   5.179 -0.0543  0.2969 -0.2727
  759POPS   PO411936   2.429   0.472   4.953  0.3422  0.1427  0.0580
  759POPS   GL111937   2.381   0.293   5.424 -0.0034  0.2028  0.0578
  759POPS   GL211938   2.438  -0.079   5.371  0.0529  0.5694 -0.3548
  759POPS   C1A11939   2.390   0.603   5.763  0.0911  0.1021 -0.0226
  759POPS   D2A11940   2.192   0.940   5.837  0.1126  0.1518  0.0850
  759POPS   C3A11941   1.827   0.877   6.017 -0.4648  0.0933  0.2958
  759POPS   C4A11942   1.595   0.760   6.358  0.2053 -0.0317  0.1053
  759POPS   C1B11943   2.636  -0.421   5.671 -0.2143 -0.0610  0.0484
  759POPS   C2B11944   2.653  -0.374   6.133  0.3677 -0.2025  0.2188
  759POPS   C3B11945   2.616  -0.400   6.512 -0.0628 -0.4291 -0.1871
  759POPS   C4B11946   2.860  -0.455   6.763  0.2088  0.0329  0.0053
  760POPS   CNO11947  12.096  17.047   4.803  0.2214 -0.1401  0.1117
  760POPS   PO411948  12.081  17.471   5.044  0.4858 -0.0160 -0.3160
  760POPS   GL111949  12.030  17.524   5.492 -0.3385  0.1885 -0.0772
  760POPS   GL211950  11.893  17.246   5.629  0.4378  0.0407 -0.3463
  760POPS   C1A11951  12.144  17.749   5.712  0.4749  0.2390  0.0260
  760POPS   D2A11952  12.252  18.166   5.911 -0.0072 -0.2848  0.0590
  760POPS   C3A11953  12.438  18.179   6.336  0.0402 -0.1018  0.1130
  760POPS   C4A11954  12.770  18.545   6.554 -0.1957  0.0011 -0.2170
  760POPS   C1B11955  11.939  17.326   6.028 -0.0941 -0.0104  0.0507
  760POPS   C2B11956  11.922  17.241   6.436  0.1480  0.0137  0.1520
  760POPS   C3B11957  12.254  17.398   6.724 -0.1972  0.2016 -0.3437
  760POPS   C4B11958  12.325  17.325   7.055  0.2756 -0.1445 -0.3612
  761POPS   CNO11959  12.060   4.958   4.914  0.1136 -0.1690 -0.0389
  761POPS   PO411960  11.863   4.774   5.332 -0.4954 -0.3724  0.0595
  761POPS   GL111961  11.719   5.099   5.604 -0.1906 -0.1335  0.0596
  761POPS   GL211962  11.384   5.211   5.582 -0.0154 -0.2247 -0.3249
  761POPS   C1A11963  11.993   4.955   5.918 -0.1442  0.0813 -0.0743
  761POPS   D2A11964  11.979   4.981   6.303  0.2571  0.2340 -0.1752
  761POPS   C3A11965  11.987   5.151   6.715  0.0722  0.2553  0.0613
  761POPS   C4A11966  11.843   5.390   7.001 -0.0800  0.0272 -0.0538
  761POPS   C1B11967  11.577   5.248   6.086  0.2793 -0.1114  0.0239
  761POPS   C2B11968  11.588   5.516   6.473  0.2150  0.1168  0.0929
  761POPS   C3B11969  12.057   5.683   6.597 -0.1301  0.1668 -0.1129
  761POPS   C4B11970  12.341   5.494   6.876  0.0556 -0.1355 -0.0699
  762POPS   CNO11971   5.507  19.236   4.723  0.2416  0.1737 -0.1451
  762POPS   PO411972   5.608  18.779   4.806  0.3156  0.0255 -0.1144
  762POPS   GL111973   5.290  18.659   5.135  0.0019  0.0061 -0.3924
  762POPS   GL211974   5.068  18.419   5.028  0.0766  0.2094 -0.1164
  762POPS   C1A11975   5.050  18.583   5.498 -0.1450  0.2693 -0.5466
  762POPS   D2A11976   4.859  18.577   5.882 -0.1450 -0.0679  0.0942
  762POPS   C3A11977   4.661  18.200   5.892 -0.2518  0.2072  0.4087
  762POPS   C4A11978   4.314  17.861   5.954  0.1722 -0.5208  0.1447
  762POPS   C1B11979   5.271  18.079   5.322 -0.1676  0.1144 -0.0906
  762POPS   C2B11980   5.160  18.044   5.740 -0.1204  0.1213 -0.1566
  762POPS   C3B11981   5.264  18.323   6.068 -0.2352  0.1986  0.0334
  762POPS   C4B11982   5.207  18.316   6.482 -0.0122 -0.0547 -0.3244
  763POPS   CNO11983   5.390   5.647   5.158  0.0512 -0.0010  0.0202
  763POPS   PO411984   5.519   5.919   5.299 -0.0688 -0.1252  0.1476
  763POPS   GL111985   5.501   6.046   5.654 -0.0245 -0.1301  0.2692
  763POPS   GL211986   5.229   6.015   5.782 -0.2760  0.0219 -0.0433
  763POPS   C1A11987   5.652   6.128   5.950  0.1942 -0.2784  0.0154
  763POPS   D2A11988   5.999   5.853   6.225 -0.2873  0.2875  0.1108
  763POPS   C3A11989   5.962   5.503   6.526 -0.1725 -0.0133 -0.0192
  763POPS   C4A11990   5.821   5.159   6.731  0.1633  0.3581  0.1547
  763POPS   C1B11991   5.143   6.108   6.205  0.2035 -0.1672  0.6910
  763POPS   C2B11992   5.176   6.016   6.519 -0.0416  0.1690 -0.0343
  763POPS   C3B11993   5.335   6.122   6.892 -0.0847 -0.0752  0.2611
  763POPS   C4B11994   5.356   6.265   7.299 -0.0606 -0.1592  0.2567
  764POPS   CNO11995   1.347  16.207   5.207  0.0923 -0.3824 -0.1432
  764POPS   PO411996   0.991  15.954   5.354  0.0244 -0.1254 -0.0165
  764POPS   GL111997   0.753  15.811   5.586 -0.1855  0.0705 -0.3174
  764POPS   GL211998   0.970  15.848   5.831 -0.3272  0.1584 -0.0437
  764POPS   C1A11999   0.628  15.506   5.904  0.0168  0.2088 -0.1073
  764POPS   D2A12000   0.390  15.227   6.059  0.0637  0.1584 -0.1866
  764POPS   C3A12001   0.709  14.845   6.046  0.2882 -0.1382 -0.1834
  764POPS   C4A12002   0.548  14.402   6.106  0.0621  0.0222  0.0312
  764POPS   C1B12003   0.994  15.902   6.238  0.2046  0.5044  0.2444
  764POPS   C2B12004   0.753  15.902   6.695  0.0243  0.0284 -0.0917
  764POPS   C3B12005   0.574  15.930   6.990 -0.0359 -0.1164 -0.1349
  764POPS   C4B12006   0.230  15.783   7.260 -0.1196 -0.1321 -0.0450
  765POPS   CNO12007   2.217   5.470   5.041  0.3890 -0.0228 -0.0272
  765POPS   PO412008   2.067   5.091   5.225  0.3107 -0.3391 -0.1517
  765POPS   GL112009   1.987   4.833   5.442  0.0593  0.1792  0.0378
  765POPS   GL212010   1.754   4.701   5.514  0.2342  0.2433  0.0395
  765POPS   C1A12011   2.137   4.675   5.850  0.1000  0.1669 -0.0660
  765POPS   D2A12012   1.808   4.765   6.139 -0.0455  0.1333 -0.3017
  765POPS   C3A12013   1.822   4.655   6.465 -0.0757 -0.1257 -0.0808
  765POPS   C4A12014   1.938   4.294   6.592  0.2014  0.0250 -0.0960
  765POPS   C1B12015   1.684   5.109   5.775 -0.3549  0.1545 -0.1103
  765POPS   C2B12016   1.583   5.233   6.130  0.2520 -0.4128  0.0715
  765POPS   C3B12017   1.589   5.079   6.523 -0.0992 -0.4558 -0.1648
  765POPS   C4B12018   1.646   4.896   7.000  0.0732  0.0031 -0.0993
  766POPS   CNO12019   3.151  17.342   5.148  0.1137  0.0066  0.1065
  766POPS   PO412020   2.808  17.320   5.047 -0.3312 -0.0316 -0.0509
  766POPS   GL112021   2.718  17.465   5.464 -0.1264 -0.0169  0.1730
  766POPS   GL212022   2.590  17.831   5.556 -0.2705 -0.0327  0.3432
  766POPS   C1A12023   2.608  17.449   5.913  0.0316  0.1075  0.0243
  766POPS   D2A12024   2.661  17.530   6.370  0.1724  0.1809  0.0328
  766POPS   C3A12025   2.398  17.798   6.526  0.1436 -0.0288 -0.0773
  766POPS   C4A12026   2.063  18.046   6.741  0.0812 -0.1256 -0.1654
  766POPS   C1B12027   2.976  17.826   5.834  0.0829  0.2514  0.0492
  766POPS   C2B12028   3.269  17.779   6.246  0.0825  0.1636  0.3791
  766POPS   C3B12029   3.517  17.950   6.561 -0.3073 -0.1533  0.1446
  766POPS   C4B12030   3.905  18.166   6.617 -0.0030 -0.2637 -0.2707
  767POPS   CNO12031  14.257   9.083   5.400  0.1877 -0.1268 -0.1687
  767POPS   PO412032  14.188   9.411   5.419 -0.3708 -0.1143  0.1553
  767POPS   GL112033  14.111   9.756   5.664 -0.1027  0.0865  0.0459
  767POPS   GL212034  14.376  10.032   5.734  0.2038 -0.1437  0.0706
  767POPS   C1A12035  13.785   9.862   5.953  0.1842  0.0700  0.2666
  767POPS   D2A12036  13.646  10.237   6.140 -0.1437  0.0888  0.0152
  767POPS   C3A12037  13.366  10.254   6.580 -0.2330  0.0334 -0.1848
  767POPS   C4A12038  13.279  10.510   6.839  0.0994  0.0011 -0.2612
  767POPS   C1B12039  14.232   9.994   6.186  0.3340  0.1133  0.1793
  767POPS   C2B12040  14.392   9.973   6.616  0.0691 -0.2737  0.0477
  767POPS   C3B12041  14.642   9.738   6.981  0.3497  0.0440 -0.0024
  767POPS   C4B12042  14.695   9.946   7.386 -0.4394 -0.2501  0.4088
  768POPS   CNO12043  16.664  18.078   4.369 -0.3014 -0.3431 -0.1468
  768POPS   PO412044  16.554  17.879   4.791  0.2030  0.3761  0.0897
  768POPS   GL112045  16.618  18.035   5.247  0.2269  0.2186 -0.0155
  768POPS   GL212046  16.759  18.293   5.242 -0.1892 -0.0435 -0.1659
  768POPS   C1A12047  16.748  17.671   5.612  0.1893 -0.2055  0.0891
  768POPS   D2A12048  16.968  17.186   5.652 -0.2906  0.4626  0.0422
  768POPS   C3A12049  17.126  17.301   6.061  0.0683  0.2332  0.0012
  768POPS   C4A12050  17.165  17.416   6.523  0.0167 -0.0337 -0.3042
  768POPS   C1B12051  16.954  18.255   5.599  0.0787  0.0693 -0.0919
  768POPS   C2B12052  16.776  18.411   6.011 -0.0030 -0.0764 -0.3057
  768POPS   C3B12053  16.584  18.618   6.429  0.0624  0.2440  0.2739
  768POPS   C4B12054  16.230  18.809   6.723 -0.0234  0.0626 -0.0198
  769POPS   CNO12055   1.226   7.169   5.502  0.2564 -0.1400 -0.2038
  769POPS   PO412056   1.453   6.822   5.503  0.2018 -0.0120 -0.1568
  769POPS   GL112057   1.628   6.783   5.869  0.2613  0.3314  0.1590
  769POPS   GL212058   1.820   6.505   5.797 -0.2180 -0.0823 -0.1631
  769POPS   C1A12059   1.548   6.593   6.210 -0.2228 -0.0739  0.0033
  769POPS   D2A12060   1.557   6.585   6.584  0.0225  0.3196 -0.3911
  769POPS   C3A12061   1.632   6.791   6.986  0.2075 -0.0485  0.1309
  769POPS   C4A12062   1.573   6.576   7.435 -0.0239 -0.0112 -0.1028
  769POPS   C1B12063   2.059   6.284   6.124 -0.0353 -0.0300  0.2712
  769POPS   C2B12064   2.077   6.383   6.453 -0.0694 -0.2807  0.1694
  769POPS   C3B12065   2.070   6.499   6.820  0.0797  0.3534  0.1819
  769POPS   C4B12066   2.119   6.747   7.034  0.0067  0.1799  0.0468
  770POPS   CNO12067   8.321  19.580   4.469 -0.1819 -0.0190  0.0725
  770POPS   PO412068   7.958  19.522   4.939 -0.1040  0.0061 -0.1457
  770POPS   GL112069   8.071  19.676   5.333  0.1895  0.1242 -0.1765
  770POPS   GL212070   8.295  19.556   5.380  0.2097 -0.1147 -0.1066
  770POPS   C1A12071   8.029  19.681   5.806  0.0185 -0.0184 -0.1569
  770POPS   D2A12072   7.892  19.654   6.180  0.1443  0.0198 -0.0484
  770POPS   C3A12073   7.911  19.355   6.519 -0.0205  0.3150  0.0874
  770POPS   C4A12074   7.800  19.236   6.911  0.0952 -0.0292 -0.0793
  770POPS   C1B12075   8.353  20.021   5.705 -0.2250  0.0423  0.1226
  770POPS   C2B12076   8.227  20.111   6.130 -0.1920 -0.1552 -0.2701
  770POPS   C3B12077   8.348  20.171   6.570  0.2427 -0.0437 -0.0466
  770POPS   C4B12078   8.561  20.336   6.761 -0.1033 -0.1090  0.1239
  771POPS   CNO12079  18.797   0.597   4.740  0.1304 -0.1625 -0.3904
  771POPS   PO412080  18.852   0.170   4.740 -0.3641 -0.0231 -0.2881
  771POPS   GL112081  18.997   0.032   5.153 -0.0682 -0.0155  0.1300
  771POPS   GL212082  18.813  -0.016   5.275  0.1849  0.1231  0.0966
  771POPS   C1A12083  19.226  -0.053   5.552  0.3258  0.0199  0.0739
  771POPS   D2A12084  19.641   0.139   5.742  0.0187 -0.2298  0.0170
  771POPS   C3A12085  19.648   0.154   6.092  0.2892 -0.0016 -0.3171
  771POPS   C4A12086  19.751   0.429   6.547  0.0696  0.4319  0.5026
  771POPS   C1B12087  18.459  -0.115   5.516 -0.2667 -0.1017  0.1959
  771POPS   C2B12088  18.377  -0.348   5.888  0.1599 -0.1736  0.3138
  771POPS   C3B12089  18.221  -0.392   6.268 -0.1558  0.3272 -0.0513
  771POPS   C4B12090  18.475  -0.261   6.706 -0.1804 -0.3545  0.1605
  772POPS   CNO12091   4.138   9.417   5.283  0.1958  0.0267  0.0501
  772POPS   PO412092   4.536   9.684   5.106 -0.1982  0.1016 -0.2902
  772POPS   GL112093   4.546   9.677   5.570 -0.0250 -0.0922  0.1846
  772POPS   GL212094   4.302   9.747   5.745 -0.0078  0.3091 -0.1120
  772POPS   C1A12095   4.593   9.447   6.032 -0.1777  0.2364  0.2536
  772POPS   D2A12096   4.393   9.298   6.418 -0.2307  0.1862  0.4362
  772POPS   C3A12097   4.349   9.431   6.816 -0.0145  0.1371  0.0031
  772POPS   C4A12098   4.039   9.491   7.146  0.0675  0.3263  0.0064
  772POPS   C1B12099   4.235   9.970   6.144  0.2129 -0.2095 -0.2856
  772POPS   C2B12100   4.411  10.008   6.588  0.0996  0.2636  0.2763
  772POPS   C3B12101   4.757   9.605   6.581  0.1878  0.4290 -0.2086
  772POPS   C4B12102   5.194   9.676   6.442 -0.1199 -0.1084 -0.0271
  773POPS   CNO12103  16.129   5.783   5.821  0.2565 -0.3228  0.0744
  773POPS   PO412104  16.301   5.701   5.342 -0.0284 -0.0030  0.0181
  773POPS   GL112105  16.756   5.701   5.525 -0.2273 -0.0066  0.1575
  773POPS   GL212106  16.703   5.934   5.809  0.1212  0.2755  0.2827
  773POPS   C1A12107  16.950   5.526   5.832  0.1213 -0.2089 -0.1382
  773POPS   D2A12108  17.083   5.100   5.977  0.1260  0.1107  0.1150
  773POPS   C3A12109  17.509   4.925   6.009 -0.1598  0.3221  0.2422
  773POPS   C4A12110  17.822   5.152   5.779  0.4162  0.3100  0.3806
  773POPS   C1B12111  16.651   6.191   6.235 -0.3618  0.1622 -0.1086
  773POPS   C2B12112  16.627   6.073   6.656 -0.0194  0.0638 -0.0116
  773POPS   C3B12113  16.781   5.688   6.820 -0.0496 -0.2852 -0.1244
  773POPS   C4B12114  16.830   5.399   7.228 -0.0969  0.1789 -0.1455
  774POPS   CNO12115   2.984  10.588   5.422 -0.0084  0.2688  0.0531
  774POPS   PO412116   3.182  10.584   5.904 -0.0160 -0.2326  0.4081
  774POPS   GL112117   3.075  10.523   6.285 -0.2431  0.2207 -0.1136
  774POPS   GL212118   2.799  10.620   6.449 -0.2043  0.0815 -0.0412
  774POPS   C1A12119   3.188  10.603   6.754 -0.0172  0.1232  0.1480
  774POPS   D2A12120   3.563  10.613   6.929  0.5593  0.0736  0.0000
  774POPS   C3A12121   3.656  10.382   7.352 -0.0461  0.1098  0.3214
  774POPS   C4A12122   3.800  10.510   7.773  0.1025 -0.5932 -0.0357
  774POPS   C1B12123   2.686  10.534   6.907 -0.1656 -0.0699  0.0419
  774POPS   C2B12124   2.551  10.669   7.274  0.0051  0.2236 -0.2513
  774POPS   C3B12125   2.252  10.518   7.479 -0.0565 -0.2797  0.0405
  774POPS   C4B12126   1.852  10.419   7.589  0.1086  0.0439  0.1543
  775POPS   CNO12127   8.661  16.008   5.138  0.1251 -0.2347 -0.0710
  775POPS   PO412128   8.520  16.311   4.918  0.0683  0.2069  0.0507
  775POPS   GL112129   8.906  16.371   5.279  0.1260 -0.0158  0.1077
  775POPS   GL212130   8.966  16.700   5.340 -0.2363  0.1600 -0.1254
  775POPS   C1A12131   9.113  16.196   5.637 -0.0814 -0.1147 -0.0841
  775POPS   D2A12132   9.047  15.971   6.074  0.0240 -0.1074  0.0100
  775POPS   C3A12133   9.325  15.656   6.158  0.2170 -0.0605 -0.0812
  775POPS   C4A12134   9.668  15.423   6.189  0.0750 -0.0600 -0.0593
  775POPS   C1B12135   9.219  16.713   5.665  0.0410  0.4243  0.0568
  775POPS   C2B12136   9.198  16.456   6.026  0.2151 -0.0378 -0.2467
  775POPS   C3B12137   8.987  16.370   6.527 -0.2771 -0.1144 -0.1156
  775POPS   C4B12138   8.735  16.181   6.473  0.1635 -0.0711 -0.0226
  776POPS   CNO12139   2.839   4.862   4.700 -0.0444 -0.3447  0.0395
  776POPS   PO412140   2.964   4.489   4.840 -0.0607 -0.0462 -0.4901
  776POPS   GL112141   2.798   4.693   5.189  0.0269  0.2560  0.2454
  776POPS   GL212142   3.076   4.685   5.384  0.2106  0.0083 -0.0015
  776POPS   C1A12143   2.650   4.788   5.590  0.1031 -0.1427 -0.1174
  776POPS   D2A12144   2.686   4.886   5.993 -0.1615 -0.1617 -0.3046
  776POPS   C3A12145   2.895   5.202   6.225  0.0974 -0.2089  0.5182
  776POPS   C4A12146   3.032   5.623   6.247 -0.0684 -0.3606 -0.1216
  776POPS   C1B12147   3.175   4.803   5.768  0.2056  0.0139 -0.0915
  776POPS   C2B12148   3.204   4.791   6.185  0.2905 -0.0243 -0.0203
  776POPS   C3B12149   3.219   4.697   6.597  0.1958 -0.3787  0.1498
  776POPS   C4B12150   3.258   5.011   6.928 -0.0523  0.0231 -0.1569
  777POPS   CNO12151  14.856   1.011   4.892  0.3662  0.0413  0.1278
  777POPS   PO412152  15.137   0.656   4.976  0.1044  0.1672  0.0200
  777POPS   GL112153  15.346   0.708   5.373  0.1573  0.2055 -0.0952
  777POPS   GL212154  15.567   0.945   5.466 -0.0754 -0.0988 -0.2187
  777POPS   C1A12155  15.391   0.409   5.727 -0.2120 -0.0776 -0.0541
  777POPS   D2A12156  15.388   0.442   6.033  0.0473 -0.1790 -0.0878
  777POPS   C3A12157  14.991   0.635   6.148 -0.1513  0.0523 -0.1906
  777POPS   C4A12158  14.564   0.593   6.307  0.1250  0.0708 -0.7059
  777POPS   C1B12159  15.713   0.794   5.808 -0.3143  0.1435 -0.3276
  777POPS   C2B12160  15.848   0.642   6.130 -0.0853  0.0039  0.1288
  777POPS   C3B12161  15.946   0.697   6.563  0.0581 -0.0085  0.0044
  777POPS   C4B12162  16.039   0.837   6.927  0.0282 -0.1484  0.1289
  778POPS   CNO12163  16.557   1.595   5.224 -0.3362 -0.0926 -0.3730
  778POPS   PO412164  16.337   1.926   5.186  0.0139  0.3348 -0.2373
  778POPS   GL112165  16.182   1.845   5.587 -0.2332 -0.2087  0.3216
  778POPS   GL212166  16.176   2.200   5.643 -0.2530 -0.1542  0.1974
  778POPS   C1A12167  16.086   1.745   5.942 -0.0466  0.0161 -0.1945
  778POPS   D2A12168  16.062   1.768   6.397  0.3565  0.1980  0.1258
  778POPS   C3A12169  15.692   1.786   6.746  0.1193  0.0720 -0.1192
  778POPS   C4A12170  15.473   1.669   7.156  0.0691 -0.2443 -0.0744
  778POPS   C1B12171  16.255   2.610   5.774  0.0055  0.0877  0.2418
  778POPS   C2B12172  16.124   2.874   6.114 -0.2150 -0.1181  0.3544
  778POPS   C3B12173  15.791   2.877   6.497  0.0664  0.0873  0.1093
  778POPS   C4B12174  15.623   2.822   6.904 -0.2779 -0.0639  0.1542
  779POPS   CNO12175   1.781  16.439   5.455  0.2959  0.0560  0.2635
  779POPS   PO412176   2.014  16.805   5.290  0.0262  0.1884 -0.0552
  779POPS   GL112177   2.037  16.815   5.726 -0.1565  0.2028  0.0846
  779POPS   GL212178   2.300  17.022   5.764 -0.0024 -0.1383 -0.1356
  779POPS   C1A12179   1.886  16.638   6.103 -0.1830 -0.0467  0.1704
  779POPS   D2A12180   1.804  16.647   6.487  0.1514 -0.2489 -0.2392
  779POPS   C3A12181   1.455  16.651   6.828  0.0953 -0.1490  0.2672
  779POPS   C4A12182   1.364  16.431   7.220 -0.0117  0.1131  0.2705
  779POPS   C1B12183   2.259  17.083   6.270  0.1739 -0.1630  0.0665
  779POPS   C2B12184   1.972  17.288   6.613 -0.0051  0.2288  0.2166
  779POPS   C3B12185   1.731  17.143   6.850  0.0543  0.1185  0.3302
  779POPS   C4B12186   1.465  16.978   7.222 -0.3152 -0.1676  0.2656
  780POPS   CNO12187  19.405  17.475   4.249 -0.3064  0.0278  0.0228
  780POPS   PO412188  19.081  17.613   4.644  0.0249 -0.3222 -0.2903
  780POPS   GL112189  19.031  17.319   5.029  0.2668  0.0629  0.2634
  780POPS   GL212190  19.341  17.359   5.206  0.3127 -0.0597 -0.1136
  780POPS   C1A12191  18.815  17.401   5.357 -0.1008  0.0358  0.0113
  780POPS   D2A12192  18.479  17.179   5.571 -0.0979  0.3021 -0.6873
  780POPS   C3A12193  17.976  17.300   5.685 -0.0983  0.1120  0.0486
  780POPS   C4A12194  17.927  17.703   5.509 -0.3012  0.0095  0.4367
  780POPS   C1B12195  19.250  17.441   5.589 -0.4327  0.0991  0.3176
  780POPS   C2B12196  19.295  17.513   6.109 -0.3285  0.4409 -0.0274
  780POPS   C3B12197  19.642  17.396   6.473  0.1325  0.1436  0.3026
  780POPS   C4B12198  19.480  17.221   6.907  0.1866  0.4746  0.3000
  781POPS   CNO12199   4.574   8.865   4.921  0.1958 -0.0657  0.0588
  781POPS   PO412200   4.883   8.860   5.185  0.1722  0.3254  0.1049
  781POPS   GL112201   5.003   8.787   5.552  0.4077  0.0704  0.3088
  781POPS   GL212202   4.792   8.959   5.766  0.1948  0.2565  0.1983
  781POPS   C1A12203   5.200   8.821   5.938 -0.3401 -0.1803  0.0593
  781POPS   D2A12204   5.331   8.769   6.305 -0.2838 -0.3935 -0.0364
  781POPS   C3A12205   5.701   8.827   6.565  0.0477 -0.0197  0.0937
  781POPS   C4A12206   6.076   8.594   6.633  0.3334  0.1941  0.0084
  781POPS   C1B12207   4.721   8.630   6.227  0.0237 -0.3410  0.0585
  781POPS   C2B12208   4.418   8.556   6.507 -0.2981  0.4545  0.0622
  781POPS   C3B12209   4.642   8.430   6.919  0.0134 -0.0953  0.0716
  781POPS   C4B12210   4.990   8.607   7.110  0.1175 -0.2636 -0.0989
  782POPS   CNO12211   3.102   2.834   5.228 -0.0257  0.2102  0.1549
  782POPS   PO412212   2.908   3.106   4.971  0.1171 -0.1648 -0.1025
  782POPS   GL112213   2.828   3.274   5.330 -0.2146 -0.0714 -0.0315
  782POPS   GL212214   2.710   3.043   5.512  0.3136 -0.1014 -0.3385
  782POPS   C1A12215   2.626   3.537   5.543  0.0997  0.0470  0.2030
  782POPS   D2A12216   2.334   3.838   5.878  0.0132 -0.0022  0.0127
  782POPS   C3A12217   2.286   4.208   5.999 -0.1216 -0.1815 -0.0141
  782POPS   C4A12218   2.304   4.409   6.323  0.0987  0.1287 -0.0908
  782POPS   C1B12219   2.954   3.271   5.791  0.0648  0.0223  0.1700
  782POPS   C2B12220   2.986   3.310   6.110  0.3191 -0.0798  0.0185
  782POPS   C3B12221   3.298   3.333   6.453 -0.0611 -0.1363  0.0970
  782POPS   C4B12222   3.783   3.130   6.579  0.3362 -0.0495  0.1452
  783POPS   CNO12223  11.020   3.040   4.732 -0.1518  0.1300  0.0779
  783POPS   PO412224  10.843   2.840   5.078 -0.1461 -0.0131  0.0145
  783POPS   GL112225  10.822   2.693   5.482  0.2098  0.5556  0.0438
  783POPS   GL212226  10.573   2.441   5.433 -0.1528 -0.2077  0.0761
  783POPS   C1A12227  10.685   2.770   5.844 -0.3117 -0.2992 -0.1229
  783POPS   D2A12228  10.823   2.871   6.182  0.1190  0.1068  0.1794
  783POPS   C3A12229  10.545   2.922   6.493 -0.1198 -0.2748  0.1214
  783POPS   C4A12230  10.478   3.330   6.776 -0.1540 -0.2770 -0.1373
  783POPS   C1B12231  10.403   2.174   5.665  0.3892  0.0683 -0.1577
  783POPS   C2B12232  10.340   1.791   5.728 -0.1517  0.1468  0.1586
  783POPS   C3B12233  10.359   1.599   6.139 -0.1877 -0.0220 -0.0260
  783POPS   C4B12234  10.275   1.592   6.655 -0.1196  0.2073  0.0620
  784POPS   CNO12235  12.020   7.167   4.660 -0.4188 -0.1082  0.0207
  784POPS   PO412236  12.473   7.171   5.048 -0.1215  0.3503  0.2053
  784POPS   GL112237  12.238   7.150   5.524  0.0478 -0.1648 -0.2268
  784POPS   GL212238  12.390   6.904   5.559 -0.0404 -0.0012  0.0502
  784POPS   C1A12239  12.058   7.184   6.005 -0.0916 -0.0807 -0.0278
  784POPS   D2A12240  11.886   7.325   6.401 -0.3641 -0.0057  0.2298
  784POPS   C3A12241  12.100   7.250   6.848 -0.4515  0.1316  0.0089
  784POPS   C4A12242  12.362   7.025   6.964 -0.0795 -0.1153  0.2130
  784POPS   C1B12243  12.484   6.568   5.966  0.1093  0.1802  0.0252
  784POPS   C2B12244  12.662   6.176   6.164 -0.1180  0.1006  0.4279
  784POPS   C3B12245  12.776   6.167   6.545 -0.0299  0.3102 -0.0142
  784POPS   C4B12246  13.123   6.085   6.818  0.0990  0.1054  0.0345
  785POPS   CNO12247  17.456  11.268   5.420 -0.1863 -0.4061 -0.0672
  785POPS   PO412248  17.605  11.698   5.465 -0.0304 -0.0705 -0.1133
  785POPS   GL112249  17.852  11.984   5.744 -0.2099  0.0422  0.0632
  785POPS   GL212250  18.052  12.268   5.551  0.0959  0.1537 -0.1118
  785POPS   C1A12251  18.161  12.122   6.121  0.0758  0.2516  0.3104
  785POPS   D2A12252  18.289  12.204   6.618  0.2794  0.0850 -0.1818
  785POPS   C3A12253  18.253  12.062   7.051 -0.0511 -0.0779 -0.0459
  785POPS   C4A12254  18.300  12.003   7.497 -0.2690 -0.1124  0.6005
  785POPS   C1B12255  18.367  12.028   5.644 -0.1195  0.1853 -0.1466
  785POPS   C2B12256  18.561  11.883   5.967  0.1070  0.3588 -0.1078
  785POPS   C3B12257  18.668  11.843   6.397 -0.0046  0.0401 -0.2842
  785POPS   C4B12258  18.672  11.560   6.777 -0.2121 -0.1061  0.1309
  786POPS   CNO12259   1.440   0.938   4.307  0.3782  0.2051  0.0206
  786POPS   PO412260   1.239   0.824   4.742  0.2001  0.0637 -0.0211
  786POPS   GL112261   1.206   0.754   5.197 -0.3595  0.3077  0.2935
  786POPS   GL212262   1.457   0.590   5.408  0.1074  0.2407  0.1674
  786POPS   C1A12263   1.005   0.878   5.521  0.2381 -0.1906  0.1767
  786POPS   D2A12264   0.517   0.827   5.576 -0.0599 -0.1708 -0.1175
  786POPS   C3A12265   0.268   0.546   5.815 -0.0709  0.1326 -0.0978
  786POPS   C4A12266  -0.038   0.656   6.023  0.3006  0.0178  0.1701
  786POPS   C1B12267   1.591   0.457   5.783  0.2459  0.0924 -0.3763
  786POPS   C2B12268   1.644   0.200   6.170  0.0848  0.0177  0.0400
  786POPS   C3B12269   1.735  -0.173   6.240  0.0018  0.0370 -0.5207
  786POPS   C4B12270   1.897  -0.547   6.115  0.0447 -0.2422 -0.3334
  787POPS   CNO12271   1.781   6.323   4.865 -0.0265  0.1867 -0.0418
  787POPS   PO412272   1.283   6.352   5.007 -0.0888 -0.1708  0.0111
  787POPS   GL112273   1.220   6.265   5.522 -0.2736  0.1091  0.1838
  787POPS   GL212274   0.937   6.204   5.550 -0.3801  0.2065 -0.0398
  787POPS   C1A12275   1.275   6.325   5.964 -0.2339  0.2500 -0.0004
  787POPS   D2A12276   1.224   6.222   6.390  0.0773 -0.0145 -0.1860
  787POPS   C3A12277   1.102   6.419   6.704 -0.2633 -0.0704  0.3833
  787POPS   C4A12278   1.132   6.653   7.132 -0.3514 -0.0226 -0.0042
  787POPS   C1B12279   0.710   6.318   5.978  0.1941  0.2024  0.0914
  787POPS   C2B12280   0.772   6.003   6.344 -0.0308  0.1357  0.3459
  787POPS   C3B12281   1.043   5.721   6.556  0.1562 -0.1761 -0.0614
  787POPS   C4B12282   1.416   5.659   6.328 -0.0798  0.0990 -0.0985
  788POPS   CNO12283   0.012   3.584   5.312  0.2275 -0.0481  0.2444
  788POPS   PO412284   0.113   3.948   5.230 -0.0492 -0.0698  0.1532
  788POPS   GL112285  -0.123   3.976   5.632  0.2335 -0.0386  0.0525
  788POPS   GL212286  -0.202   4.194   5.809 -0.0904  0.0676  0.1109
  788POPS   C1A12287  -0.049   3.680   5.954 -0.0900  0.1439 -0.0407
  788POPS   D2A12288  -0.225   3.564   6.394  0.1430 -0.1079 -0.0955
  788POPS   C3A12289  -0.201   3.540   6.882 -0.1462 -0.2002  0.0835
  788POPS   C4A12290  -0.364   3.764   7.163 -0.4931 -0.0395  0.1424
  788POPS   C1B12291  -0.217   4.517   6.169  0.1188 -0.4056  0.4495
  788POPS   C2B12292  -0.538   4.746   6.426 -0.0129  0.0610  0.0472
  788POPS   C3B12293  -0.905   4.908   6.624 -0.0204  0.1076 -0.1414
  788POPS   C4B12294  -1.144   5.253   6.782  0.0690  0.1182 -0.1506
  789POPS   CNO12295  13.936   2.978   4.896 -0.1594 -0.2120 -0.3057
  789POPS   PO412296  13.788   3.347   4.889 -0.2808 -0.0192 -0.1396
  789POPS   GL112297  13.560   3.077   5.275 -0.2963 -0.3796  0.0651
  789POPS   GL212298  13.205   3.333   5.351  0.2065 -0.3315 -0.0776
  789POPS   C1A12299  13.589   2.921   5.652  0.6000 -0.2132  0.0383
  789POPS   D2A12300  13.750   2.779   6.149  0.2939 -0.0393  0.1902
  789POPS   C3A12301  13.591   3.004   6.525  0.1266 -0.2264 -0.2307
  789POPS   C4A12302  13.230   3.108   6.584 -0.2070  0.2608  0.0605
  789POPS   C1B12303  13.580   3.536   5.673  0.2327 -0.1115 -0.0355
  789POPS   C2B12304  13.880   3.805   5.871  0.1567 -0.1258 -0.2189
  789POPS   C3B12305  14.077   3.913   6.331  0.0705  0.1068  0.0630
  789POPS   C4B12306  14.273   3.945   6.760  0.3101  0.0530 -0.0225
  790POPS   CNO12307   4.626   3.966   4.915 -0.0749 -0.1080 -0.1172
  790POPS   PO412308   4.461   3.436   4.768 -0.0957 -0.1316  0.0278
  790POPS   GL112309   4.560   3.601   5.251 -0.3059 -0.1785  0.0221
  790POPS   GL212310   4.843   3.565   5.346 -0.2481 -0.1164 -0.1183
  790POPS   C1A12311   4.317   3.720   5.555  0.2093 -0.2745 -0.1639
  790POPS   D2A12312   4.188   4.118   5.783 -0.1238  0.0774 -0.0328
  790POPS   C3A12313   3.721   4.343   5.775  0.1370 -0.1675  0.1007
  790POPS   C4A12314   3.648   4.520   6.092 -0.0011 -0.1774  0.0765
  790POPS   C1B12315   5.066   3.489   5.739 -0.2203  0.0761 -0.1191
  790POPS   C2B12316   5.143   3.027   5.938  0.0200  0.0011 -0.2219
  790POPS   C3B12317   5.098   2.736   6.203 -0.3273 -0.0601 -0.1129
  790POPS   C4B12318   4.900   2.528   6.501  0.2512  0.2083 -0.0552
  791POPS   CNO12319   0.434   3.358   4.979 -0.1406 -0.1683 -0.2074
  791POPS   PO412320   0.872   3.207   5.045 -0.1234 -0.0993 -0.3510
  791POPS   GL112321   0.652   3.014   5.391 -0.0870  0.1003 -0.1575
  791POPS   GL212322   0.336   2.974   5.424  0.1361 -0.1100  0.0315
  791POPS   C1A12323   0.782   2.954   5.739 -0.0310  0.3192 -0.0642
  791POPS   D2A12324   0.993   2.585   5.755 -0.0682 -0.0477  0.0169
  791POPS   C3A12325   0.705   2.352   5.982  0.0578 -0.0877  0.1418
  791POPS   C4A12326   0.289   2.163   6.017 -0.0872  0.1492 -0.1667
  791POPS   C1B12327   0.108   3.101   5.843  0.3105 -0.0898 -0.1285
  791POPS   C2B12328   0.132   3.311   6.244 -0.3188  0.1794  0.4553
  791POPS   C3B12329   0.214   3.451   6.634 -0.1781 -0.2225 -0.0995
  791POPS   C4B12330   0.252   3.491   7.121  0.0404 -0.0317 -0.1931
  792POPS   CNO12331  13.109   1.901   5.142  0.0220 -0.1581 -0.1359
  792POPS   PO412332  13.191   2.293   4.951 -0.1478 -0.3365 -0.0046
  792POPS   GL112333  13.211   2.421   5.305  0.0237  0.1755 -0.0053
  792POPS   GL212334  13.412   2.371   5.531 -0.0960  0.2256 -0.0353
  792POPS   C1A12335  13.015   2.778   5.574 -0.0717  0.0116 -0.3339
  792POPS   D2A12336  12.993   2.726   5.971 -0.0012  0.4313  0.0185
  792POPS   C3A12337  13.183   2.905   6.071  0.0491 -0.0710 -0.1764
  792POPS   C4A12338  13.490   3.255   6.095 -0.2292  0.1440  0.1052
  792POPS   C1B12339  13.326   2.273   6.007 -0.0561  0.1561 -0.1923
  792POPS   C2B12340  13.404   2.113   6.406 -0.0581  0.0294 -0.1199
  792POPS   C3B12341  13.677   1.920   6.728  0.3224  0.0461 -0.2457
  792POPS   C4B12342  13.747   1.529   6.993  0.0635 -0.2300  0.2044
  793POPS   CNO12343  18.676   7.018   4.691  0.1165 -0.3474 -0.0374
  793POPS   PO412344  18.673   7.047   5.165 -0.1423 -0.1173  0.0200
  793POPS   GL112345  18.877   6.759   5.431  0.0651  0.4379 -0.1586
  793POPS   GL212346  19.156   6.879   5.461  0.0683 -0.2031  0.3761
  793POPS   C1A12347  18.927   6.515   5.767 -0.1673 -0.1032 -0.1934
  793POPS   D2A12348  18.524   6.529   6.053 -0.1696 -0.1394 -0.1504
  793POPS   C3A12349  18.548   6.547   6.493 -0.1355 -0.0394  0.2444
  793POPS   C4A12350  18.611   6.375   6.967 -0.0057  0.0078 -0.2585
  793POPS   C1B12351  19.476   6.691   5.664  0.0034  0.0866  0.0028
  793POPS   C2B12352  19.500   6.467   6.097 -0.0632 -0.0658 -0.3417
  793POPS   C3B12353  19.493   6.312   6.556 -0.2871  0.1249 -0.0587
  793POPS   C4B12354  19.447   5.888   6.742  0.0255  0.2291  0.0989
  794POPS   CNO12355   3.982  14.026   5.276 -0.0332 -0.0617  0.3309
  794POPS   PO412356   3.894  13.678   5.226  0.3460  0.0843  0.0241
  794POPS   GL112357   4.082  13.413   5.506 -0.2506  0.1361 -0.0045
  794POPS   GL212358   4.053  13.091   5.679 -0.2157 -0.0646  0.0870
  794POPS   C1A12359   4.230  13.465   5.961 -0.1406 -0.0425 -0.1110
  794POPS   D2A12360   4.299  13.462   6.370 -0.3028  0.4390  0.2240
  794POPS   C3A12361   4.384  13.829   6.668  0.3337  0.0415  0.2140
  794POPS   C4A12362   4.626  14.120   6.501 -0.0280  0.3587  0.1737
  794POPS   C1B12363   3.896  12.975   5.906 -0.0121  0.1582 -0.1914
  794POPS   C2B12364   4.081  12.968   6.234  0.3923  0.2036 -0.0709
  794POPS   C3B12365   4.292  12.856   6.605 -0.2908  0.1813 -0.0734
  794POPS   C4B12366   4.522  13.089   6.924  0.4498  0.3284  0.0183
  795POPS   CNO12367   6.709  12.105   5.499  0.1078 -0.1443 -0.3779
  795POPS   PO412368   6.762  12.308   5.033 -0.0521 -0.0820  0.2073
  795POPS   GL112369   6.854  12.614   5.394  0.0548  0.1258  0.0509
  795POPS   GL212370   7.247  12.695   5.412 -0.0762 -0.0561 -0.0151
  795POPS   C1A12371   6.551  12.911   5.518 -0.0289  0.1076  0.2627
  795POPS   D2A12372   6.261  13.175   5.752 -0.2139  0.2241 -0.1167
  795POPS   C3A12373   6.249  13.458   5.626 -0.0394 -0.1615  0.2585
  795POPS   C4A12374   6.210  13.933   5.581 -0.1200 -0.1876 -0.1107
  795POPS   C1B12375   7.369  12.816   5.803  0.1414 -0.2996  0.2387
  795POPS   C2B12376   7.428  13.079   6.150  0.2953 -0.1305 -0.0066
  795POPS   C3B12377   7.264  13.215   6.557  0.1298  0.4644 -0.1577
  795POPS   C4B12378   7.149  13.444   7.024 -0.4151  0.0906  0.2772
  796POPS   CNO12379  11.044   4.794   4.968 -0.1337  0.0436 -0.0996
  796POPS   PO412380  10.796   4.779   5.302  0.2126  0.1465 -0.1196
  796POPS   GL112381  10.890   4.674   5.715 -0.2419 -0.0722  0.0963
  796POPS   GL212382  11.173   4.847   5.904 -0.1294  0.1510  0.0639
  796POPS   C1A12383  11.028   4.437   6.105  0.1683  0.1862  0.0452
  796POPS   D2A12384  10.978   4.067   6.269  0.0347  0.1162 -0.3275
  796POPS   C3A12385  10.904   3.863   6.569 -0.0373 -0.0289 -0.1586
  796POPS   C4A12386  10.987   3.692   6.894 -0.1073 -0.1364  0.0603
  796POPS   C1B12387  11.425   4.765   6.186 -0.3486 -0.0156 -0.0291
  796POPS   C2B12388  11.526   4.930   6.534  0.1149  0.2991 -0.0022
  796POPS   C3B12389  11.331   5.206   6.858  0.0179 -0.1960 -0.0607
  796POPS   C4B12390  10.957   5.080   7.008 -0.2579 -0.0398  0.0370
  797POPS   CNO12391  14.742  18.310   4.469  0.1148  0.0308 -0.1830
  797POPS   PO412392  14.504  18.557   4.773  0.2535 -0.1318 -0.0061
  797POPS   GL112393  14.389  18.709   5.115  0.0527  0.0880  0.2824
  797POPS   GL212394  14.643  18.734   5.309 -0.0615 -0.2744 -0.1565
  797POPS   C1A12395  14.021  18.949   5.349  0.0429 -0.2591  0.0271
  797POPS   D2A12396  13.792  19.310   5.494 -0.1865 -0.1535 -0.0580
  797POPS   C3A12397  13.930  19.742   5.326 -0.0063  0.0956 -0.1536
  797POPS   C4A12398  13.935  20.078   5.636 -0.4179 -0.1024 -0.4349
  797POPS   C1B12399  14.663  18.879   5.719  0.3375 -0.1101 -0.0464
  797POPS   C2B12400  14.640  19.048   6.179  0.0279  0.0532  0.1309
  797POPS   C3B12401  14.532  19.165   6.697 -0.0078  0.1466 -0.1482
  797POPS   C4B12402  14.677  19.089   7.096  0.1356  0.0434 -0.0036
  798POPS   CNO12403  11.659  14.481   5.481 -0.0391  0.1175  0.0325
  798POPS   PO412404  11.224  14.598   5.256  0.1928  0.1452 -0.1416
  798POPS   GL112405  11.302  14.870   5.645 -0.0737 -0.1109 -0.0957
  798POPS   GL212406  11.033  15.089   5.724 -0.0506 -0.2141 -0.1655
  798POPS   C1A12407  11.466  14.947   6.035  0.0196 -0.1492  0.0764
  798POPS   D2A12408  11.583  15.078   6.457 -0.0209  0.0135  0.1187
  798POPS   C3A12409  11.707  15.027   6.951 -0.2039  0.3260 -0.2054
  798POPS   C4A12410  11.749  14.828   7.316 -0.0751  0.1051 -0.0272
  798POPS   C1B12411  11.230  15.385   6.045  0.2378  0.0578  0.0817
  798POPS   C2B12412  11.251  15.402   6.447  0.0929  0.0532 -0.1455
  798POPS   C3B12413  11.243  15.300   6.851  0.0515  0.3471  0.0900
  798POPS   C4B12414  10.894  15.520   6.915 -0.2362  0.0936  0.1115
  799POPS   CNO12415   5.614  16.621   4.449 -0.0043  0.1163 -0.3604
  799POPS   PO412416   5.982  16.466   4.517  0.0323 -0.1059  0.3312
  799POPS   GL112417   5.828  16.518   4.895  0.0593 -0.1342  0.0485
  799POPS   GL212418   5.895  16.451   5.216  0.2550 -0.0306 -0.1121
  799POPS   C1A12419   5.520  16.765   5.146 -0.0813 -0.0911 -0.0968
  799POPS   D2A12420   5.509  17.083   5.228  0.2536  0.1921 -0.2401
  799POPS   C3A12421   5.048  17.187   5.107  0.0864  0.0851 -0.1931
  799POPS   C4A12422   4.791  17.448   5.056  0.1258  0.0311 -0.1183
  799POPS   C1B12423   5.873  16.249   5.770  0.0837  0.0840 -0.1122
  799POPS   C2B12424   5.618  16.235   6.151  0.1809  0.0101 -0.3506
  799POPS   C3B12425   5.621  16.311   6.597 -0.0553 -0.0294  0.0846
  799POPS   C4B12426   5.503  16.727   6.931 -0.2789 -0.1520  0.0784
  800POPS   CNO12427  17.060  19.237   4.684  0.0603 -0.1046  0.1879
  800POPS   PO412428  17.106  19.606   4.956 -0.0732 -0.0494  0.0006
  800POPS   GL112429  17.412  19.729   5.267  0.5371 -0.3757  0.1095
  800POPS   GL212430  17.472  20.041   5.289  0.2113 -0.0414  0.0791
  800POPS   C1A12431  17.416  19.520   5.637 -0.1972  0.0744 -0.1687
  800POPS   D2A12432  17.348  19.351   5.990 -0.2216  0.2502  0.0102
  800POPS   C3A12433  17.321  19.679   6.120  0.2376 -0.1660 -0.1332
  800POPS   C4A12434  17.474  20.055   6.195  0.0137 -0.0548 -0.0268
  800POPS   C1B12435  17.614  19.974   5.694  0.1535 -0.2957  0.0154
  800POPS   C2B12436  17.971  20.084   6.030 -0.2403  0.0445  0.1966
  800POPS   C3B12437  18.245  20.347   6.306  0.1446 -0.0439  0.3716
  800POPS   C4B12438  18.278  20.442   6.730  0.2872  0.1639  0.0373
  801POPS   CNO12439   1.749  14.436   5.217 -0.3214 -0.2912  0.0517
  801POPS   PO412440   2.176  14.240   5.346  0.1238  0.2680 -0.0848
  801POPS   GL112441   2.409  14.419   5.690  0.2967 -0.5458 -0.1397
  801POPS   GL212442   2.708  14.428   5.570 -0.0579  0.0727  0.0414
  801POPS   C1A12443   2.546  14.230   6.080  0.1413  0.1333 -0.0114
  801POPS   D2A12444   2.494  14.040   6.466  0.0636  0.3097  0.0480
  801POPS   C3A12445   2.615  14.380   6.650  0.0688 -0.2550  0.0388
  801POPS   C4A12446   2.761  14.761   6.890  0.2205 -0.0680  0.1879
  801POPS   C1B12447   3.166  14.713   5.657  0.2523 -0.2508  0.1901
  801POPS   C2B12448   3.290  14.881   6.049 -0.1477  0.0902  0.0689
  801POPS   C3B12449   3.373  14.933   6.428 -0.0975  0.1008 -0.1009
  801POPS   C4B12450   3.318  14.974   6.927  0.2973  0.3436 -0.0532
  802POPS   CNO12451   0.660  15.302   4.846  0.0148 -0.0366 -0.0245
  802POPS   PO412452   0.906  15.348   5.277 -0.0901 -0.2586  0.0735
  802POPS   GL112453   1.145  15.385   5.681 -0.1968 -0.1018  0.0349
  802POPS   GL212454   1.468  15.250   5.616 -0.0813 -0.1219 -0.2664
  802POPS   C1A12455   1.370  15.608   6.038  0.0604  0.1186  0.3085
  802POPS   D2A12456   1.425  15.395   6.448 -0.1800  0.0871  0.2731
  802POPS   C3A12457   1.275  15.694   6.698  0.2255  0.0022 -0.3105
  802POPS   C4A12458   1.056  15.638   6.940  0.2779  0.0792  0.3251
  802POPS   C1B12459   1.673  15.197   5.934  0.3783  0.0155  0.1337
  802POPS   C2B12460   1.856  15.165   6.411 -0.4250 -0.0480 -0.0809
  802POPS   C3B12461   1.974  15.086   6.765 -0.0138  0.0840 -0.2963
  802POPS   C4B12462   2.291  15.030   6.959  0.0308 -0.1232  0.1440
  803POPS   CNO12463   2.001  19.435   4.637  0.0546 -0.1090  0.1407
  803POPS   PO412464   2.036  19.348   5.039  0.1467 -0.0335 -0.2020
  803POPS   GL112465   1.961  19.378   5.438  0.0864 -0.2185  0.4442
  803POPS   GL212466   1.864  19.676   5.531  0.1852  0.3241  0.0794
  803POPS   C1A12467   2.210  19.373   5.901 -0.2020  0.3139  0.1350
  803POPS   D2A12468   2.248  19.507   6.367  0.1802  0.1561  0.1208
  803POPS   C3A12469   1.961  19.731   6.613  0.0149  0.0017 -0.1012
  803POPS   C4A12470   1.761  19.470   6.893  0.1116  0.1360 -0.2821
  803POPS   C1B12471   2.030  19.897   5.812 -0.1303 -0.0416  0.1233
  803POPS   C2B12472   2.137  20.012   6.171  0.0984  0.3247 -0.2641
  803POPS   C3B12473   2.092  20.319   6.414 -0.0067 -0.0977 -0.1013
  803POPS   C4B12474   2.043  20.467   6.799 -0.1184  0.0818  0.3387
  804POPS   CNO12475  17.513   3.197   4.973 -0.1628  0.1419 -0.0603
  804POPS   PO412476  17.213   3.583   4.909 -0.2084 -0.1405 -0.1283
  804POPS   GL112477  16.938   3.659   5.299 -0.0750  0.1846  0.2612
  804POPS   GL212478  16.733   3.634   5.244  0.1921  0.0589 -0.1093
  804POPS   C1A12479  17.068   3.803   5.694  0.3023 -0.0204 -0.0816
  804POPS   D2A12480  17.306   3.819   6.032 -0.1211  0.1159 -0.1851
  804POPS   C3A12481  17.106   3.771   6.500 -0.2113  0.3067  0.0043
  804POPS   C4A12482  16.744   3.844   6.623  0.3401 -0.0099 -0.0897
  804POPS   C1B12483  16.581   3.889   5.735  0.0670  0.1782  0.1067
  804POPS   C2B12484  16.715   3.869   6.074  0.0626 -0.3611 -0.2642
  804POPS   C3B12485  16.600   4.267   6.362  0.1226 -0.1547  0.0505
  804POPS   C4B12486  16.351   4.664   6.403 -0.0021 -0.1071  0.0298
  805POPS   CNO12487   2.788  12.732   4.958 -0.0589 -0.0427 -0.1116
  805POPS   PO412488   2.650  12.834   5.312 -0.2565  0.3105  0.1855
  805POPS   GL112489   2.673  12.672   5.740 -0.3225  0.0367 -0.0305
  805POPS   GL212490   2.808  12.789   6.019 -0.0490 -0.0446 -0.0778
  805POPS   C1A12491   2.333  12.828   6.059  0.2166  0.2763 -0.1883
  805POPS   D2A12492   2.032  13.044   6.374  0.2921  0.4620 -0.2125
  805POPS   C3A12493   2.028  13.309   6.734 -0.0967 -0.1273 -0.0413
  805POPS   C4A12494   2.120  13.691   6.810  0.2488 -0.0404  0.0508
  805POPS   C1B12495   2.976  12.761   6.504 -0.3408  0.2134  0.1461
  805POPS   C2B12496   3.237  12.871   6.826  0.3566 -0.0445  0.1399
  805POPS   C3B12497   3.397  13.063   7.109 -0.2068  0.1763 -0.0380
  805POPS   C4B12498   3.769  13.273   7.198 -0.0385 -0.0383  0.1074
  806POPS   CNO12499   7.509  13.125   5.404 -0.1599  0.3340 -0.0682
  806POPS   PO412500   7.490  13.615   5.361 -0.0245  0.0744 -0.2295
  806POPS   GL112501   7.510  13.646   5.835 -0.0159  0.2564  0.1258
  806POPS   GL212502   7.703  13.929   5.873  0.0996  0.3141 -0.0219
  806POPS   C1A12503   7.570  13.659   6.247  0.0222 -0.0209 -0.0435
  806POPS   D2A12504   7.748  13.501   6.550 -0.2060  0.0482  0.0610
  806POPS   C3A12505   8.002  13.830   6.791 -0.1085  0.1252  0.1416
  806POPS   C4A12506   7.945  14.091   7.102  0.2529 -0.1359 -0.0653
  806POPS   C1B12507   7.522  14.136   6.141 -0.3564  0.2124 -0.1832
  806POPS   C2B12508   7.567  14.209   6.646  0.2677 -0.1428  0.1109
  806POPS   C3B12509   7.425  14.320   7.013  0.4676 -0.1050  0.3697
  806POPS   C4B12510   7.211  14.645   7.345  0.0033 -0.3244 -0.2485
  807POPS   CNO12511  13.008  17.147   5.055 -0.0028  0.0948  0.2548
  807POPS   PO412512  13.531  17.234   5.009 -0.2064  0.0529  0.1939
  807POPS   GL112513  13.293  17.208   5.447  0.5685 -0.1494  0.0751
  807POPS   GL212514  13.009  17.414   5.491  0.0357  0.1543  0.0732
  807POPS   C1A12515  13.419  17.278   5.856  0.0005  0.0795  0.0778
  807POPS   D2A12516  13.447  17.406   6.297 -0.0240  0.4519 -0.3233
  807POPS   C3A12517  13.622  17.463   6.718 -0.2220 -0.1092  0.0919
  807POPS   C4A12518  13.872  17.420   7.064  0.1082 -0.0929 -0.2135
  807POPS   C1B12519  13.058  17.565   5.914  0.1339 -0.2083  0.2087
  807POPS   C2B12520  13.061  17.680   6.267 -0.1306 -0.2109  0.0098
  807POPS   C3B12521  13.211  17.752   6.753 -0.0712  0.0689 -0.0080
  807POPS   C4B12522  13.325  17.449   7.074 -0.0064  0.0312  0.1582
  808POPS   CNO12523  18.176  13.039   5.090 -0.0769 -0.1720 -0.1986
  808POPS   PO412524  17.998  12.497   5.098 -0.0663  0.0895 -0.0527
  808POPS   GL112525  18.432  12.421   5.315  0.1244 -0.1556  0.0059
  808POPS   GL212526  18.403  12.745   5.470  0.0624  0.3211  0.0022
  808POPS   C1A12527  18.514  12.429   5.821  0.0541  0.0326 -0.0826
  808POPS   D2A12528  18.587  12.388   6.220  0.2796 -0.0603  0.0860
  808POPS   C3A12529  18.697  12.596   6.567  0.0565 -0.2013  0.2352
  808POPS   C4A12530  19.047  12.728   6.604  0.2849  0.0406 -0.1314
  808POPS   C1B12531  18.804  12.753   5.624 -0.2599  0.2861 -0.3208
  808POPS   C2B12532  19.043  12.985   5.795 -0.2934  0.1760 -0.0123
  808POPS   C3B12533  19.463  13.098   5.735  0.0788 -0.0911 -0.2412
  808POPS   C4B12534  19.820  12.799   5.825 -0.2332  0.0944 -0.2679
  809POPS   CNO12535   4.763   1.939   4.884 -0.1706 -0.1105 -0.0350
  809POPS   PO412536   5.000   1.756   5.234 -0.1539 -0.3461 -0.3211
  809POPS   GL112537   4.940   1.558   5.642 -0.0281 -0.1385  0.2447
  809POPS   GL212538   4.752   1.414   5.772 -0.0334 -0.0717 -0.1236
  809POPS   C1A12539   5.071   1.618   6.060 -0.0798 -0.1010  0.1653
  809POPS   D2A12540   5.244   1.754   6.395  0.1007 -0.0282 -0.2008
  809POPS   C3A12541   5.545   1.926   6.561  0.3687 -0.1402 -0.2854
  809POPS   C4A12542   5.922   2.036   6.628 -0.1264  0.0624 -0.0026
  809POPS   C1B12543   4.797   1.156   6.068 -0.0742 -0.0633 -0.2734
  809POPS   C2B12544   4.932   0.886   6.400  0.0196  0.0122  0.1091
  809POPS   C3B12545   4.894   0.948   6.784 -0.0066 -0.0536 -0.0198
  809POPS   C4B12546   5.208   1.046   7.117 -0.0768 -0.0291 -0.2318
  810POPS   CNO12547   6.810  17.303   4.367 -0.1144  0.0067 -0.3448
  810POPS   PO412548   6.611  17.402   4.684 -0.0087  0.2419  0.1860
  810POPS   GL112549   6.379  17.096   5.024 -0.0405  0.1652  0.4445
  810POPS   GL212550   6.658  17.082   5.203 -0.0885 -0.2369  0.0983
  810POPS   C1A12551   6.010  16.910   5.310  0.1869 -0.1863 -0.2590
  810POPS   D2A12552   5.696  16.695   5.607 -0.2391  0.1717 -0.3083
  810POPS   C3A12553   5.651  16.696   5.964 -0.0770  0.0582 -0.1951
  810POPS   C4A12554   5.599  16.730   6.371 -0.0107 -0.0310  0.1787
  810POPS   C1B12555   6.382  17.130   5.532  0.3219  0.2201  0.0135
  810POPS   C2B12556   6.135  17.060   5.896 -0.0303  0.0730  0.1248
  810POPS   C3B12557   5.894  17.083   6.144 -0.0869  0.3098 -0.3893
  810POPS   C4B12558   5.733  17.192   6.591 -0.1273  0.1492 -0.0162
  811POPS   CNO12559   8.866  12.979   5.101 -0.1190  0.1923 -0.2655
  811POPS   PO412560   8.769  12.568   5.269  0.4126 -0.3392  0.0946
  811POPS   GL112561   9.152  12.524   5.366  0.2584  0.0184 -0.2205
  811POPS   GL212562   9.304  12.867   5.499 -0.0820 -0.1958 -0.2647
  811POPS   C1A12563   9.236  12.493   5.863 -0.2745 -0.1319  0.0943
  811POPS   D2A12564   9.251  12.668   6.239 -0.3276  0.1178  0.4452
  811POPS   C3A12565   9.489  12.569   6.478  0.2357  0.0398  0.0461
  811POPS   C4A12566   9.476  12.332   6.808  0.0202  0.1154 -0.3314
  811POPS   C1B12567   9.647  12.519   5.604 -0.0770 -0.2090  0.3218
  811POPS   C2B12568   9.723  12.539   5.968 -0.2652 -0.1162 -0.1571
  811POPS   C3B12569   9.990  12.305   6.236  0.1037 -0.1797 -0.0261
  811POPS   C4B12570  10.226  11.905   6.299  0.2961 -0.2562  0.0408
  812POPS   CNO12571   7.470  14.626   5.149 -0.1563 -0.1111 -0.5396
  812POPS   PO412572   7.823  14.443   5.359 -0.0751  0.0043  0.0520
  812POPS   GL112573   7.937  14.594   5.770 -0.2841  0.4194 -0.0575
  812POPS   GL212574   7.831  14.371   5.932  0.2752  0.1531  0.2367
  812POPS   C1A12575   7.959  15.005   5.935  0.0978 -0.0497 -0.2017
  812POPS   D2A12576   7.682  15.134   6.126  0.2859  0.2660 -0.2054
  812POPS   C3A12577   7.395  15.225   6.546  0.0912 -0.3140 -0.2336
  812POPS   C4A12578   7.093  15.404   6.781 -0.2161  0.1991  0.0686
  812POPS   C1B12579   7.974  14.245   6.343  0.2203  0.1651  0.1653
  812POPS   C2B12580   8.098  14.408   6.687 -0.0615 -0.0948 -0.1829
  812POPS   C3B12581   8.260  14.829   6.817  0.0920 -0.0743 -0.1133
  812POPS   C4B12582   8.072  15.055   7.254  0.0831 -0.0498  0.0487
  813POPS   CNO12583   0.519   9.576   5.449  0.0160 -0.2460  0.1437
  813POPS   PO412584   0.836   9.731   5.765 -0.2757  0.0545 -0.4290
  813POPS   GL112585   0.945   9.486   6.125 -0.1163 -0.0652 -0.2078
  813POPS   GL212586   0.922   9.655   6.282 -0.1719 -0.0522  0.0123
  813POPS   C1A12587   1.360   9.371   6.482  0.0515 -0.0146  0.2171
  813POPS   D2A12588   1.707   9.455   6.743  0.3079 -0.3437  0.2400
  813POPS   C3A12589   1.610   9.230   7.155 -0.2121 -0.0873  0.1717
  813POPS   C4A12590   1.405   8.963   7.394 -0.0881 -0.0137  0.0505
  813POPS   C1B12591   0.906   9.524   6.709 -0.0776 -0.1463 -0.0425
  813POPS   C2B12592   0.718   9.649   7.099  0.0690 -0.2114 -0.0853
  813POPS   C3B12593   0.910   9.509   7.572  0.2177 -0.0346  0.0215
  813POPS   C4B12594   0.765   9.243   7.874 -0.1309  0.2890  0.0237
  814YOPS   CNO12595   4.551  12.792   5.053  0.1158 -0.0174 -0.0952
  814YOPS   PO412596   4.698  13.174   5.229  0.2777  0.2446 -0.3206
  814YOPS   GL112597   4.934  13.190   5.619 -0.0038  0.1367  0.0608
  814YOPS   GL212598   5.172  13.009   5.880  0.0689 -0.0147 -0.1000
  814YOPS   C1A12599   4.920  13.433   6.078 -0.1221 -0.1073 -0.0696
  814YOPS   D2A12600   4.808  13.588   6.492  0.0551  0.0625 -0.1642
  814YOPS   C3A12601   4.629  13.558   6.984  0.0937 -0.4199  0.3425
  814YOPS   C4A12602   4.133  13.659   7.069 -0.2766 -0.0843  0.1026
  814YOPS   C1B12603   5.306  13.105   6.269  0.0340 -0.3890 -0.0136
  814YOPS   C2B12604   5.507  13.286   6.542 -0.0263  0.0537  0.1831
  814YOPS   D3B12605   5.330  13.650   6.808 -0.2115 -0.2913 -0.1657
  814YOPS   C4B12606   5.616  13.923   7.136  0.1454 -0.3172  0.2779
  815YOPS   CNO12607  13.287   0.926   4.728 -0.2393 -0.2170  0.0990
  815YOPS   PO412608  13.463   0.654   5.041  0.1300 -0.1111  0.0661
  815YOPS   GL112609  13.476   0.595   5.507 -0.1723  0.0635  0.0025
  815YOPS   GL212610  13.589   0.979   5.637 -0.2805 -0.1282  0.0735
  815YOPS   C1A12611  13.466   0.601   5.967  0.0421 -0.3619  0.0968
  815YOPS   D2A12612  13.658   0.387   6.289 -0.1087 -0.0250 -0.1817
  815YOPS   C3A12613  13.697   0.099   6.600  0.3735 -0.4467  0.3911
  815YOPS   C4A12614  13.747  -0.344   6.576 -0.0025  0.2172  0.0285
  815YOPS   C1B12615  13.883   1.225   5.910 -0.2503 -0.1723 -0.3243
  815YOPS   C2B12616  14.179   1.310   6.267 -0.0945  0.2462  0.2050
  815YOPS   D3B12617  14.242   0.982   6.419 -0.1402 -0.2064 -0.2513
  815YOPS   C4B12618  14.030   0.804   6.140 -0.0492  0.2138 -0.0759
  816YOPS   CNO12619   4.615  11.245   4.966 -0.2051  0.0857 -0.1157
  816YOPS   PO412620   4.710  11.509   5.316 -0.2278 -0.3240  0.2170
  816YOPS   GL112621   4.780  11.620   5.721  0.1316 -0.0534 -0.2534
  816YOPS   GL212622   4.506  11.683   5.874 -0.0957 -0.0229  0.3702
  816YOPS   C1A12623   4.922  11.367   6.049 -0.2698 -0.1074  0.1499
  816YOPS   D2A12624   5.021  11.457   6.398  0.0150  0.0754  0.0434
  816YOPS   C3A12625   4.953  11.412   6.870 -0.0078 -0.1786 -0.0649
  816YOPS   C4A12626   5.023  11.831   7.043  0.0860  0.0036  0.0672
  816YOPS   C1B12627   4.467  11.730   6.224  0.2424  0.2964  0.2064
  816YOPS   C2B12628   4.667  11.722   6.580 -0.1960 -0.0817 -0.0585
  816YOPS   D3B12629   4.461  11.748   6.972 -0.0916  0.0096 -0.0855
  816YOPS   C4B12630   4.715  11.429   7.298 -0.4147 -0.1397 -0.3474
  817YOPS   CNO12631   3.125   6.671   5.193  0.0931  0.4176  0.1939
  817YOPS   PO412632   3.363   6.463   5.535 -0.0980  0.1200 -0.3444
  817YOPS   GL112633   3.303   6.702   5.932  0.0244 -0.0118  0.0976
  817YOPS   GL212634   3.350   6.957   6.051  0.0567  0.0252 -0.3577
  817YOPS   C1A12635   3.187   6.612   6.411  0.2374 -0.0286 -0.0345
  817YOPS   D2A12636   3.048   6.597   6.778  0.2041 -0.1413 -0.0432
  817YOPS   C3A12637   3.171   6.710   7.192 -0.1894 -0.1078 -0.2307
  817YOPS   C4A12638   2.814   6.853   7.447  0.0535  0.0437  0.1859
  817YOPS   C1B12639   3.588   6.984   6.375 -0.0686  0.0619 -0.0881
  817YOPS   C2B12640   3.881   7.220   6.681  0.0558  0.1788 -0.1237
  817YOPS   D3B12641   3.943   7.481   6.978  0.5830  0.0316 -0.0305
  817YOPS   C4B12642   4.422   7.551   6.938  0.0101 -0.0930  0.0239
  818YOPS   CNO12643  11.121  11.863   5.250  0.3016 -0.1419  0.0361
  818YOPS   PO412644  11.444  12.127   5.021 -0.2591  0.2322  0.0592
  818YOPS   GL112645  11.619  12.113   5.359 -0.1227 -0.2918  0.0731
  818YOPS   GL212646  11.338  12.114   5.582 -0.2337 -0.2257 -0.1864
  818YOPS   C1A12647  11.886  12.402   5.653  0.1562 -0.1178  0.3973
  818YOPS   D2A12648  12.008  12.778   5.836 -0.2002  0.4090  0.0710
  818YOPS   C3A12649  12.222  13.188   5.954 -0.0219  0.2862 -0.4770
  818YOPS   C4A12650  12.447  13.356   6.273 -0.0430  0.2813  0.3613
  818YOPS   C1B12651  11.331  12.001   6.043  0.2128 -0.1607  0.0321
  818YOPS   C2B12652  11.527  11.931   6.418  0.2525 -0.2127  0.0396
  818YOPS   D3B12653  11.456  11.924   6.912 -0.0846 -0.1600 -0.0291
  818YOPS   C4B12654  11.322  12.228   7.172  0.2553  0.0767 -0.1390
  819YOPS   CNO12655   9.937  17.459   4.952 -0.0504 -0.1089 -0.0035
  819YOPS   PO412656   9.604  17.454   5.140  0.0881 -0.2409  0.1056
  819YOPS   GL112657   9.678  17.738   5.413 -0.0733  0.1794  0.0066
  819YOPS   GL212658  10.033  18.011   5.443 -0.0473 -0.1794  0.0816
  819YOPS   C1A12659   9.701  17.949   5.753  0.3200 -0.3254 -0.1063
  819YOPS   D2A12660   9.872  18.014   6.235  0.1152  0.4676  0.0804
  819YOPS   C3A12661  10.002  18.190   6.577  0.3353 -0.0677  0.0741
  819YOPS   C4A12662   9.713  18.340   6.836 -0.0406  0.0215  0.1554
  819YOPS   C1B12663  10.184  18.110   5.863  0.0533 -0.1517 -0.0791
  819YOPS   C2B12664  10.364  18.284   6.198  0.1171  0.0947 -0.0988
  819YOPS   D3B12665  10.735  18.165   6.602  0.0907  0.0096  0.2234
  819YOPS   C4B12666  10.866  17.628   6.566  0.1564 -0.0155  0.3146
  820YOPS   CNO12667   3.779   2.978   5.167 -0.0766 -0.0698  0.2732
  820YOPS   PO412668   3.544   2.601   5.312 -0.1312  0.2651  0.0299
  820YOPS   GL112669   3.519   2.775   5.632 -0.1475 -0.0798 -0.0344
  820YOPS   GL212670   3.451   3.086   5.645 -0.1756  0.1966 -0.3529
  820YOPS   C1A12671   3.382   2.851   6.062 -0.2089 -0.0692  0.1535
  820YOPS   D2A12672   3.388   2.751   6.497  0.0633 -0.1330  0.2696
  820YOPS   C3A12673   3.073   2.945   6.621 -0.0314 -0.4175 -0.0419
  820YOPS   C4A12674   2.733   3.128   6.832 -0.1261  0.1502 -0.2561
  820YOPS   C1B12675   3.589   3.357   6.020  0.0556 -0.0865  0.0084
  820YOPS   C2B12676   3.916   3.449   6.183 -0.0474 -0.3498  0.0640
  820YOPS   D3B12677   4.187   3.615   6.051  0.0512  0.0087  0.1086
  820YOPS   C4B12678   4.519   3.540   6.379 -0.1173 -0.3550 -0.0317
  821YOPS   CNO12679  11.935  18.053   5.413  0.1499  0.2013 -0.0594
  821YOPS   PO412680  12.087  18.505   5.292  0.1758 -0.1326 -0.1652
  821YOPS   GL112681  12.044  18.561   5.671  0.2367  0.0048 -0.1076
  821YOPS   GL212682  12.035  18.936   5.699 -0.2813  0.0267 -0.2074
  821YOPS   C1A12683  11.942  18.713   6.081 -0.1753  0.1014  0.0125
  821YOPS   D2A12684  11.649  18.781   6.268 -0.1779 -0.2542 -0.3229
  821YOPS   C3A12685  11.220  18.973   6.391  0.0563 -0.0001  0.0505
  821YOPS   C4A12686  11.199  19.426   6.603  0.2632  0.2738 -0.3637
  821YOPS   C1B12687  12.164  19.193   6.090  0.1576  0.0617  0.2370
  821YOPS   C2B12688  12.218  19.130   6.474  0.1437 -0.4756  0.0438
  821YOPS   D3B12689  12.493  18.896   6.789  0.0022  0.1633  0.1929
  821YOPS   C4B12690  12.742  18.812   7.290  0.0834 -0.0720 -0.4390
  822YOPS   CNO12691  18.462   6.195   5.129 -0.0550 -0.1379 -0.1730
  822YOPS   PO412692  18.174   6.084   5.474 -0.0055  0.0621  0.2254
  822YOPS   GL112693  18.185   6.167   5.860 -0.3740 -0.3230 -0.3461
  822YOPS   GL212694  18.500   6.030   6.018 -0.0527  0.0378 -0.0100
  822YOPS   C1A12695  18.074   6.510   6.134  0.0262 -0.1274  0.0873
  822YOPS   D2A12696  17.639   6.693   6.151  0.2776  0.0126  0.1948
  822YOPS   C3A12697  17.249   6.998   6.246 -0.2376  0.2181 -0.1214
  822YOPS   C4A12698  16.998   7.197   6.023 -0.0141 -0.0593  0.1007
  822YOPS   C1B12699  18.562   5.955   6.361 -0.1230 -0.1257 -0.1140
  822YOPS   C2B12700  18.534   5.794   6.804  0.2288  0.2102  0.3286
  822YOPS   D3B12701  18.241   5.914   7.105 -0.3485  0.1161  0.2230
  822YOPS   C4B12702  17.795   6.054   6.963 -0.0707  0.0584  0.0032
  823YOPS   CNO12703  16.292  14.792   4.936  0.0351 -0.0571 -0.0349
  823YOPS   PO412704  16.462  14.597   5.220  0.0265  0.0817  0.3635
  823YOPS   GL112705  16.538  14.389   5.562 -0.0408  0.2081 -0.1065
  823YOPS   GL212706  16.833  14.367   5.620 -0.1681 -0.2950  0.0353
  823YOPS   C1A12707  16.457  14.475   5.975  0.1340 -0.0612 -0.1266
  823YOPS   D2A12708  16.414  14.508   6.388 -0.0482  0.3907 -0.2257
  823YOPS   C3A12709  16.234  14.469   6.771 -0.1113 -0.3812  0.3599
  823YOPS   C4A12710  16.394  14.008   6.904  0.0559 -0.3265 -0.2050
  823YOPS   C1B12711  16.729  14.790   5.748  0.0244 -0.1963  0.2586
  823YOPS   C2B12712  16.690  14.930   6.189 -0.2438  0.1927  0.0826
  823YOPS   D3B12713  16.535  15.078   6.482  0.0205 -0.2498  0.3091
  823YOPS   C4B12714  16.496  14.901   6.935 -0.2941  0.0477  0.0485
  824YOPS   CNO12715  10.267  13.022   4.790 -0.2131  0.1313 -0.0819
  824YOPS   PO412716  10.681  12.961   4.798  0.0331  0.1935  0.1763
  824YOPS   GL112717  10.693  13.087   5.185  0.2910 -0.2538  0.0415
  824YOPS   GL212718  11.001  12.967   5.402  0.4636 -0.1023  0.2413
  824YOPS   C1A12719  10.580  13.287   5.532  0.0310  0.0149 -0.1063
  824YOPS   D2A12720  10.711  13.569   5.871 -0.2315 -0.1738  0.1421
  824YOPS   C3A12721  10.761  13.687   6.322  0.3243 -0.1200  0.0885
  824YOPS   C4A12722  11.054  13.834   6.570  0.1723  0.0575  0.3083
  824YOPS   C1B12723  11.299  12.759   5.698 -0.0790  0.1415  0.0942
  824YOPS   C2B12724  11.547  12.480   5.940  0.0505  0.1104  0.2595
  824YOPS   D3B12725  11.851  12.249   6.137 -0.0957  0.0394  0.0337
  824YOPS   C4B12726  12.216  12.071   5.940 -0.3931 -0.3027 -0.2188
  825YOPS   CNO12727  13.021  11.134   4.853 -0.0435  0.1105  0.1977
  825YOPS   PO412728  12.853  11.230   5.222  0.0817  0.2414  0.0474
  825YOPS   GL112729  12.671  11.468   5.592  0.0745 -0.0439  0.0786
  825YOPS   GL212730  12.779  11.236   5.727  0.2076 -0.2954  0.2993
  825YOPS   C1A12731  12.797  11.775   5.864 -0.3345 -0.0253 -0.0140
  825YOPS   D2A12732  12.974  11.774   6.272 -0.2350 -0.0976  0.3346
  825YOPS   C3A12733  13.310  11.880   6.541  0.5554  0.3592 -0.0102
  825YOPS   C4A12734  13.638  12.169   6.404  0.0476 -0.1499  0.0492
  825YOPS   C1B12735  12.522  10.916   5.658  0.0572  0.3593 -0.3277
  825YOPS   C2B12736  12.538  10.645   6.003  0.0919 -0.1796  0.1743
  825YOPS   D3B12737  12.505  10.191   6.166 -0.0350 -0.1366  0.1421
  825YOPS   C4B12738  12.205  10.084   6.363 -0.1586  0.1760 -0.3121
  826YOPS   CNO12739  15.644  18.411   4.644  0.0781  0.0472  0.2311
  826YOPS   PO412740  15.849  18.488   5.022 -0.0754  0.0642  0.3861
  826YOPS   GL112741  15.518  18.542   5.257  0.0581  0.0533 -0.0224
  826YOPS   GL212742  15.178  18.420   5.172  0.0110  0.0350 -0.0475
  826YOPS   C1A12743  15.425  18.371   5.820 -0.3718  0.0162 -0.2233
  826YOPS   D2A12744  15.576  18.223   6.279 -0.1946 -0.0795  0.4743
  826YOPS   C3A12745  15.598  18.012   6.536  0.0987  0.0894 -0.1558
  826YOPS   C4A12746  15.513  18.006   6.883  0.0304  0.1071 -0.1896
  826YOPS   C1B12747  14.968  18.484   5.610 -0.4564 -0.2115 -0.3502
  826YOPS   C2B12748  15.014  18.479   6.008  0.2453  0.1563  0.0284
  826YOPS   D3B12749  14.821  18.339   6.387 -0.0981 -0.4385 -0.0231
  826YOPS   C4B12750  15.033  18.248   6.650  0.1845  0.2080 -0.1632
  827YOPS   CNO12751  10.499   1.611   5.114  0.1535  0.1177 -0.0722
  827YOPS   PO412752  10.955   1.710   5.006 -0.0035  0.3066 -0.1405
  827YOPS   GL112753  11.076   1.950   5.414  0.2554  0.0679 -0.0986
  827YOPS   GL212754  10.876   2.060   5.550  0.2323  0.0510  0.1456
  827YOPS   C1A12755  11.360   2.069   5.788  0.0183 -0.1138  0.2637
  827YOPS   D2A12756  11.672   1.814   6.082 -0.0523 -0.1647 -0.2348
  827YOPS   C3A12757  11.764   1.912   6.557  0.1181 -0.0900  0.1734
  827YOPS   C4A12758  11.940   1.834   6.913  0.3666  0.0086 -0.0248
  827YOPS   C1B12759  10.844   1.747   5.922  0.3423 -0.3009  0.2073
  827YOPS   C2B12760  10.779   1.792   6.394 -0.0206  0.3739 -0.0485
  827YOPS   D3B12761  10.550   2.036   6.679 -0.2603  0.0955  0.0835
  827YOPS   C4B12762  10.142   2.170   6.735  0.3451  0.1580 -0.2572
  828YOPS   CNO12763  19.283   2.402   4.453  0.0009 -0.2474 -0.0053
  828YOPS   PO412764  19.594   2.586   4.725  0.0980  0.0151 -0.2434
  828YOPS   GL112765  19.658   2.664   5.248 -0.2456 -0.0991  0.0897
  828YOPS   GL212766  19.387   2.829   5.475  0.4693 -0.1412  0.1035
  828YOPS   C1A12767  19.678   2.249   5.552  0.0094  0.3697 -0.1661
  828YOPS   D2A12768  19.630   1.857   5.714 -0.3275  0.0105  0.0544
  828YOPS   C3A12769  19.710   1.617   6.008  0.0915 -0.0507  0.1191
  828YOPS   C4A12770  19.571   1.293   6.120 -0.1697  0.0226 -0.1276
  828YOPS   C1B12771  19.388   2.775   5.849  0.0296  0.3686 -0.1167
  828YOPS   C2B12772  19.395   2.861   6.215  0.4088 -0.0339 -0.1697
  828YOPS   D3B12773  19.325   3.062   6.575  0.1306 -0.0622 -0.0960
  828YOPS   C4B12774  18.915   3.234   6.620  0.2761 -0.2522 -0.0169
  829YOPS   CNO12775  14.471   4.313   5.257 -0.0219  0.1038 -0.0953
  829YOPS   PO412776  14.071   4.434   5.344 -0.0042 -0.1367 -0.1517
  829YOPS   GL112777  14.175   4.870   5.506 -0.1302  0.2114  0.1574
  829YOPS   GL212778  13.932   5.178   5.604 -0.1714  0.0701 -0.2127
  829YOPS   C1A12779  14.274   5.054   5.890 -0.1453  0.0299 -0.1673
  829YOPS   D2A12780  14.326   4.940   6.441  0.2585  0.2178 -0.0555
  829YOPS   C3A12781  14.310   4.884   6.935 -0.4199 -0.3509 -0.2419
  829YOPS   C4A12782  14.101   4.583   7.147  0.1318  0.1074 -0.0004
  829YOPS   C1B12783  13.740   5.160   5.978 -0.0125 -0.0383 -0.1619
  829YOPS   C2B12784  13.863   4.949   6.231  0.0540 -0.1548 -0.1107
  829YOPS   D3B12785  13.917   4.860   6.659 -0.3022  0.1801 -0.0187
  829YOPS   C4B12786  13.719   4.780   6.984  0.0461 -0.2869 -0.1496
  830YOPS   CNO12787  12.515   1.849   5.315 -0.1902  0.0856 -0.0069
  830YOPS   PO412788  12.294   1.580   5.244 -0.4486 -0.0959  0.0495
  830YOPS   GL112789  12.216   1.408   5.627 -0.0261  0.2834  0.0711
  830YOPS   GL212790  12.060   1.733   5.672  0.0802 -0.0799 -0.1220
  830YOPS   C1A12791  11.778   1.252   5.721  0.1219 -0.0046 -0.0756
  830YOPS   D2A12792  11.527   1.159   6.057  0.1756  0.1962 -0.4567
  830YOPS   C3A12793  11.488   1.241   6.484 -0.3169 -0.1859 -0.1028
  830YOPS   C4A12794  11.474   1.482   6.912 -0.0914 -0.2404 -0.0646
  830YOPS   C1B12795  11.954   1.459   6.114 -0.1707  0.1372 -0.3384
  830YOPS   C2B12796  12.000   1.456   6.571  0.1627  0.0427  0.0787
  830YOPS   D3B12797  12.297   1.355   6.980 -0.2249  0.1233  0.2884
  830YOPS   C4B12798  12.517   0.996   7.134  0.1513 -0.1862 -0.2337
  831YOPS   CNO12799   1.692  15.536   4.512  0.1578  0.2074  0.2097
  831YOPS   PO412800   1.762  15.445   4.955  0.0905  0.0757  0.0072
  831YOPS   GL112801   1.899  15.467   5.320 -0.4945 -0.0895 -0.2560
  831YOPS   GL212802   2.140  15.284   5.492  0.0762  0.3434  0.1582
  831YOPS   C1A12803   1.743  15.690   5.706 -0.0623  0.1409  0.3595
  831YOPS   D2A12804   1.836  15.600   6.137 -0.1230  0.1213 -0.2780
  831YOPS   C3A12805   1.881  15.629   6.592  0.2355 -0.1705  0.1439
  831YOPS   C4A12806   1.639  15.490   6.941 -0.1050  0.0622  0.2419
  831YOPS   C1B12807   2.089  15.341   5.822 -0.0424  0.1055  0.4304
  831YOPS   C2B12808   2.268  15.325   6.139  0.0803 -0.3370  0.1044
  831YOPS   D3B12809   2.502  15.169   6.381  0.1188  0.0031 -0.0523
  831YOPS   C4B12810   2.430  14.833   6.537  0.2073 -0.0977  0.1457
  832YOPS   CNO12811   9.419   0.379   4.697 -0.0862 -0.0428 -0.1657
  832YOPS   PO412812   9.356   0.045   4.859  0.2617  0.1210 -0.1635
  832YOPS   GL112813   9.248   0.107   5.311 -0.3217 -0.1266  0.1041
  832YOPS   GL212814   9.125  -0.206   5.443 -0.0265  0.3105 -0.2600
  832YOPS   C1A12815   9.216   0.188   5.745  0.2306 -0.2342 -0.1849
  832YOPS   D2A12816   9.438   0.231   6.047 -0.1467  0.0484 -0.2113
  832YOPS   C3A12817   9.465   0.277   6.552 -0.0140 -0.0735 -0.3018
  832YOPS   C4A12818   9.634   0.616   6.842 -0.2281  0.0909  0.0172
  832YOPS   C1B12819   9.541  -0.161   5.650 -0.7338 -0.4888 -0.1506
  832YOPS   C2B12820   9.835  -0.088   6.018 -0.0650 -0.1117 -0.0958
  832YOPS   D3B12821   9.773  -0.067   6.410 -0.3328 -0.1539 -0.0182
  832YOPS   C4B12822   9.456  -0.262   6.635 -0.2113 -0.0225 -0.3118
  833YOPS   CNO12823  11.676  18.906   5.296 -0.2957  0.1913 -0.2043
  833YOPS   PO412824  11.427  19.206   5.081  0.4251 -0.2612 -0.2326
  833YOPS   GL112825  11.328  19.188   5.535 -0.2090 -0.1781 -0.1793
  833YOPS   GL212826  11.480  18.941   5.771  0.2093 -0.3008 -0.0398
  833YOPS   C1A12827  11.025  19.191   5.891 -0.3039  0.0254 -0.0907
  833YOPS   D2A12828  10.868  19.526   6.078 -0.0219  0.2874  0.1984
  833YOPS   C3A12829  10.741  19.541   6.523 -0.2133  0.1394  0.1181
  833YOPS   C4A12830  10.739  19.833   6.783 -0.1263 -0.1588  0.2364
  833YOPS   C1B12831  11.497  19.349   6.017  0.2237 -0.1851  0.2376
  833YOPS   C2B12832  11.755  19.256   6.393 -0.0839  0.0503 -0.0188
  833YOPS   D3B12833  11.936  19.476   6.676  0.1674 -0.1689  0.0166
  833YOPS   C4B12834  11.642  19.549   6.957 -0.1285  0.1173 -0.1173
  834YOPS   CNO12835   9.204  10.203   4.967  0.1610  0.3240  0.0741
  834YOPS   PO412836   8.801  10.191   4.860 -0.3075  0.1604 -0.0735
  834YOPS   GL112837   8.724  10.122   5.261  0.0477  0.0875 -0.2400
  834YOPS   GL212838   8.960   9.929   5.353 -0.0598  0.0777 -0.1668
  834YOPS   C1A12839   8.505  10.181   5.588 -0.2359 -0.2417  0.2123
  834YOPS   D2A12840   8.658  10.316   6.030  0.1330  0.0276 -0.0269
  834YOPS   C3A12841   8.901  10.591   6.226  0.0082 -0.3611 -0.3894
  834YOPS   C4A12842   9.132  10.663   6.572 -0.0900 -0.2274 -0.1163
  834YOPS   C1B12843   9.192  10.215   5.444  0.0114 -0.5021 -0.1062
  834YOPS   C2B12844   9.551  10.373   5.673 -0.0047  0.0016 -0.2374
  834YOPS   D3B12845   9.820  10.653   5.829  0.0495 -0.1504  0.0418
  834YOPS   C4B12846   9.988  10.619   6.161  0.2474 -0.0275  0.0208
  835YOPS   CNO12847  14.519  15.270   5.004  0.0326  0.0278  0.0715
  835YOPS   PO412848  14.725  14.930   4.907 -0.2509 -0.1509 -0.4018
  835YOPS   GL112849  14.671  14.870   5.325 -0.2340  0.0993 -0.2548
  835YOPS   GL212850  14.329  14.958   5.328  0.2533  0.0794  0.0917
  835YOPS   C1A12851  14.651  14.538   5.774 -0.1000 -0.1340  0.3196
  835YOPS   D2A12852  14.679  14.259   5.999  0.1144  0.2699  0.1627
  835YOPS   C3A12853  14.456  13.997   6.318  0.2195  0.1035 -0.1358
  835YOPS   C4A12854  14.135  14.227   6.513  0.0292 -0.0293 -0.2197
  835YOPS   C1B12855  14.190  14.657   5.689 -0.0326  0.3376 -0.0039
  835YOPS   C2B12856  14.231  14.486   6.106 -0.0881 -0.1617 -0.0398
  835YOPS   D3B12857  14.576  14.604   6.498 -0.0283 -0.1072  0.2113
  835YOPS   C4B12858  14.588  14.241   6.736 -0.4050 -0.0862  0.0427
  836YOPS   CNO12859  13.214  18.593   4.891  0.3467  0.1275 -0.0526
  836YOPS   PO412860  13.546  18.321   4.896  0.0804 -0.1729 -0.0199
  836YOPS   GL112861  13.634  18.427   5.278  0.1828  0.2333 -0.1849
  836YOPS   GL212862  13.319  18.505   5.419 -0.1824 -0.0243  0.1881
  836YOPS   C1A12863  13.760  18.658   5.686  0.1293  0.1345 -0.0581
  836YOPS   D2A12864  14.058  18.993   5.824 -0.2373  0.0388  0.0797
  836YOPS   C3A12865  14.250  19.240   5.955 -0.0235 -0.2691  0.0770
  836YOPS   C4A12866  14.174  19.200   6.332 -0.0916  0.0983  0.0969
  836YOPS   C1B12867  13.430  18.257   5.711  0.0162 -0.0855 -0.1985
  836YOPS   C2B12868  13.589  18.326   6.166  0.3321 -0.0474 -0.2656
  836YOPS   D3B12869  13.339  18.645   6.436 -0.1662  0.2472  0.0246
  836YOPS   C4B12870  13.446  18.873   6.825 -0.0511  0.0677 -0.2693
  837YOPS   CNO12871  18.620   7.589   5.061 -0.0436 -0.1656 -0.2979
  837YOPS   PO412872  18.454   7.449   5.412 -0.0149 -0.0848  0.2326
  837YOPS   GL112873  18.315   7.504   5.764  0.3718  0.1702  0.0165
  837YOPS   GL212874  17.952   7.700   5.872  0.0836 -0.1258  0.1559
  837YOPS   C1A12875  18.366   7.462   6.251 -0.0210 -0.3600 -0.0757
  837YOPS   D2A12876  18.561   7.491   6.742  0.0767 -0.0262 -0.2881
  837YOPS   C3A12877  18.637   7.375   7.163  0.0249 -0.0582  0.3887
  837YOPS   C4A12878  18.893   7.165   7.454  0.0518 -0.4608 -0.1632
  837YOPS   C1B12879  17.883   7.594   6.337 -0.3004  0.1778  0.3287
  837YOPS   C2B12880  17.578   7.481   6.592  0.0278  0.0241 -0.1118
  837YOPS   D3B12881  17.447   7.610   6.936  0.4929 -0.1041 -0.0927
  837YOPS   C4B12882  17.192   7.247   7.210  0.0501 -0.0066 -0.0552
  838YOPS   CNO12883   6.994   9.813   5.072 -0.1144  0.0080 -0.4619
  838YOPS   PO412884   7.251   9.438   5.031  0.1865 -0.4556 -0.2506
  838YOPS   GL112885   7.375   9.525   5.392 -0.3079 -0.0765 -0.0487
  838YOPS   GL212886   7.139   9.490   5.552 -0.1432  0.0055 -0.2375
  838YOPS   C1A12887   7.566   9.420   5.714 -0.4429  0.2969 -0.1809
  838YOPS   D2A12888   7.959   9.546   6.021 -0.3524  0.1714 -0.1386
  838YOPS   C3A12889   8.001   9.300   6.436  0.1625 -0.1238  0.0561
  838YOPS   C4A12890   8.297   9.408   6.648 -0.0275 -0.0436  0.2832
  838YOPS   C1B12891   7.031   9.103   5.833 -0.1966  0.0695  0.2464
  838YOPS   C2B12892   6.588   9.175   6.076  0.1002 -0.2923 -0.0051
  838YOPS   D3B12893   6.575   9.431   6.301 -0.4131  0.0006  0.2143
  838YOPS   C4B12894   6.454   9.722   5.943  0.1148 -0.0128  0.0850
  839YOPS   CNO12895   7.800   9.350   4.876 -0.0035  0.1408  0.3299
  839YOPS   PO412896   8.185   9.390   5.079 -0.0556  0.0969  0.0464
  839YOPS   GL112897   8.324   9.283   5.503  0.1970  0.0320 -0.0125
  839YOPS   GL212898   8.514   8.998   5.472 -0.3319 -0.0864  0.2133
  839YOPS   C1A12899   8.766   9.298   5.774  0.0389 -0.4736  0.3622
  839YOPS   D2A12900   8.760   9.411   6.119 -0.1755  0.0220 -0.0309
  839YOPS   C3A12901   8.756   9.533   6.592  0.1013  0.0171 -0.1801
  839YOPS   C4A12902   9.150   9.740   6.648  0.1205 -0.0723 -0.0989
  839YOPS   C1B12903   8.380   8.971   5.914 -0.0950  0.0435 -0.0021
  839YOPS   C2B12904   8.185   8.812   6.198  0.3606 -0.1150 -0.1486
  839YOPS   D3B12905   7.892   8.812   6.536 -0.0476  0.1485  0.1482
  839YOPS   C4B12906   8.102   8.963   6.878 -0.1164 -0.1895  0.0464
  840YOPS   CNO12907   2.136  14.680   4.470 -0.1465  0.1584 -0.0912
  840YOPS   PO412908   2.103  14.380   4.866 -0.0308 -0.0535 -0.1389
  840YOPS   GL112909   2.190  14.718   5.280 -0.4553  0.1618  0.0739
  840YOPS   GL212910   2.489  14.858   5.346 -0.0728 -0.1745 -0.1257
  840YOPS   C1A12911   2.024  14.796   5.725  0.1446 -0.2410 -0.0317
  840YOPS   D2A12912   2.188  14.796   6.078  0.2235  0.2906  0.1324
  840YOPS   C3A12913   2.623  14.721   6.027 -0.2200  0.2092 -0.1247
  840YOPS   C4A12914   2.898  14.884   6.369  0.1387 -0.0452  0.0328
  840YOPS   C1B12915   2.585  15.071   5.686 -0.2019 -0.0425 -0.0436
  840YOPS   C2B12916   2.825  15.414   6.016  0.3870 -0.0209  0.1900
  840YOPS   D3B12917   3.005  15.351   6.385 -0.2604  0.2412 -0.0093
  840YOPS   C4B12918   2.906  15.318   6.773  0.3648  0.0322 -0.0731
  841YOPS   CNO12919  17.369   9.967   5.373  0.1809  0.2020  0.1340
  841YOPS   PO412920  17.616  10.439   5.338  0.0990 -0.2467  0.0918
  841YOPS   GL112921  17.436  10.806   5.647  0.1193 -0.0683 -0.2531
  841YOPS   GL212922  17.063  11.060   5.595 -0.0023 -0.0255 -0.0834
  841YOPS   C1A12923  17.309  10.879   6.001 -0.1324 -0.0580 -0.4728
  841YOPS   D2A12924  17.307  10.900   6.471 -0.3429  0.1200 -0.0334
  841YOPS   C3A12925  17.219  11.237   6.711  0.0826 -0.1177  0.2861
  841YOPS   C4A12926  16.734  11.340   6.850 -0.0854  0.3770  0.0911
  841YOPS   C1B12927  16.868  10.631   5.798  0.0710 -0.0917  0.2173
  841YOPS   C2B12928  16.833  10.205   6.011  0.1409  0.0386 -0.0852
  841YOPS   D3B12929  16.609   9.863   5.984  0.0751 -0.1930 -0.0712
  841YOPS   C4B12930  16.670   9.557   6.087 -0.0345  0.0963  0.5068
  842YOPS   CNO12931   5.508   4.342   4.644 -0.0563 -0.2231  0.0359
  842YOPS   PO412932   5.173   4.103   4.807  0.3100 -0.1810 -0.3318
  842YOPS   GL112933   5.090   4.147   5.228 -0.2885 -0.0848  0.0412
  842YOPS   GL212934   5.237   3.938   5.464 -0.2364  0.0582  0.0045
  842YOPS   C1A12935   5.069   4.393   5.667 -0.3903 -0.0025 -0.2614
  842YOPS   D2A12936   4.789   4.239   6.061  0.1280  0.0263 -0.1090
  842YOPS   C3A12937   4.718   4.284   6.600 -0.0298  0.0713 -0.1107
  842YOPS   C4A12938   4.743   3.820   6.760  0.2722 -0.3286  0.1353
  842YOPS   C1B12939   5.143   3.970   5.961 -0.1656  0.2182  0.2167
  842YOPS   C2B12940   5.074   3.784   6.330  0.2170 -0.0634  0.3682
  842YOPS   D3B12941   4.978   3.377   6.253  0.0941  0.2672 -0.2827
  842YOPS   C4B12942   5.030   3.069   6.533 -0.0770  0.0356 -0.2671
  843YOPS   CNO12943   8.199   4.658   5.414  0.1122  0.1560 -0.2115
  843YOPS   PO412944   7.759   4.582   5.213  0.1487 -0.0561 -0.0026
  843YOPS   GL112945   7.758   4.702   5.685 -0.2182  0.0185  0.0406
  843YOPS   GL212946   7.425   4.935   5.849 -0.1392 -0.2415 -0.1803
  843YOPS   C1A12947   7.874   4.815   6.146  0.0080 -0.0743  0.2069
  843YOPS   D2A12948   7.911   4.938   6.647 -0.5221  0.2055  0.1615
  843YOPS   C3A12949   7.819   5.056   7.036 -0.2238 -0.2943  0.0562
  843YOPS   C4A12950   7.399   5.348   6.988 -0.1091 -0.0631  0.1057
  843YOPS   C1B12951   7.244   4.963   6.270  0.1986  0.1913 -0.0984
  843YOPS   C2B12952   6.950   4.833   6.522  0.0913 -0.1187  0.1519
  843YOPS   D3B12953   7.027   4.548   6.825 -0.1083 -0.3324 -0.1814
  843YOPS   C4B12954   6.720   4.234   6.987 -0.0977  0.0385  0.0451
  844POPE   NH312955  14.467  17.799   4.659 -0.0504  0.1358  0.1817
  844POPE   PO412956  14.444  17.462   4.819  0.2674  0.0876  0.1375
  844POPE   GL112957  14.521  17.665   5.136  0.0845  0.2118  0.0763
  844POPE   GL212958  14.272  17.665   5.400  0.0430  0.2225 -0.0025
  844POPE   C1A12959  14.793  17.624   5.538  0.1427 -0.3060  0.0614
  844POPE   D2A12960  14.905  17.420   5.884 -0.0388 -0.0584 -0.0887
  844POPE   C3A12961  14.903  17.150   6.169 -0.1947  0.2008  0.3503
  844POPE   C4A12962  14.752  16.697   6.356  0.5515  0.1466  0.0477
  844POPE   C1B12963  14.344  17.387   5.688 -0.4405 -0.0948  0.0050
  844POPE   C2B12964  14.375  17.150   6.079 -0.3137  0.0982 -0.0444
  844POPE   C3B12965  14.494  17.139   6.486 -0.1420  0.2284 -0.4509
  844POPE   C4B12966  14.774  17.165   6.697 -0.3649  0.1962 -0.2049
  845POPE   NH312967  12.680  15.249   4.860 -0.2728 -0.1838 -0.1014
  845POPE   PO412968  12.352  15.054   5.011 -0.0387  0.1149 -0.0866
  845POPE   GL112969  12.357  15.113   5.411 -0.0632  0.1940  0.1228
  845POPE   GL212970  12.023  15.289   5.332 -0.2262 -0.1090  0.0663
  845POPE   C1A12971  12.414  15.308   5.634  0.2745  0.0725 -0.1826
  845POPE   D2A12972  12.339  15.442   6.084 -0.0392 -0.1041 -0.1548
  845POPE   C3A12973  12.520  15.225   6.363 -0.0650  0.4316 -0.2611
  845POPE   C4A12974  12.720  15.350   6.710  0.1648 -0.1418 -0.1037
  845POPE   C1B12975  11.950  15.601   5.554  0.1745 -0.0930  0.0981
  845POPE   C2B12976  11.997  15.829   5.918  0.1671 -0.0795 -0.0590
  845POPE   C3B12977  12.088  15.810   6.336 -0.0253 -0.0945  0.1246
  845POPE   C4B12978  12.385  15.700   6.655 -0.2591  0.3090 -0.0633
  846POPE   NH312979   5.032  15.354   5.062 -0.2419  0.1317  0.1881
  846POPE   PO412980   5.056  14.914   4.968 -0.1446 -0.0741  0.0646
  846POPE   GL112981   5.389  14.958   5.150  0.1011  0.0896 -0.0728
  846POPE   GL212982   5.537  15.188   5.153  0.1699  0.0138  0.3363
  846POPE   C1A12983   5.440  15.174   5.625 -0.1618 -0.0193 -0.1805
  846POPE   D2A12984   5.515  15.096   6.096  0.0584 -0.1335  0.0640
  846POPE   C3A12985   5.487  15.345   6.401 -0.1319 -0.0041 -0.3553
  846POPE   C4A12986   5.544  15.413   6.858 -0.0533  0.1098  0.2354
  846POPE   C1B12987   5.490  15.603   5.435 -0.0887  0.2681 -0.1746
  846POPE   C2B12988   5.509  15.867   5.758  0.0332 -0.1630 -0.1419
  846POPE   C3B12989   5.467  15.767   6.097  0.0564 -0.5114 -0.1195
  846POPE   C4B12990   5.210  15.953   6.494  0.2415 -0.0901  0.0918
  847POPE   NH312991   1.237   0.315   4.978  0.2946  0.4013  0.2629
  847POPE   PO412992   1.536   0.097   5.086  0.1012  0.1079  0.4091
  847POPE   GL112993   1.430  -0.176   5.460 -0.1958 -0.2005  0.3723
  847POPE   GL212994   1.250  -0.433   5.358  0.3943 -0.1598  0.0804
  847POPE   C1A12995   1.291  -0.019   5.844  0.1491  0.1500 -0.3393
  847POPE   D2A12996   0.987  -0.160   6.121 -0.1058  0.2353 -0.0638
  847POPE   C3A12997   1.270  -0.176   6.450 -0.0333  0.2341  0.0311
  847POPE   C4A12998   1.473   0.160   6.601  0.1552  0.0077 -0.4109
  847POPE   C1B12999   1.565  -0.537   5.696  0.0606  0.2127 -0.0177
  847POPE   C2B13000   1.424  -0.708   5.964 -0.1449 -0.3036  0.1935
  847POPE   C3B13001   1.064  -0.650   6.218 -0.0769  0.0822 -0.0595
  847POPE   C4B13002   0.768  -0.952   6.258  0.2718  0.0150 -0.2084
  848POPE   NH313003  11.694   8.315   5.084 -0.1605 -0.3582  0.1232
  848POPE   PO413004  11.302   8.428   4.962 -0.0127 -0.0311  0.2423
  848POPE   GL113005  11.513   8.612   5.425 -0.0144  0.0145  0.0172
  848POPE   GL213006  11.542   9.044   5.465  0.1007 -0.1327 -0.2069
  848POPE   C1A13007  11.662   8.613   5.969  0.0996 -0.0732 -0.0892
  848POPE   D2A13008  11.562   8.952   6.288  0.1236  0.1723  0.1357
  848POPE   C3A13009  11.337   8.909   6.771 -0.0810 -0.1781 -0.0199
  848POPE   C4A13010  11.364   8.772   7.202 -0.0223 -0.1067  0.0148
  848POPE   C1B13011  11.810   9.183   5.902  0.1616  0.2576  0.1393
  848POPE   C2B13012  11.811   9.351   6.225 -0.2467 -0.1121  0.0282
  848POPE   C3B13013  11.621   9.412   6.670  0.3449  0.2825 -0.2868
  848POPE   C4B13014  11.462   9.323   7.054 -0.0108  0.2426  0.0898
  849POPE   NH313015  16.411  16.882   4.804 -0.1499  0.2497  0.2060
  849POPE   PO413016  16.184  16.681   5.208 -0.1110  0.0292  0.3444
  849POPE   GL113017  15.792  16.768   5.468  0.1976  0.1204 -0.0040
  849POPE   GL213018  15.801  16.543   5.622  0.1419 -0.0771 -0.0664
  849POPE   C1A13019  15.345  16.768   5.482 -0.0740  0.2509  0.2541
  849POPE   D2A13020  15.212  17.025   5.833 -0.1354  0.0608  0.1606
  849POPE   C3A13021  15.462  16.999   6.229  0.1606 -0.2158 -0.0698
  849POPE   C4A13022  15.270  16.841   6.489  0.1229 -0.1015 -0.1976
  849POPE   C1B13023  15.935  16.824   6.003  0.0529  0.0892  0.2773
  849POPE   C2B13024  15.975  17.044   6.357  0.0675 -0.1373  0.3382
  849POPE   C3B13025  15.740  16.976   6.807 -0.2770 -0.1743 -0.0499
  849POPE   C4B13026  15.721  16.939   7.224  0.3109 -0.1640  0.1327
  850POPE   NH313027  14.960  16.399   4.950  0.2185  0.2762 -0.0564
  850POPE   PO413028  14.661  16.178   5.170 -0.2828 -0.0455  0.0623
  850POPE   GL113029  14.559  15.875   5.381 -0.1464  0.1954  0.3285
  850POPE   GL213030  14.495  15.633   5.348  0.1501  0.3234 -0.0840
  850POPE   C1A13031  14.388  16.003   5.880 -0.0365 -0.1368 -0.0946
  850POPE   D2A13032  14.544  16.349   6.137 -0.2193  0.1405  0.1733
  850POPE   C3A13033  14.349  16.659   5.980  0.0338 -0.2211 -0.2098
  850POPE   C4A13034  14.303  16.885   5.649 -0.0687  0.0348 -0.0275
  850POPE   C1B13035  14.317  15.515   5.781 -0.0522 -0.4054  0.0936
  850POPE   C2B13036  14.273  15.568   6.085  0.1264 -0.0123 -0.1459
  850POPE   C3B13037  14.192  15.463   6.469  0.2469  0.1541 -0.2499
  850POPE   C4B13038  13.888  15.436   6.774  0.2787 -0.0051  0.0999
  851POPE   NH313039   6.676   7.371   5.025 -0.1229  0.1137  0.2545
  851POPE   PO413040   6.300   7.241   5.253 -0.0899 -0.0581 -0.1025
  851POPE   GL113041   6.471   7.192   5.613 -0.1075  0.4971  0.0362
  851POPE   GL213042   6.213   6.998   5.725 -0.0814  0.0154 -0.2459
  851POPE   C1A13043   6.546   7.393   5.981 -0.3244 -0.1295 -0.0544
  851POPE   D2A13044   6.552   7.752   6.115 -0.1161 -0.1575  0.3451
  851POPE   C3A13045   6.880   7.973   5.952 -0.0658 -0.1000 -0.2258
  851POPE   C4A13046   7.240   8.360   5.755 -0.1086  0.1819 -0.1216
  851POPE   C1B13047   6.334   6.990   6.155  0.2691  0.1462 -0.4217
  851POPE   C2B13048   6.596   7.244   6.485 -0.2966  0.2478  0.0737
  851POPE   C3B13049   6.709   7.474   6.906  0.1535 -0.1497  0.0068
  851POPE   C4B13050   6.585   7.312   7.371 -0.1825  0.0468 -0.0896
  852POPE   NH313051  18.878   3.232   4.716  0.1662 -0.1918  0.5997
  852POPE   PO413052  18.993   2.918   5.097 -0.1203 -0.1267  0.1884
  852POPE   GL113053  18.809   2.864   5.369  0.0909  0.3941  0.1279
  852POPE   GL213054  18.789   3.044   5.577 -0.1448  0.1376  0.2461
  852POPE   C1A13055  18.708   2.513   5.654  0.1433  0.3387 -0.1693
  852POPE   D2A13056  18.794   2.018   5.827  0.0904 -0.1341  0.0034
  852POPE   C3A13057  18.490   1.875   6.161 -0.0278  0.3341  0.3100
  852POPE   C4A13058  18.316   2.024   6.565  0.2412 -0.1594 -0.0072
  852POPE   C1B13059  18.943   2.916   5.995 -0.1601 -0.1533  0.5920
  852POPE   C2B13060  18.960   2.685   6.471  0.1031 -0.0425  0.0081
  852POPE   C3B13061  18.701   2.644   6.769  0.0082 -0.0019 -0.3886
  852POPE   C4B13062  18.346   2.619   6.934 -0.4090 -0.1090  0.0687
  853POPE   NH313063   8.863  12.085   5.120 -0.1838  0.0570  0.0128
  853POPE   PO413064   8.667  11.886   4.832  0.0106  0.0303  0.3259
  853POPE   GL113065   8.348  11.583   4.996  0.3742 -0.0849  0.1919
  853POPE   GL213066   8.053  11.576   5.142 -0.0607 -0.0879  0.3827
  853POPE   C1A13067   8.499  11.296   5.356  0.4375  0.1133  0.4887
  853POPE   D2A13068   8.473  11.167   5.720  0.1746 -0.0192  0.0357
  853POPE   C3A13069   8.633  11.500   5.978 -0.1258 -0.1202 -0.5299
  853POPE   C4A13070   8.559  11.868   6.323 -0.1009 -0.1662 -0.0987
  853POPE   C1B13071   8.068  11.496   5.574  0.0791  0.0408  0.1008
  853POPE   C2B13072   8.048  11.522   5.976 -0.4860 -0.2795 -0.2836
  853POPE   C3B13073   7.648  11.380   6.029  0.2864 -0.0564 -0.0319
  853POPE   C4B13074   7.464  11.041   6.144  0.3412 -0.0560 -0.1497
  854POPE   NH313075   2.579  17.744   5.059  0.2278  0.0712  0.0126
  854POPE   PO413076   2.219  17.533   4.897  0.2499  0.1423 -0.0870
  854POPE   GL113077   2.027  17.553   5.201 -0.0219 -0.1567  0.1352
  854POPE   GL213078   2.052  17.324   5.340 -0.0555  0.2012  0.0275
  854POPE   C1A13079   1.889  17.841   5.593  0.0535  0.3383 -0.1747
  854POPE   D2A13080   1.451  18.020   5.699  0.0293  0.2481  0.0494
  854POPE   C3A13081   1.348  18.404   5.923  0.2163 -0.1016 -0.2633
  854POPE   C4A13082   1.153  18.302   6.344 -0.0785 -0.2487 -0.1446
  854POPE   C1B13083   2.084  17.440   5.796 -0.3034  0.1720  0.2090
  854POPE   C2B13084   2.067  17.563   6.159  0.0294 -0.1251 -0.0242
  854POPE   C3B13085   1.809  17.736   6.444 -0.1347 -0.2422 -0.1515
  854POPE   C4B13086   1.431  17.930   6.465 -0.0197 -0.0491  0.2640
  855POPE   NH313087  16.628   8.954   5.382 -0.1687 -0.0104 -0.3627
  855POPE   PO413088  16.557   8.448   5.350 -0.1582 -0.1147  0.1981
  855POPE   GL113089  16.639   8.614   5.780  0.0192 -0.2245  0.0494
  855POPE   GL213090  16.397   8.782   5.897 -0.1451 -0.0385  0.0741
  855POPE   C1A13091  16.586   8.430   6.192  0.1744  0.1219  0.0676
  855POPE   D2A13092  16.413   8.795   6.444 -0.1349  0.1289  0.2327
  855POPE   C3A13093  15.939   8.698   6.601 -0.0347 -0.2300 -0.4595
  855POPE   C4A13094  15.818   8.933   6.981 -0.0540  0.1690  0.4609
  855POPE   C1B13095  15.949   8.870   6.036 -0.2550 -0.2301 -0.1784
  855POPE   C2B13096  15.534   8.799   6.189 -0.0701 -0.0701 -0.0577
  855POPE   C3B13097  15.416   8.793   6.618  0.1223  0.1556  0.0076
  855POPE   C4B13098  15.481   8.603   7.063 -0.2095 -0.1328 -0.2115
  856POPE   NH313099  13.445  14.515   5.135 -0.4177  0.0463  0.1117
  856POPE   PO413100  13.404  14.063   5.148  0.2167  0.1731  0.1327
  856POPE   GL113101  13.478  13.800   5.525 -0.0301 -0.3972 -0.1334
  856POPE   GL213102  13.698  13.730   5.446 -0.2234  0.2887  0.2980
  856POPE   C1A13103  13.587  13.600   5.907  0.2141 -0.0257  0.0218
  856POPE   D2A13104  13.722  13.340   6.281  0.1582  0.1528  0.1534
  856POPE   C3A13105  13.739  13.438   6.616  0.0687  0.2981 -0.0214
  856POPE   C4A13106  13.717  13.577   6.993 -0.1237  0.0188 -0.0736
  856POPE   C1B13107  14.003  13.539   5.663  0.1602  0.0505 -0.0645
  856POPE   C2B13108  14.019  13.233   5.802  0.3312  0.3261  0.0161
  856POPE   C3B13109  14.052  12.979   6.127  0.1127 -0.0707 -0.2233
  856POPE   C4B13110  14.332  12.817   6.418 -0.0572  0.1999 -0.0883
  857POPE   NH313111   5.855   7.310   5.547  0.0078 -0.4414  0.0811
  857POPE   PO413112   5.685   7.709   5.670  0.3058  0.0946  0.0005
  857POPE   GL113113   5.867   7.919   6.000 -0.0079 -0.4004  0.1125
  857POPE   GL213114   6.097   7.994   5.995 -0.0225 -0.2559 -0.1112
  857POPE   C1A13115   5.917   8.196   6.409 -0.2296 -0.0015 -0.5694
  857POPE   D2A13116   5.850   8.200   6.850 -0.1504  0.3330 -0.2465
  857POPE   C3A13117   6.064   7.952   7.105 -0.2697  0.0494  0.0921
  857POPE   C4A13118   6.449   7.783   7.167  0.0176 -0.2562  0.0272
  857POPE   C1B13119   6.400   8.183   6.266 -0.1045  0.0686 -0.1474
  857POPE   C2B13120   6.541   8.711   6.330  0.0191  0.0220 -0.3455
  857POPE   C3B13121   6.898   8.988   6.464  0.1462 -0.0301  0.2267
  857POPE   C4B13122   7.061   8.904   6.883 -0.3317 -0.3196 -0.3744
  858POPE   NH313123   6.282  15.596   4.556 -0.4319  0.1002  0.1867
  858POPE   PO413124   6.403  15.783   4.921 -0.0114  0.0491 -0.1509
  858POPE   GL113125   6.459  15.541   5.224  0.2885 -0.2144  0.1631
  858POPE   GL213126   6.448  15.194   5.384 -0.0107 -0.3617  0.3453
  858POPE   C1A13127   6.464  15.643   5.663  0.1754 -0.2589  0.2509
  858POPE   D2A13128   6.422  15.623   6.021 -0.2204 -0.3699 -0.0304
  858POPE   C3A13129   6.426  15.433   6.477 -0.0902 -0.0421 -0.0143
  858POPE   C4A13130   6.603  15.168   6.780 -0.1351 -0.0118  0.0897
  858POPE   C1B13131   6.318  15.164   5.831  0.1586  0.1717 -0.0390
  858POPE   C2B13132   6.060  14.991   6.226  0.2481 -0.0396  0.1218
  858POPE   C3B13133   5.970  14.987   6.591 -0.0832 -0.0319 -0.0735
  858POPE   C4B13134   5.938  14.905   7.043  0.0901 -0.1658  0.0903
  859POPE   NH313135   7.442   6.456   5.376  0.2096  0.2893 -0.2222
  859POPE   PO413136   7.525   6.839   5.315 -0.0965 -0.1642  0.2009
  859POPE   GL113137   7.353   6.970   5.658 -0.2755  0.1428 -0.1579
  859POPE   GL213138   7.190   7.330   5.744  0.1644 -0.1115  0.0624
  859POPE   C1A13139   7.349   6.999   6.126 -0.2189  0.1432  0.1841
  859POPE   D2A13140   7.449   6.994   6.601 -0.0047  0.3984  0.3250
  859POPE   C3A13141   7.525   7.166   6.912 -0.0753  0.1365 -0.1879
  859POPE   C4A13142   7.963   7.093   7.145 -0.1815  0.3382 -0.0668
  859POPE   C1B13143   6.981   7.423   6.183  0.0999  0.1523 -0.0482
  859POPE   C2B13144   6.871   7.728   6.476  0.2756  0.2153 -0.1995
  859POPE   C3B13145   6.795   8.062   6.532  0.2935 -0.0942 -0.2623
  859POPE   C4B13146   6.907   8.486   6.690 -0.0217  0.0113  0.1541
  860POPE   NH313147   7.519  18.406   4.825  0.1957  0.1224 -0.0335
  860POPE   PO413148   7.571  17.954   4.870 -0.1311  0.0437 -0.0802
  860POPE   GL113149   7.435  18.147   5.218  0.1521 -0.1025 -0.0735
  860POPE   GL213150   7.663  18.176   5.395  0.1264 -0.0386  0.0580
  860POPE   C1A13151   7.044  18.216   5.449 -0.3382 -0.1902 -0.0384
  860POPE   D2A13152   6.568  18.415   5.579 -0.0196 -0.1726 -0.0340
  860POPE   C3A13153   6.530  18.786   5.727  0.3873 -0.0312 -0.1517
  860POPE   C4A13154   6.484  19.017   6.189  0.0263  0.0722  0.1444
  860POPE   C1B13155   7.418  18.040   5.742 -0.3322  0.2397  0.1248
  860POPE   C2B13156   7.091  18.191   5.958  0.1196  0.0797 -0.2465
  860POPE   C3B13157   6.724  18.431   6.126  0.0218 -0.2208  0.0969
  860POPE   C4B13158   6.534  18.397   6.626 -0.2740  0.3835  0.0931
  861POPE   NH313159   0.728   3.730   5.173  0.1661  0.1452  0.5132
  861POPE   PO413160   1.079   4.035   5.185  0.1450  0.0907  0.1807
  861POPE   GL113161   1.067   3.781   5.565 -0.1458 -0.1371  0.0309
  861POPE   GL213162   0.959   3.453   5.522  0.1852 -0.1321 -0.1802
  861POPE   C1A13163   0.879   3.658   5.955  0.2396  0.3415  0.0906
  861POPE   D2A13164   0.647   3.432   6.289 -0.0053 -0.1330 -0.1641
  861POPE   C3A13165   0.670   3.039   6.195 -0.0113 -0.0573 -0.0319
  861POPE   C4A13166   0.889   2.670   6.460  0.3241  0.0473  0.3556
  861POPE   C1B13167   1.159   3.202   5.882  0.0683  0.0945 -0.1308
  861POPE   C2B13168   1.240   2.844   6.142 -0.2813 -0.0146 -0.2323
  861POPE   C3B13169   1.404   2.735   6.608  0.0664 -0.3386  0.2680
  861POPE   C4B13170   1.332   2.326   6.743  0.0641 -0.0389 -0.1358
  862POPE   NH313171   9.605  13.127   4.844  0.1949  0.3006  0.0827
  862POPE   PO413172   9.915  13.024   5.209 -0.0103 -0.2075  0.0151
  862POPE   GL113173  10.074  12.789   5.646  0.0330 -0.0417  0.3265
  862POPE   GL213174  10.139  12.450   5.593  0.0485 -0.1185  0.0999
  862POPE   C1A13175  10.270  12.670   6.026 -0.0675 -0.1048 -0.3683
  862POPE   D2A13176  10.353  12.634   6.437  0.2285  0.0047 -0.0339
  862POPE   C3A13177   9.994  12.509   6.723 -0.1078  0.1290  0.0043
  862POPE   C4A13178   9.807  12.214   7.142 -0.2629 -0.0656 -0.1239
  862POPE   C1B13179   9.975  12.030   5.818  0.3010  0.2527 -0.0780
  862POPE   C2B13180   9.812  11.786   6.097 -0.0460 -0.3922  0.1251
  862POPE   C3B13181   9.986  11.486   6.356  0.0170  0.2251 -0.1109
  862POPE   C4B13182   9.932  11.011   6.520 -0.0903 -0.1765 -0.1110
  863POPE   NH313183  18.646   3.250   5.157 -0.0250  0.1448  0.0528
  863POPE   PO413184  18.756   3.683   4.951  0.2787  0.3170  0.2581
  863POPE   GL113185  18.384   3.692   5.213 -0.1692  0.1839 -0.1443
  863POPE   GL213186  18.097   3.676   5.262 -0.0540 -0.0464  0.1031
  863POPE   C1A13187  18.427   3.826   5.646 -0.1011 -0.0324 -0.1457
  863POPE   D2A13188  18.176   3.766   6.052  0.1202  0.1531 -0.0866
  863POPE   C3A13189  17.744   3.898   6.103 -0.1298  0.1532  0.0837
  863POPE   C4A13190  17.551   4.048   5.665  0.0788 -0.3760 -0.0989
  863POPE   C1B13191  17.941   3.724   5.591 -0.0398  0.0399 -0.4359
  863POPE   C2B13192  18.015   4.198   5.867 -0.1903  0.1106 -0.0605
  863POPE   C3B13193  18.172   4.218   6.279  0.0637  0.1180 -0.4115
  863POPE   C4B13194  17.965   4.267   6.691  0.2171  0.2937 -0.2996
  864POPE   NH313195   0.231  10.198   6.026  0.2528  0.1411 -0.3716
  864POPE   PO413196   0.040  10.401   5.668 -0.3288  0.0445 -0.1074
  864POPE   GL113197  -0.232  10.361   6.009 -0.1134  0.0527  0.1446
  864POPE   GL213198  -0.274  10.160   6.270 -0.2982  0.1906  0.4558
  864POPE   C1A13199  -0.404  10.750   6.345 -0.2740  0.0219 -0.3733
  864POPE   D2A13200  -0.605  11.186   6.581  0.1665 -0.0906  0.1243
  864POPE   C3A13201  -0.488  11.374   6.818  0.0435  0.2525 -0.0019
  864POPE   C4A13202  -0.501  11.724   6.976 -0.1965 -0.1743  0.0078
  864POPE   C1B13203  -0.236   9.999   6.648  0.0980 -0.0061  0.1022
  864POPE   C2B13204  -0.215  10.266   6.963 -0.0595  0.2020  0.2991
  864POPE   C3B13205  -0.328  10.560   7.296 -0.0196  0.1682  0.1955
  864POPE   C4B13206  -0.518  10.812   7.667  0.4247  0.0468 -0.1426
  865POPE   NH313207  11.024  10.367   5.337 -0.1740  0.2611 -0.0822
  865POPE   PO413208  10.962  10.836   5.330  0.1842 -0.1478  0.1866
  865POPE   GL113209  11.000  10.711   5.789  0.5044 -0.1016  0.0080
  865POPE   GL213210  11.114  10.843   5.958 -0.1884  0.0070  0.0909
  865POPE   C1A13211  10.820  10.590   6.254  0.2318 -0.1110  0.2076
  865POPE   D2A13212  10.754  10.294   6.554 -0.0813 -0.2264 -0.0296
  865POPE   C3A13213  10.870  10.305   6.854  0.0986 -0.2157  0.2153
  865POPE   C4A13214  10.993  10.150   7.212 -0.0231  0.0389  0.0746
  865POPE   C1B13215  11.345  10.990   6.324  0.0349  0.1016 -0.0586
  865POPE   C2B13216  11.362  11.150   6.776 -0.0361  0.1351  0.2098
  865POPE   C3B13217  11.091  11.486   6.914  0.0754  0.2416 -0.0975
  865POPE   C4B13218  11.052  11.722   7.353 -0.2112  0.0662  0.4804
  866POPE   NH313219   3.385   8.823   5.127  0.1285 -0.2367 -0.0578
  866POPE   PO413220   3.005   8.771   5.311  0.1382 -0.2310 -0.0037
  866POPE   GL113221   2.836   9.070   5.652 -0.2233  0.0286 -0.0381
  866POPE   GL213222   2.970   9.361   5.675  0.2812 -0.1311 -0.2664
  866POPE   C1A13223   2.940   8.982   6.010 -0.2229  0.2532  0.1364
  866POPE   D2A13224   2.762   9.003   6.502  0.2218  0.2005 -0.2791
  866POPE   C3A13225   2.960   9.245   6.756  0.0577  0.0692 -0.1997
  866POPE   C4A13226   3.288   9.198   7.081 -0.2215 -0.4068  0.3040
  866POPE   C1B13227   2.706   9.376   6.034  0.3505  0.1746 -0.0397
  866POPE   C2B13228   2.367   9.657   6.228  0.0699 -0.2862  0.3297
  866POPE   C3B13229   2.552  10.026   6.445 -0.3046  0.2564  0.0288
  866POPE   C4B13230   2.953  10.149   6.658  0.0312  0.0764 -0.0260
  867POPE   NH313231  17.900  10.827   5.358 -0.0427 -0.0019  0.0273
  867POPE   PO413232  17.811  11.229   5.073 -0.0340  0.6431 -0.0187
  867POPE   GL113233  17.983  11.364   5.548 -0.2012  0.1438 -0.0919
  867POPE   GL213234  17.795  11.147   5.794  0.0394  0.2408  0.0470
  867POPE   C1A13235  18.259  11.396   5.818 -0.1490  0.0577 -0.3024
  867POPE   D2A13236  18.447  11.443   6.172  0.3362  0.0443  0.1174
  867POPE   C3A13237  18.546  11.139   6.516  0.0380 -0.2087 -0.1039
  867POPE   C4A13238  18.652  11.100   6.947 -0.0719 -0.0922 -0.4181
  867POPE   C1B13239  17.684  11.136   6.141  0.0215  0.0429  0.1076
  867POPE   C2B13240  17.548  11.415   6.397  0.2278 -0.2166  0.2320
  867POPE   C3B13241  17.402  11.684   6.762 -0.0166  0.1533  0.1638
  867POPE   C4B13242  17.285  12.059   6.958 -0.2087  0.1269 -0.1344
  868POPE   NH313243  14.816  17.167   4.682 -0.1306  0.1341  0.2011
  868POPE   PO413244  15.154  16.849   4.782  0.1621 -0.3076  0.0423
  868POPE   GL113245  14.961  17.010   5.150  0.1587 -0.0930 -0.0465
  868POPE   GL213246  15.097  17.345   5.192 -0.2586 -0.2284 -0.0731
  868POPE   C1A13247  14.815  17.115   5.494  0.0420  0.0871 -0.1721
  868POPE   D2A13248  14.793  16.815   5.842 -0.0073 -0.1601  0.1774
  868POPE   C3A13249  15.177  16.548   5.952 -0.0560 -0.3865  0.0929
  868POPE   C4A13250  15.608  16.409   6.171  0.0099  0.1484  0.2750
  868POPE   C1B13251  15.307  17.485   5.599  0.0538 -0.0459  0.2498
  868POPE   C2B13252  15.389  17.469   6.141 -0.0460 -0.2096  0.1407
  868POPE   C3B13253  15.277  17.305   6.638  0.1553  0.0130  0.1371
  868POPE   C4B13254  15.192  17.024   6.954  0.1357 -0.3989 -0.2954
  869POPE   NH313255   8.017  19.051   5.081  0.0588 -0.0641  0.2040
  869POPE   PO413256   7.749  18.729   5.178  0.3783  0.1239 -0.0576
  869POPE   GL113257   7.529  18.800   5.433 -0.0919 -0.1629 -0.1294
  869POPE   GL213258   7.428  18.545   5.584 -0.0666  0.2506 -0.2811
  869POPE   C1A13259   7.097  18.938   5.592 -0.3462 -0.1257  0.1892
  869POPE   D2A13260   6.992  19.165   5.901  0.3956 -0.1448  0.2549
  869POPE   C3A13261   6.946  19.322   6.346  0.2231 -0.1316  0.2752
  869POPE   C4A13262   6.541  19.348   6.590 -0.2998 -0.1694 -0.3361
  869POPE   C1B13263   7.245  18.655   6.004  0.0518  0.3716 -0.0258
  869POPE   C2B13264   7.144  18.542   6.458  0.2415 -0.0047 -0.2996
  869POPE   C3B13265   7.079  18.230   6.838 -0.0565  0.1832 -0.0239
  869POPE   C4B13266   6.782  18.127   7.094  0.0210 -0.1283 -0.2418
  870POPE   NH313267   7.514  10.616   4.795  0.0816 -0.0997  0.4220
  870POPE   PO413268   7.284  10.229   4.750  0.1227  0.3029  0.0858
  870POPE   GL113269   7.255  10.292   5.166  0.2811 -0.0171 -0.0764
  870POPE   GL213270   7.030  10.302   5.251  0.2453  0.0306 -0.1866
  870POPE   C1A13271   7.380  10.084   5.518  0.1831 -0.2501 -0.3583
  870POPE   D2A13272   7.609   9.904   5.812 -0.2948  0.0408  0.0102
  870POPE   C3A13273   7.977  10.066   5.753  0.0129 -0.0357 -0.0328
  870POPE   C4A13274   8.066  10.511   5.596  0.1352  0.0539  0.0124
  870POPE   C1B13275   7.045  10.546   5.614  0.0887  0.2662 -0.0294
  870POPE   C2B13276   6.955  10.833   5.980  0.0497 -0.0665  0.2801
  870POPE   C3B13277   6.823  11.094   6.253 -0.0791 -0.1525  0.0239
  870POPE   C4B13278   6.863  11.191   6.606 -0.1493 -0.1529  0.1784
  871POPE   NH313279  18.837   1.664   4.392  0.0415  0.0614  0.0659
  871POPE   PO413280  18.772   1.530   4.789 -0.0043  0.0919 -0.2263
  871POPE   GL113281  18.908   1.367   5.208  0.1020  0.4569  0.1672
  871POPE   GL213282  19.204   1.374   5.293  0.3333  0.0604 -0.0834
  871POPE   C1A13283  18.748   1.476   5.658  0.3330 -0.0305  0.2015
  871POPE   D2A13284  18.535   1.442   6.027  0.1090  0.4203  0.3193
  871POPE   C3A13285  18.728   1.131   6.168 -0.0892 -0.1540 -0.0597
  871POPE   C4A13286  18.771   1.093   6.605  0.1311  0.3892 -0.2211
  871POPE   C1B13287  19.220   1.361   5.750  0.0588 -0.0245  0.1648
  871POPE   C2B13288  19.222   1.684   6.045 -0.0497  0.0260 -0.1682
  871POPE   C3B13289  19.405   1.811   6.321 -0.1150 -0.3509 -0.1139
  871POPE   C4B13290  19.681   1.757   6.726  0.1659 -0.1061 -0.0342
  872POPE   NH313291   0.952  16.451   5.344 -0.1986 -0.1393  0.1739
  872POPE   PO413292   1.185  16.756   5.406 -0.2030 -0.0123 -0.0379
  872POPE   GL113293   1.222  16.563   5.763 -0.2710 -0.0886 -0.0777
  872POPE   GL213294   1.513  16.741   5.797 -0.3465 -0.2204  0.2833
  872POPE   C1A13295   1.006  16.330   6.011  0.1713  0.1030  0.1755
  872POPE   D2A13296   0.635  16.407   6.294 -0.0671  0.0625  0.1372
  872POPE   C3A13297   0.634  16.506   6.711  0.1781  0.2351 -0.0145
  872POPE   C4A13298   0.732  16.561   7.192 -0.2101 -0.0517  0.1892
  872POPE   C1B13299   1.390  16.737   6.263 -0.0623  0.1039  0.0222
  872POPE   C2B13300   1.098  16.489   6.526  0.2194 -0.0090 -0.0951
  872POPE   C3B13301   1.112  16.191   6.863 -0.1538  0.0938 -0.3225
  872POPE   C4B13302   1.352  15.926   7.209  0.2095  0.0466 -0.2118
  873POPE   NH313303  17.570  15.616   4.980 -0.2517 -0.2459  0.2183
  873POPE   PO413304  17.211  15.232   4.945  0.1951 -0.1887  0.0914
  873POPE   GL113305  17.321  15.426   5.318 -0.1279  0.0144 -0.2172
  873POPE   GL213306  17.326  15.709   5.443 -0.1666  0.2080  0.1291
  873POPE   C1A13307  17.513  15.398   5.799 -0.2476  0.1403 -0.2825
  873POPE   D2A13308  17.311  15.524   6.118  0.1003  0.0572  0.3326
  873POPE   C3A13309  17.653  15.943   6.063  0.0317 -0.0083 -0.0401
  873POPE   C4A13310  17.846  16.319   6.237  0.0210 -0.1248  0.3702
  873POPE   C1B13311  17.760  15.772   5.661 -0.1163  0.1663  0.0906
  873POPE   C2B13312  18.128  15.951   5.744 -0.1733 -0.0683  0.0300
  873POPE   C3B13313  18.307  16.199   6.066 -0.1005 -0.0641  0.0943
  873POPE   C4B13314  18.523  16.215   6.481  0.0057 -0.2778  0.2116
  874YOPE   NH313315   6.940  16.651   5.101  0.1793  0.2037 -0.0274
  874YOPE   PO413316   7.241  16.342   5.126  0.0849  0.0313  0.1434
  874YOPE   GL113317   7.090  16.111   5.533  0.0755 -0.2220  0.0570
  874YOPE   GL213318   6.942  15.821   5.547  0.1655  0.2195  0.3604
  874YOPE   C1A13319   7.045  16.396   5.920 -0.2282  0.2770 -0.0655
  874YOPE   D2A13320   7.112  16.429   6.375  0.1015 -0.0474 -0.0642
  874YOPE   C3A13321   7.416  16.684   6.566 -0.0712  0.1356 -0.1515
  874YOPE   C4A13322   7.690  16.938   6.738  0.0975  0.0125 -0.1129
  874YOPE   C1B13323   6.818  15.894   5.931 -0.1732 -0.1055  0.0303
  874YOPE   C2B13324   6.757  15.817   6.330  0.3076 -0.2843  0.0646
  874YOPE   D3B13325   6.794  15.992   6.754 -0.1067 -0.2084 -0.1692
  874YOPE   C4B13326   7.133  15.844   7.037 -0.1758 -0.2814 -0.0196
  875YOPE   NH313327   8.415   4.050   5.271 -0.0216 -0.1782 -0.2687
  875YOPE   PO413328   8.686   4.435   5.341  0.2688 -0.1346 -0.2218
  875YOPE   GL113329   8.473   4.339   5.763  0.5199  0.3203 -0.0963
  875YOPE   GL213330   8.199   4.471   5.864 -0.1582  0.2548 -0.3502
  875YOPE   C1A13331   8.590   4.284   6.167  0.0296 -0.3078  0.0644
  875YOPE   D2A13332   8.935   4.213   6.370 -0.0412  0.2043 -0.2146
  875YOPE   C3A13333   9.317   4.422   6.400 -0.3417  0.0313  0.0801
  875YOPE   C4A13334   9.675   4.331   6.255  0.0474 -0.2195  0.4623
  875YOPE   C1B13335   8.089   4.320   6.278  0.0548  0.0636  0.0654
  875YOPE   C2B13336   8.292   4.144   6.555 -0.2430  0.4253 -0.2034
  875YOPE   D3B13337   8.439   3.839   6.924 -0.0300  0.2780 -0.3173
  875YOPE   C4B13338   8.550   3.579   7.147 -0.1927  0.1076 -0.1227
  876YOPE   NH313339  19.002  14.199   5.395  0.1193 -0.3197  0.0889
  876YOPE   PO413340  19.346  13.873   5.083  0.0545  0.2881 -0.0915
  876YOPE   GL113341  19.222  13.737   5.510 -0.2157 -0.0306 -0.0432
  876YOPE   GL213342  19.248  14.010   5.780  0.3642  0.0023  0.1316
  876YOPE   C1A13343  19.210  13.438   5.932  0.2800 -0.1382  0.0786
  876YOPE   D2A13344  18.921  13.077   6.256 -0.1671  0.3026 -0.0797
  876YOPE   C3A13345  18.578  12.919   6.068 -0.3405 -0.0150 -0.0568
  876YOPE   C4A13346  18.409  13.061   5.790  0.1127 -0.1972  0.1684
  876YOPE   C1B13347  19.427  13.925   6.048 -0.0379  0.2368 -0.1179
  876YOPE   C2B13348  19.625  13.621   6.232 -0.1799 -0.2339  0.1184
  876YOPE   D3B13349  19.748  13.606   6.678  0.0442  0.0808  0.0410
  876YOPE   C4B13350  19.888  13.563   7.084 -0.0845 -0.0041 -0.1251
  877YOPE   NH313351  18.640   1.014   5.002  0.0125  0.0815 -0.0075
  877YOPE   PO413352  19.135   1.009   4.914  0.0192 -0.0397 -0.1631
  877YOPE   GL113353  18.982   0.913   5.421 -0.2441  0.2098 -0.0581
  877YOPE   GL213354  18.619   0.945   5.522 -0.0593  0.4969 -0.3095
  877YOPE   C1A13355  19.120   0.872   5.891 -0.0209 -0.0564 -0.4623
  877YOPE   D2A13356  19.228   0.870   6.359  0.1146  0.0635  0.0512
  877YOPE   C3A13357  19.283   1.339   6.544 -0.0595 -0.0865 -0.1789
  877YOPE   C4A13358  19.204   1.384   7.028 -0.2051 -0.0212  0.1253
  877YOPE   C1B13359  18.645   0.691   5.872 -0.0000 -0.1403 -0.1248
  877YOPE   C2B13360  18.744   0.532   6.276  0.4811 -0.1520 -0.1600
  877YOPE   D3B13361  18.811   0.595   6.813  0.0649 -0.1684 -0.1013
  877YOPE   C4B13362  19.050   0.482   7.190 -0.3096  0.1403  0.0820
  878YOPE   NH313363   4.138  15.390   4.837  0.0537 -0.0234  0.0216
  878YOPE   PO413364   4.415  15.653   4.729 -0.0589  0.0230  0.0921
  878YOPE   GL113365   4.742  15.802   5.023  0.2692  0.1112  0.0641
  878YOPE   GL213366   4.897  15.819   5.184 -0.0561 -0.0227 -0.0143
  878YOPE   C1A13367   4.599  15.591   5.441 -0.3637  0.2015  0.0034
  878YOPE   D2A13368   4.570  15.465   5.868 -0.1480 -0.4056  0.2070
  878YOPE   C3A13369   4.397  15.824   6.081 -0.3658 -0.2328  0.2859
  878YOPE   C4A13370   4.114  16.073   6.408 -0.0868  0.2267  0.4145
  878YOPE   C1B13371   5.064  15.550   5.662  0.1759  0.0101 -0.0556
  878YOPE   C2B13372   4.954  15.761   6.023 -0.2727  0.0354 -0.2631
  878YOPE   D3B13373   4.711  15.688   6.534 -0.2855 -0.1947 -0.1872
  878YOPE   C4B13374   4.788  15.586   7.078  0.0745  0.0367  0.1148
  879YOPE   NH313375  12.807  19.358   4.550 -0.1429 -0.1644  0.1922
  879YOPE   PO413376  12.876  19.421   4.942 -0.0435 -0.0515  0.0291
  879YOPE   GL113377  12.707  19.370   5.309  0.0600 -0.0220 -0.0456
  879YOPE   GL213378  12.991  19.397   5.570  0.0100 -0.0929 -0.2154
  879YOPE   C1A13379  12.467  19.485   5.761 -0.1727  0.1839  0.0320
  879YOPE   D2A13380  12.684  19.598   6.134 -0.2299 -0.0467 -0.0261
  879YOPE   C3A13381  12.408  19.834   6.429  0.0302  0.0472  0.0716
  879YOPE   C4A13382  12.171  20.204   6.504  0.3495  0.2633  0.2859
  879YOPE   C1B13383  13.126  19.352   5.918  0.6819  0.0351  0.0169
  879YOPE   C2B13384  13.358  19.424   6.284  0.1426  0.1331  0.3660
  879YOPE   D3B13385  13.252  19.292   6.669  0.0046  0.0842 -0.1924
  879YOPE   C4B13386  12.986  18.919   6.795 -0.3477  0.0459 -0.0919
  880YOPE   NH313387  15.422   6.641   5.406  0.0323 -0.3075 -0.0505
  880YOPE   PO413388  15.818   6.455   5.397  0.0472  0.1723  0.1140
  880YOPE   GL113389  15.691   6.218   5.775  0.2445  0.1506  0.0258
  880YOPE   GL213390  15.405   6.335   5.838 -0.0168 -0.0622  0.0318
  880YOPE   C1A13391  15.626   6.208   6.249 -0.0846  0.0181  0.1754
  880YOPE   D2A13392  15.662   5.999   6.615 -0.0444 -0.1093  0.1351
  880YOPE   C3A13393  15.406   6.020   6.906 -0.1650  0.1608  0.0774
  880YOPE   C4A13394  15.133   6.340   7.088  0.1218 -0.2190 -0.0012
  880YOPE   C1B13395  15.162   6.275   6.150 -0.1847 -0.1412 -0.0904
  880YOPE   C2B13396  15.101   6.328   6.583  0.0624  0.0041  0.2915
  880YOPE   D3B13397  15.141   6.765   6.837  0.4634 -0.1856  0.4870
  880YOPE   C4B13398  14.767   7.078   6.714 -0.1076  0.0148  0.0978
  881YOPE   NH313399   0.256  10.898   5.677 -0.0191  0.1123  0.3248
  881YOPE   PO413400   0.566  10.488   5.728  0.0299  0.0033  0.2065
  881YOPE   GL113401   0.382  10.680   6.155  0.2261 -0.0081  0.2134
  881YOPE   GL213402   0.105  10.804   6.175  0.1119 -0.0200  0.3102
  881YOPE   C1A13403   0.530  10.531   6.483 -0.0665  0.1812 -0.1096
  881YOPE   D2A13404   0.607  10.181   6.864 -0.2343 -0.1017 -0.1488
  881YOPE   C3A13405   0.813  10.096   7.318  0.0657  0.0126  0.0181
  881YOPE   C4A13406   0.982   9.969   7.679 -0.3258 -0.2316 -0.1430
  881YOPE   C1B13407   0.075  10.614   6.636 -0.2110 -0.2575 -0.1048
  881YOPE   C2B13408   0.244  10.622   7.027  0.1330  0.3266  0.1801
  881YOPE   D3B13409   0.078  10.711   7.340 -0.3710  0.0338  0.1479
  881YOPE   C4B13410  -0.088  10.995   7.526  0.0530  0.1885  0.0967
  882YOPE   NH313411  11.740   6.600   4.562 -0.2743 -0.1160  0.0084
  882YOPE   PO413412  11.767   6.710   5.033 -0.0541  0.3518  0.2402
  882YOPE   GL113413  12.084   6.676   5.270 -0.1633 -0.3294  0.2890
  882YOPE   GL213414  12.067   6.340   5.353  0.1307  0.0723  0.0971
  882YOPE   C1A13415  12.521   6.295   5.524  0.2250 -0.0019  0.0448
  882YOPE   D2A13416  12.418   5.950   5.790  0.0546 -0.1984 -0.1012
  882YOPE   C3A13417  12.225   5.950   6.155  0.0137 -0.0181  0.0308
  882YOPE   C4A13418  11.810   5.958   6.277 -0.2352 -0.2939 -0.3870
  882YOPE   C1B13419  12.032   6.338   5.833  0.2595  0.1571 -0.0262
  882YOPE   C2B13420  12.070   6.444   6.311  0.0699  0.1264 -0.1708
  882YOPE   D3B13421  12.215   6.435   6.725 -0.0209 -0.1374 -0.0470
  882YOPE   C4B13422  12.425   6.047   6.868  0.0253 -0.1228 -0.2764
  883YOPE   NH313423   6.603  19.433   4.810 -0.1577 -0.5281  0.1362
  883YOPE   PO413424   6.602  19.920   4.804 -0.1743 -0.1328 -0.0792
  883YOPE   GL113425   6.645  19.874   5.209 -0.0459 -0.2123 -0.3201
  883YOPE   GL213426   6.442  20.187   5.272  0.1353 -0.2992 -0.1194
  883YOPE   C1A13427   6.415  19.732   5.571 -0.0685 -0.0697 -0.2938
  883YOPE   D2A13428   6.139  19.748   5.898 -0.2082 -0.1320 -0.3466
  883YOPE   C3A13429   6.183  19.463   6.128 -0.0843  0.3426 -0.2235
  883YOPE   C4A13430   6.003  19.325   6.490 -0.2802 -0.1124 -0.2214
  883YOPE   C1B13431   6.455  20.189   5.787  0.0024 -0.1126  0.0438
  883YOPE   C2B13432   6.548  20.373   6.122 -0.1190  0.1188 -0.0123
  883YOPE   D3B13433   6.508  20.423   6.579  0.1876  0.1307  0.1099
  883YOPE   C4B13434   6.683  20.281   7.129 -0.1667 -0.2142  0.2477
  884YOPE   NH313435  14.554   9.938   5.194  0.2794  0.0186 -0.3651
  884YOPE   PO413436  14.917   9.734   5.285  0.0296  0.0199 -0.3445
  884YOPE   GL113437  15.172   9.580   5.709 -0.0122 -0.1898  0.0650
  884YOPE   GL213438  15.077   9.244   5.696 -0.1830  0.1449 -0.0305
  884YOPE   C1A13439  15.272   9.855   6.068 -0.0042 -0.2385 -0.2695
  884YOPE   D2A13440  15.514  10.026   6.344 -0.2402 -0.1761  0.2630
  884YOPE   C3A13441  15.427   9.822   6.722 -0.0779 -0.0491  0.3579
  884YOPE   C4A13442  15.629  10.042   6.990 -0.3430  0.2068  0.1653
  884YOPE   C1B13443  14.972   9.429   6.122 -0.0003  0.0105  0.0581
  884YOPE   C2B13444  14.732   9.843   6.121  0.3781 -0.3660  0.3145
  884YOPE   D3B13445  14.603  10.293   6.297 -0.2959 -0.3272  0.1371
  884YOPE   C4B13446  14.870  10.679   6.534 -0.0091 -0.1241 -0.1365
  885YOPE   NH313447   6.376   1.652   4.934 -0.1637 -0.0546  0.0385
  885YOPE   PO413448   6.459   1.304   4.719 -0.1321  0.2387 -0.0767
  885YOPE   GL113449   6.454   1.169   5.241  0.0485 -0.0494 -0.0648
  885YOPE   GL213450   6.595   1.466   5.346  0.1925  0.3988  0.1378
  885YOPE   C1A13451   6.518   1.000   5.559  0.0469 -0.3386  0.0596
  885YOPE   D2A13452   6.647   1.260   5.965  0.0300 -0.2824 -0.1725
  885YOPE   C3A13453   6.562   1.197   6.390 -0.0014 -0.1580  0.0226
  885YOPE   C4A13454   6.351   1.416   6.619 -0.3839 -0.2113  0.1370
  885YOPE   C1B13455   6.964   1.267   5.542 -0.0985 -0.0444 -0.1020
  885YOPE   C2B13456   6.943   0.844   5.717  0.0615  0.0666 -0.1980
  885YOPE   D3B13457   7.242   0.609   6.041  0.0426  0.0643 -0.2002
  885YOPE   C4B13458   7.462   0.781   6.489  0.0501 -0.0822  0.0646
  886YOPE   NH313459  14.823  13.741   5.015  0.1255  0.1511 -0.1032
  886YOPE   PO413460  15.032  13.777   5.462  0.3237 -0.1135 -0.1294
  886YOPE   GL113461  14.761  13.548   5.704  0.1271  0.0590 -0.0809
  886YOPE   GL213462  14.504  13.730   5.786  0.1236  0.0289 -0.3069
  886YOPE   C1A13463  14.771  13.618   6.197 -0.1163  0.2004  0.2388
  886YOPE   D2A13464  14.993  13.397   6.570 -0.2359  0.1738  0.1269
  886YOPE   C3A13465  15.305  13.127   6.734 -0.1356  0.1185  0.1047
  886YOPE   C4A13466  15.277  13.187   7.205  0.0295 -0.0867  0.0751
  886YOPE   C1B13467  14.248  13.518   6.098 -0.0883  0.1332 -0.1385
  886YOPE   C2B13468  14.497  13.315   6.443  0.1679 -0.1860  0.0440
  886YOPE   D3B13469  14.571  13.195   6.831  0.0754  0.1123  0.2427
  886YOPE   C4B13470  14.527  13.080   7.273 -0.1797 -0.1606 -0.1218
  887YOPE   NH313471   4.188  12.004   5.581  0.2285  0.2049 -0.0576
  887YOPE   PO413472   3.881  11.728   5.733  0.1503  0.1671  0.1832
  887YOPE   GL113473   3.752  12.139   5.888  0.4318 -0.0585 -0.0074
  887YOPE   GL213474   3.677  12.000   6.216  0.0263 -0.2745 -0.2822
  887YOPE   C1A13475   3.768  12.555   6.121 -0.3770 -0.3246  0.0931
  887YOPE   D2A13476   3.915  12.543   6.494  0.0374  0.0741 -0.0329
  887YOPE   C3A13477   3.919  12.717   6.935 -0.2709  0.1005 -0.2039
  887YOPE   C4A13478   4.206  12.886   7.309  0.1086 -0.0761 -0.1373
  887YOPE   C1B13479   3.942  12.047   6.559  0.0092 -0.2396 -0.2046
  887YOPE   C2B13480   4.180  12.181   6.957 -0.2899  0.1363 -0.1325
  887YOPE   D3B13481   4.106  12.388   7.395  0.0403  0.3571 -0.1829
  887YOPE   C4B13482   3.861  12.288   7.706 -0.0096 -0.0914 -0.0122
  888YOPE   NH313483   1.499   4.085   4.957 -0.1651 -0.1147  0.2296
  888YOPE   PO413484   1.669   3.800   4.684 -0.0530 -0.1191  0.2511
  888YOPE   GL113485   1.776   3.712   5.141 -0.2076 -0.0432  0.3108
  888YOPE   GL213486   2.001   3.485   5.180 -0.1395  0.0208 -0.0475
  888YOPE   C1A13487   1.745   3.638   5.590  0.0341 -0.0634  0.1865
  888YOPE   D2A13488   1.866   3.613   6.076 -0.1399 -0.1524  0.1427
  888YOPE   C3A13489   2.209   3.911   6.387 -0.0434 -0.5060 -0.0477
  888YOPE   C4A13490   2.290   3.829   6.745 -0.0926  0.4004  0.2328
  888YOPE   C1B13491   2.162   3.364   5.579  0.2550  0.2435 -0.2683
  888YOPE   C2B13492   2.410   3.281   5.915 -0.1872 -0.2970 -0.0137
  888YOPE   D3B13493   2.472   3.485   6.205  0.4388  0.2385 -0.1812
  888YOPE   C4B13494   2.748   3.530   6.542 -0.1251  0.0597 -0.0455
  889YOPE   NH313495  17.910   2.861   5.019  0.0222  0.4650  0.1755
  889YOPE   PO413496  18.100   3.189   5.078 -0.1446  0.0043  0.2749
  889YOPE   GL113497  17.837   3.285   5.437  0.0070 -0.2010  0.2369
  889YOPE   GL213498  17.599   3.051   5.524 -0.1675  0.0679 -0.0017
  889YOPE   C1A13499  17.553   3.424   5.791 -0.1963 -0.2810 -0.3209
  889YOPE   D2A13500  17.487   3.377   6.122  0.1726  0.1110 -0.1599
  889YOPE   C3A13501  17.673   3.585   6.472  0.3281  0.1100  0.0398
  889YOPE   C4A13502  18.010   3.746   6.528 -0.1269  0.2524 -0.1195
  889YOPE   C1B13503  17.636   2.932   5.899 -0.0895 -0.2694  0.1506
  889YOPE   C2B13504  17.955   2.725   6.229 -0.3064  0.1301  0.1477
  889YOPE   D3B13505  18.243   2.612   6.436  0.2095 -0.0369 -0.3352
  889YOPE   C4B13506  18.548   2.977   6.413 -0.0275  0.0462  0.1324
  890YOPE   NH313507   3.540  17.945   5.340  0.0085  0.0501 -0.2600
  890YOPE   PO413508   3.793  18.107   4.957  0.1392  0.0856  0.1700
  890YOPE   GL113509   4.068  17.710   5.211  0.3130 -0.1648 -0.3604
  890YOPE   GL213510   4.293  17.419   5.100  0.0067  0.3245 -0.0951
  890YOPE   C1A13511   4.071  17.635   5.582 -0.1687  0.1871 -0.1616
  890YOPE   D2A13512   4.315  17.396   5.918 -0.1259  0.3825 -0.2653
  890YOPE   C3A13513   4.405  16.936   6.062 -0.1516  0.1905  0.0048
  890YOPE   C4A13514   4.852  16.820   6.386  0.0027 -0.1683  0.0278
  890YOPE   C1B13515   4.183  17.074   5.295 -0.1379 -0.4615 -0.2061
  890YOPE   C2B13516   4.311  16.669   5.563  0.1095 -0.4189 -0.0403
  890YOPE   D3B13517   4.478  16.379   5.896 -0.0810 -0.0245 -0.1309
  890YOPE   C4B13518   4.711  16.164   6.233  0.1836  0.0252  0.0393
  891YOPE   NH313519  17.944   5.711   5.237  0.2412 -0.1072  0.3022
  891YOPE   PO413520  17.530   5.646   5.128  0.2060  0.2008  0.1279
  891YOPE   GL113521  17.479   5.697   5.595  0.1982  0.0871  0.0376
  891YOPE   GL213522  17.179   5.947   5.605  0.0723 -0.0965 -0.1676
  891YOPE   C1A13523  17.463   5.471   5.978  0.2217 -0.0369 -0.1537
  891YOPE   D2A13524  17.336   5.432   6.385 -0.1265  0.0297 -0.2074
  891YOPE   C3A13525  16.944   5.505   6.358  0.1892  0.1967  0.1047
  891YOPE   C4A13526  16.548   5.640   6.163  0.0075 -0.1504 -0.0404
  891YOPE   C1B13527  17.091   5.906   6.091  0.1776  0.2483 -0.1965
  891YOPE   C2B13528  17.138   6.051   6.561 -0.0929  0.0390 -0.2119
  891YOPE   D3B13529  17.201   6.010   6.999  0.4162  0.0163  0.0380
  891YOPE   C4B13530  17.479   5.813   7.289  0.0667 -0.1106 -0.2650
  892YOPE   NH313531  18.254   9.347   5.519 -0.0035  0.0097  0.3605
  892YOPE   PO413532  18.359   9.821   5.585  0.5381 -0.2393 -0.1300
  892YOPE   GL113533  18.237   9.752   6.002 -0.0174  0.1964  0.0488
  892YOPE   GL213534  18.043  10.057   5.999  0.0959  0.0532  0.1521
  892YOPE   C1A13535  18.323   9.464   6.253 -0.1070 -0.1356  0.0773
  892YOPE   D2A13536  18.308   9.543   6.674 -0.2274 -0.1301 -0.2140
  892YOPE   C3A13537  18.011   9.692   6.941 -0.0877  0.1220 -0.0212
  892YOPE   C4A13538  17.777  10.012   7.185 -0.1709 -0.0847 -0.0752
  892YOPE   C1B13539  17.959   9.997   6.518  0.0555  0.1259  0.0032
  892YOPE   C2B13540  17.792  10.220   6.734 -0.2188  0.1247  0.0607
  892YOPE   D3B13541  17.723  10.450   7.111  0.1830 -0.2998 -0.1685
  892YOPE   C4B13542  17.650  10.771   7.450  0.1450  0.0880  0.1809
  893YOPE   NH313543  13.031  16.134   4.819  0.0421  0.3381 -0.0148
  893YOPE   PO413544  13.065  15.649   4.861 -0.0558 -0.1965  0.1420
  893YOPE   GL113545  13.025  15.548   5.393 -0.1336  0.0645 -0.2269
  893YOPE   GL213546  12.837  15.280   5.422 -0.0080  0.2133 -0.1546
  893YOPE   C1A13547  12.780  15.551   5.813 -0.1699  0.0842  0.2386
  893YOPE   D2A13548  12.801  15.615   6.292  0.2290  0.1578  0.1187
  893YOPE   C3A13549  13.226  15.761   6.347 -0.0206  0.0255 -0.1666
  893YOPE   C4A13550  13.565  15.757   6.669  0.1146  0.2906 -0.0877
  893YOPE   C1B13551  12.863  14.950   5.712  0.4716  0.0607 -0.0283
  893YOPE   C2B13552  12.564  14.888   5.896  0.0957  0.0246 -0.0434
  893YOPE   D3B13553  12.321  14.564   5.664  0.3136  0.2539 -0.2603
  893YOPE   C4B13554  12.181  14.219   5.616 -0.0897  0.2098 -0.0028
  894YOPE   NH313555   8.903  19.487   5.029  0.0865  0.2084  0.6657
  894YOPE   PO413556   8.464  19.224   4.934  0.0451  0.0137  0.1876
  894YOPE   GL113557   8.611  19.212   5.340 -0.1484  0.1733 -0.3128
  894YOPE   GL213558   8.461  18.955   5.384 -0.0418  0.4004  0.0361
  894YOPE   C1A13559   8.772  19.073   5.739 -0.1697 -0.0319  0.0909
  894YOPE   D2A13560   8.698  19.093   6.170  0.0801  0.2646 -0.2393
  894YOPE   C3A13561   8.630  19.333   6.625 -0.0014  0.1194 -0.0771
  894YOPE   C4A13562   8.343  19.373   7.063  0.0346  0.0106 -0.0735
  894YOPE   C1B13563   8.329  19.271   5.766  0.0747  0.1851 -0.1798
  894YOPE   C2B13564   8.204  19.266   6.148  0.3503 -0.1944  0.1355
  894YOPE   D3B13565   8.261  19.066   6.462  0.3164  0.2123  0.1011
  894YOPE   C4B13566   8.410  18.832   6.865  0.2681  0.1369  0.0432
  895YOPE   NH313567   5.405  10.939   5.339 -0.2515 -0.0051 -0.0240
  895YOPE   PO413568   5.689  10.704   5.409 -0.3581  0.0584  0.1490
  895YOPE   GL113569   5.858  10.482   5.650  0.1023  0.0682 -0.2468
  895YOPE   GL213570   6.041  10.258   5.503  0.1607  0.1356  0.0065
  895YOPE   C1A13571   5.949  10.597   6.048 -0.2999 -0.1979 -0.1960
  895YOPE   D2A13572   6.041  10.344   6.428  0.1354 -0.2111 -0.2280
  895YOPE   C3A13573   5.931  10.150   6.882  0.0784 -0.0011 -0.0802
  895YOPE   C4A13574   5.737   9.827   7.126  0.1080  0.1413  0.2175
  895YOPE   C1B13575   6.021   9.923   5.821  0.5032 -0.1159  0.0300
  895YOPE   C2B13576   5.726   9.906   6.219  0.2007  0.1688 -0.0117
  895YOPE   D3B13577   5.728   9.750   6.573 -0.0528 -0.0022 -0.0934
  895YOPE   C4B13578   5.915   9.416   6.752 -0.0359 -0.1761  0.0863
  896YOPE   NH313579  15.172   3.702   4.868  0.3554 -0.4087 -0.2354
  896YOPE   PO413580  15.346   4.138   4.912 -0.0412  0.0584 -0.0783
  896YOPE   GL113581  15.345   3.919   5.281  0.0192  0.3207 -0.0809
  896YOPE   GL213582  15.207   4.064   5.465  0.0726  0.0110  0.1464
  896YOPE   C1A13583  15.308   3.617   5.640  0.0467 -0.3705 -0.1946
  896YOPE   D2A13584  15.449   3.251   5.788 -0.1940 -0.1783  0.0219
  896YOPE   C3A13585  15.847   3.270   5.984  0.1422  0.1845 -0.1978
  896YOPE   C4A13586  15.930   3.473   6.398  0.2206  0.0096 -0.2064
  896YOPE   C1B13587  15.134   4.340   6.024  0.0078 -0.1822 -0.1270
  896YOPE   C2B13588  14.905   4.437   6.475  0.1587  0.0868 -0.0159
  896YOPE   D3B13589  14.886   4.008   6.782 -0.1966  0.0500 -0.0304
  896YOPE   C4B13590  14.630   3.834   7.149  0.0950 -0.3253  0.4475
  897YOPE   NH313591   5.025   5.314   5.195  0.0376  0.0628  0.2887
  897YOPE   PO413592   4.677   5.615   5.165 -0.2349 -0.0202  0.2148
  897YOPE   GL113593   4.738   5.506   5.582 -0.2361 -0.1146 -0.1544
  897YOPE   GL213594   4.925   5.609   5.736  0.3658  0.0599  0.3335
  897YOPE   C1A13595   4.768   5.206   5.986 -0.0587 -0.0104  0.1130
  897YOPE   D2A13596   5.078   5.120   6.425 -0.1639  0.0154  0.1352
  897YOPE   C3A13597   5.122   5.081   6.823 -0.0381 -0.1299  0.0894
  897YOPE   C4A13598   4.995   5.128   7.373 -0.1547  0.1333  0.1247
  897YOPE   C1B13599   4.855   5.626   6.262  0.0297 -0.0363 -0.2392
  897YOPE   C2B13600   4.776   5.655   6.653 -0.2342  0.0786  0.3021
  897YOPE   D3B13601   4.833   5.895   6.938  0.4310  0.0786  0.3173
  897YOPE   C4B13602   4.812   6.189   7.280  0.0901 -0.0846  0.1507
  898YOPE   NH313603  16.750  14.982   4.973  0.3068  0.2033  0.0130
  898YOPE   PO413604  16.720  15.429   4.789  0.1771  0.1308 -0.1925
  898YOPE   GL113605  16.841  15.423   5.199 -0.2799 -0.3030 -0.3369
  898YOPE   GL213606  16.828  15.173   5.430  0.0859 -0.0291 -0.1457
  898YOPE   C1A13607  16.892  15.647   5.676 -0.1676  0.0906 -0.0680
  898YOPE   D2A13608  16.818  15.414   6.177 -0.0535 -0.0650  0.2488
  898YOPE   C3A13609  16.647  15.725   6.447  0.1526 -0.0409  0.2519
  898YOPE   C4A13610  16.544  15.587   6.844  0.1158 -0.0030 -0.2770
  898YOPE   C1B13611  16.525  15.239   5.788  0.2556  0.6645  0.4248
  898YOPE   C2B13612  16.108  15.378   5.741  0.1594 -0.0570  0.1708
  898YOPE   D3B13613  15.675  15.532   5.732 -0.1574  0.0681 -0.1672
  898YOPE   C4B13614  15.342  15.678   6.062 -0.0616  0.0908  0.3425
  899YOPE   NH313615   4.505  14.738   5.096 -0.0276  0.3281 -0.0002
  899YOPE   PO413616   4.499  14.312   5.136  0.2155  0.2188 -0.2283
  899YOPE   GL113617   4.393  14.374   5.573 -0.0853  0.4315 -0.0413
  899YOPE   GL213618   4.156  14.601   5.496  0.1301  0.4038 -0.1090
  899YOPE   C1A13619   4.492  14.323   5.985 -0.2947  0.1203  0.1809
  899YOPE   D2A13620   4.801  14.505   6.259  0.0894  0.0659  0.1219
  899YOPE   C3A13621   4.728  14.527   6.681  0.3630 -0.2870 -0.3931
  899YOPE   C4A13622   5.146  14.512   6.844  0.1912  0.0272  0.0825
  899YOPE   C1B13623   4.115  14.637   6.045  0.1971 -0.0857 -0.5270
  899YOPE   C2B13624   3.920  14.800   6.499 -0.2017  0.3042 -0.0630
  899YOPE   D3B13625   3.767  15.184   6.611  0.3013  0.1541 -0.0459
  899YOPE   C4B13626   3.421  15.475   6.620  0.0308 -0.0327 -0.1771
  900YOPE   NH313627  12.951   7.836   5.368  0.0870  0.5150  0.1086
  900YOPE   PO413628  13.363   7.514   5.286 -0.0409 -0.2140  0.0032
  900YOPE   GL113629  13.494   7.292   5.642 -0.1294  0.0073 -0.1472
  900YOPE   GL213630  13.826   7.405   5.742 -0.1462  0.0096 -0.0498
  900YOPE   C1A13631  13.536   7.059   6.102  0.1642  0.6368  0.1194
  900YOPE   D2A13632  13.185   7.082   6.380 -0.1337  0.1034  0.0016
  900YOPE   C3A13633  12.900   7.428   6.496  0.1571  0.2227 -0.0836
  900YOPE   C4A13634  12.903   7.755   6.293  0.2819  0.2295 -0.0944
  900YOPE   C1B13635  14.053   7.246   6.044 -0.4564  0.1262 -0.3313
  900YOPE   C2B13636  14.022   7.009   6.433 -0.0862 -0.1576  0.0065
  900YOPE   D3B13637  14.053   7.076   6.871 -0.1619  0.1719  0.3045
  900YOPE   C4B13638  14.006   6.988   7.290  0.2603  0.0056  0.1318
  901YOPE   NH313639  15.685  11.823   5.228 -0.0481 -0.2035  0.0991
  901YOPE   PO413640  15.503  12.011   5.512  0.0489  0.0191 -0.1075
  901YOPE   GL113641  15.442  12.059   5.929 -0.1134  0.2265  0.0566
  901YOPE   GL213642  15.258  11.718   6.127  0.0939 -0.0266  0.2115
  901YOPE   C1A13643  15.504  12.445   6.183 -0.2003 -0.0199 -0.1454
  901YOPE   D2A13644  15.769  12.766   6.186 -0.0571 -0.4699 -0.3164
  901YOPE   C3A13645  15.734  13.158   6.081  0.3299  0.1798 -0.2306
  901YOPE   C4A13646  15.887  13.612   6.119  0.1601  0.0433 -0.1594
  901YOPE   C1B13647  15.424  11.950   6.537 -0.0895 -0.1338 -0.0737
  901YOPE   C2B13648  15.711  12.118   6.458 -0.0115  0.0407 -0.2231
  901YOPE   D3B13649  15.924  12.408   6.701  0.0936  0.2700  0.2916
  901YOPE   C4B13650  15.900  12.581   7.104  0.0883 -0.3010 -0.2444
  902YOPE   NH313651   8.447  18.244   4.806  0.0268  0.2701 -0.1970
  902YOPE   PO413652   8.842  18.293   5.066 -0.0149  0.1236  0.2838
  902YOPE   GL113653   8.624  18.278   5.483  0.1357 -0.1298  0.4623
  902YOPE   GL213654   8.725  17.973   5.462  0.3992 -0.1963 -0.2650
  902YOPE   C1A13655   8.592  18.607   5.720  0.1525 -0.0604  0.0526
  902YOPE   D2A13656   8.370  18.691   6.137 -0.0973  0.0943  0.1280
  902YOPE   C3A13657   8.161  18.484   6.475  0.2199 -0.0238 -0.1462
  902YOPE   C4A13658   8.290  18.212   6.951  0.6556 -0.3652 -0.0596
  902YOPE   C1B13659   8.614  18.110   5.915 -0.2833  0.0675 -0.0991
  902YOPE   C2B13660   8.545  18.243   6.344  0.2790 -0.0852 -0.0594
  902YOPE   D3B13661   8.715  18.260   6.777  0.1510 -0.0269 -0.0150
  902YOPE   C4B13662   8.796  18.132   7.158 -0.1540  0.1751 -0.3455
  903YOPE   NH313663   4.107  15.809   4.337  0.0160 -0.2192  0.0449
  903YOPE   PO413664   3.987  16.258   4.593 -0.0004  0.3451 -0.2008
  903YOPE   GL113665   3.893  16.128   5.022  0.2933 -0.1904  0.1381
  903YOPE   GL213666   4.052  15.849   5.079 -0.0363 -0.1346  0.2642
  903YOPE   C1A13667   3.793  16.244   5.414  0.1397 -0.0562  0.0715
  903YOPE   D2A13668   3.811  16.503   5.764  0.0025  0.2916  0.1770
  903YOPE   C3A13669   3.896  16.483   6.168 -0.2907  0.3091 -0.3014
  903YOPE   C4A13670   3.807  16.456   6.650  0.0689  0.1117 -0.3232
  903YOPE   C1B13671   3.963  15.557   5.443  0.4745 -0.1054  0.1419
  903YOPE   C2B13672   4.022  15.486   5.844 -0.0205  0.3432 -0.0059
  903YOPE   D3B13673   3.984  15.623   6.287  0.2630 -0.1520  0.0410
  903YOPE   C4B13674   3.840  15.648   6.778 -0.0351  0.4122 -0.1080
  904YOPE   NH313675   1.786  17.144   4.965 -0.3411 -0.1749  0.0002
  904YOPE   PO413676   1.472  17.505   5.306  0.2348  0.2593  0.0239
  904YOPE   GL113677   1.417  17.355   5.772  0.0004 -0.3148  0.0516
  904YOPE   GL213678   1.198  17.145   5.825  0.2521 -0.0711 -0.1169
  904YOPE   C1A13679   1.590  17.678   5.981  0.0372  0.0635 -0.1176
  904YOPE   D2A13680   1.844  18.085   6.018  0.2549  0.1691  0.0513
  904YOPE   C3A13681   1.631  18.382   6.346  0.0737 -0.0867  0.0364
  904YOPE   C4A13682   1.815  18.649   6.691 -0.0231  0.2588  0.2128
  904YOPE   C1B13683   0.969  17.352   6.115 -0.2050 -0.0847  0.2375
  904YOPE   C2B13684   0.669  17.563   6.176  0.0875 -0.0092  0.0856
  904YOPE   D3B13685   0.586  17.475   6.602 -0.0490  0.1813 -0.0703
  904YOPE   C4B13686   0.726  17.325   6.868  0.0570  0.2522 -0.4081
  905YOPE   NH313687   2.467  14.737   4.848 -0.0480  0.4418 -0.1823
  905YOPE   PO413688   2.597  15.117   4.892 -0.2047  0.1863 -0.0349
  905YOPE   GL113689   2.639  15.365   5.281 -0.0502 -0.0486  0.1768
  905YOPE   GL213690   2.922  15.354   5.272 -0.0481 -0.4561 -0.0386
  905YOPE   C1A13691   2.514  15.562   5.631  0.1001  0.0167 -0.0219
  905YOPE   D2A13692   2.360  15.817   5.932  0.0012 -0.0207 -0.0732
  905YOPE   C3A13693   2.643  15.742   6.324  0.1030  0.2154  0.0665
  905YOPE   C4A13694   2.633  15.683   6.667  0.0013 -0.4399 -0.1012
  905YOPE   C1B13695   3.026  15.746   5.504 -0.1494 -0.2716  0.0753
  905YOPE   C2B13696   3.132  15.938   5.951 -0.2913 -0.3155 -0.0321
  905YOPE   D3B13697   3.073  15.917   6.460 -0.0211  0.1747  0.2148
  905YOPE   C4B13698   3.091  15.813   6.875 -0.0440 -0.0251  0.4317
  906YOPE   NH313699  10.279  12.709   5.177 -0.1843  0.0018  0.0881
  906YOPE   PO413700  10.609  12.574   5.235  0.0294  0.0148 -0.0713
  906YOPE   GL113701  10.598  12.800   5.615 -0.1839  0.1398 -0.0422
  906YOPE   GL213702  10.806  12.580   5.678 -0.1972  0.1623  0.0347
  906YOPE   C1A13703  10.881  13.029   5.934  0.3001  0.1659  0.0362
  906YOPE   D2A13704  10.880  12.791   6.294 -0.0958 -0.2231  0.0927
  906YOPE   C3A13705  10.791  12.876   6.673 -0.0226 -0.2365  0.3014
  906YOPE   C4A13706  10.426  12.919   6.895 -0.1646  0.0389  0.1885
  906YOPE   C1B13707  10.985  12.398   5.938  0.0811  0.1356 -0.0891
  906YOPE   C2B13708  11.226  12.377   6.359 -0.1018  0.1619  0.2715
  906YOPE   D3B13709  11.098  12.496   6.743 -0.0311 -0.2126 -0.0351
  906YOPE   C4B13710  10.788  12.548   7.101  0.2870 -0.3322 -0.2236
  907YOPE   NH313711  16.870   4.759   5.180 -0.1952 -0.0837 -0.1802
  907YOPE   PO413712  17.187   4.679   5.406 -0.0498  0.3005  0.0082
  907YOPE   GL113713  17.197   4.513   5.814  0.1315  0.0066 -0.0983
  907YOPE   GL213714  16.956   4.286   5.778  0.1473 -0.1535 -0.0336
  907YOPE   C1A13715  17.634   4.483   6.142 -0.1779  0.2509 -0.0566
  907YOPE   D2A13716  17.971   4.645   6.339 -0.0605  0.2479 -0.3818
  907YOPE   C3A13717  18.202   4.860   6.744 -0.1845 -0.0995 -0.0091
  907YOPE   C4A13718  18.121   5.082   7.183  0.1846  0.0271  0.3579
  907YOPE   C1B13719  17.107   4.181   6.212 -0.2603 -0.0616 -0.2292
  907YOPE   C2B13720  17.506   4.200   6.538  0.0058  0.0406 -0.0565
  907YOPE   D3B13721  17.527   3.952   6.921 -0.3324  0.1854  0.1142
  907YOPE   C4B13722  17.755   3.541   6.955  0.0148  0.0307  0.1613
  908YOPE   NH313723  19.554  12.470   5.288  0.2668  0.3494 -0.0502
  908YOPE   PO413724  19.703  12.071   5.382  0.1211  0.1594 -0.1409
  908YOPE   GL113725  19.549  12.213   5.697  0.0124 -0.2680  0.1874
  908YOPE   GL213726  19.385  12.556   5.706  0.1881 -0.1407 -0.1058
  908YOPE   C1A13727  19.410  11.835   6.002  0.0920  0.1210  0.1613
  908YOPE   D2A13728  19.807  11.783   6.141  0.1860 -0.0893  0.3834
  908YOPE   C3A13729  19.960  11.597   6.561  0.1513 -0.1223  0.1141
  908YOPE   C4A13730  20.121  11.593   6.924  0.2328  0.0084  0.3511
  908YOPE   C1B13731  19.390  12.665   6.084  0.1902  0.1566  0.1190
  908YOPE   C2B13732  19.503  12.959   6.270 -0.1562  0.0962 -0.1033
  908YOPE   D3B13733  19.378  13.315   6.519  0.0366 -0.0589 -0.1932
  908YOPE   C4B13734  19.285  13.593   6.749 -0.0836  0.1235  0.0151
  909YOPE   NH313735  13.275  16.940   4.656 -0.1323  0.1795  0.1456
  909YOPE   PO413736  12.928  16.645   4.873 -0.1483  0.1055  0.1398
  909YOPE   GL113737  12.606  16.693   5.201 -0.0790  0.0108 -0.2973
  909YOPE   GL213738  12.795  16.864   5.471  0.1687 -0.1513 -0.2461
  909YOPE   C1A13739  12.399  16.311   5.422 -0.1441 -0.0784  0.1785
  909YOPE   D2A13740  12.013  16.094   5.440  0.0893 -0.1839 -0.0097
  909YOPE   C3A13741  11.872  16.304   5.751  0.2574 -0.1654 -0.2718
  909YOPE   C4A13742  11.992  16.297   6.209 -0.0928  0.2042 -0.1339
  909YOPE   C1B13743  12.951  16.964   5.788 -0.0870 -0.1227 -0.0617
  909YOPE   C2B13744  13.094  17.057   6.178  0.2117 -0.1855 -0.2152
  909YOPE   D3B13745  13.093  17.210   6.582  0.2240 -0.3236  0.4540
  909YOPE   C4B13746  12.798  17.530   6.851  0.1351 -0.2500 -0.2216
  910YOPE   NH313747   2.483   6.116   5.532  0.0138 -0.2532  0.2603
  910YOPE   PO413748   2.347   5.677   5.549  0.1681  0.3820  0.3003
  910YOPE   GL113749   2.219   5.850   5.935  0.0783 -0.0347 -0.2179
  910YOPE   GL213750   1.987   5.629   5.939 -0.1405  0.0855 -0.2420
  910YOPE   C1A13751   2.198   5.916   6.418 -0.0385  0.1875 -0.1258
  910YOPE   D2A13752   2.169   5.884   6.858 -0.2315  0.1568  0.1493
  910YOPE   C3A13753   2.296   5.438   6.833  0.3385 -0.1652  0.3101
  910YOPE   C4A13754   2.446   5.008   7.062  0.4103 -0.2815 -0.1032
  910YOPE   C1B13755   1.892   5.508   6.431 -0.0204  0.0777  0.0733
  910YOPE   C2B13756   1.827   5.411   6.938 -0.1079  0.2619  0.1224
  910YOPE   D3B13757   1.518   5.362   7.252 -0.4332 -0.0953  0.3612
  910YOPE   C4B13758   1.386   4.998   7.431 -0.1803  0.2120 -0.0894
  911YOPE   NH313759   6.922   6.527   5.435 -0.0995 -0.0997 -0.4423
  911YOPE   PO413760   6.514   6.238   5.515 -0.0469 -0.2449 -0.0842
  911YOPE   GL113761   6.363   6.033   5.928 -0.1785  0.0295  0.0206
  911YOPE   GL213762   6.499   5.668   5.812 -0.0638  0.0888  0.0360
  911YOPE   C1A13763   6.465   6.018   6.343  0.2374 -0.3219 -0.1892
  911YOPE   D2A13764   6.571   5.660   6.664 -0.0044 -0.1131  0.2978
  911YOPE   C3A13765   6.269   5.372   6.865  0.1166 -0.0061  0.0827
  911YOPE   C4A13766   6.051   5.136   7.162 -0.1643  0.2372  0.2184
  911YOPE   C1B13767   6.251   5.423   6.062 -0.0701 -0.2210 -0.0323
  911YOPE   C2B13768   5.902   5.283   6.144 -0.0557 -0.4947 -0.0569
  911YOPE   D3B13769   5.610   4.997   6.288 -0.1937 -0.3273  0.0884
  911YOPE   C4B13770   5.565   4.686   6.545  0.1000  0.0987  0.1625
  912YOPE   NH313771   8.317   1.439   5.167  0.1321 -0.0432 -0.0385
  912YOPE   PO413772   7.983   1.395   4.904  0.1872 -0.1188 -0.1346
  912YOPE   GL113773   7.898   1.165   5.322  0.3220 -0.3549 -0.0528
  912YOPE   GL213774   8.069   0.828   5.372 -0.1434 -0.0238  0.0990
  912YOPE   C1A13775   7.923   1.333   5.769  0.3072 -0.3851  0.0372
  912YOPE   D2A13776   8.022   1.324   6.196 -0.3281 -0.2807 -0.3894
  912YOPE   C3A13777   7.948   1.392   6.600 -0.0515 -0.2878  0.1226
  912YOPE   C4A13778   7.880   1.377   7.052  0.0477  0.1789 -0.0811
  912YOPE   C1B13779   7.950   0.754   5.851 -0.1908  0.3493 -0.0786
  912YOPE   C2B13780   7.910   0.832   6.323 -0.0123 -0.0599  0.1171
  912YOPE   D3B13781   8.002   0.879   6.767 -0.0693  0.1142 -0.1587
  912YOPE   C4B13782   8.289   0.960   7.128  0.1835  0.3500 -0.1670
  913YOPE   NH313783  17.588  12.893   5.064  0.1626  0.1247  0.2356
  913YOPE   PO413784  17.391  12.494   5.244 -0.2159 -0.2133  0.3502
  913YOPE   GL113785  17.580  12.358   5.590  0.2722  0.3448  0.2880
  913YOPE   GL213786  17.317  12.144   5.706  0.1671 -0.2792  0.0922
  913YOPE   C1A13787  17.695  12.327   6.014  0.2210 -0.1122 -0.1584
  913YOPE   D2A13788  17.748  12.287   6.463 -0.0792 -0.1334 -0.0009
  913YOPE   C3A13789  17.882  11.904   6.542 -0.0575  0.2701  0.0407
  913YOPE   C4A13790  18.176  11.650   6.661 -0.0286 -0.0589 -0.2789
  913YOPE   C1B13791  17.194  12.357   6.108  0.0144  0.1538  0.0951
  913YOPE   C2B13792  16.979  12.771   6.201  0.0473  0.1839  0.3552
  913YOPE   D3B13793  16.792  13.088   6.317 -0.0891  0.5040 -0.0325
  913YOPE   C4B13794  16.886  13.508   6.254  0.3415 -0.1734 -0.2030
  914YOPE   NH313795  16.094   7.907   5.462  0.0369  0.2125 -0.0228
  914YOPE   PO413796  16.527   7.707   5.405 -0.0815  0.2377 -0.0372
  914YOPE   GL113797  16.728   7.553   5.731 -0.1267 -0.0820 -0.0096
  914YOPE   GL213798  16.711   7.757   6.047 -0.1529  0.2397  0.3015
  914YOPE   C1A13799  16.529   7.326   6.074 -0.0154  0.3725  0.1225
  914YOPE   D2A13800  16.648   7.317   6.418 -0.0538  0.1966 -0.1994
  914YOPE   C3A13801  16.655   7.699   6.476 -0.0246 -0.5299  0.0304
  914YOPE   C4A13802  16.780   7.712   6.781 -0.0227  0.0444 -0.2139
  914YOPE   C1B13803  16.299   8.009   6.290 -0.1135 -0.2121  0.2680
  914YOPE   C2B13804  16.238   8.308   6.611  0.3054 -0.1987  0.1326
  914YOPE   D3B13805  16.138   8.450   7.059  0.2874  0.2400 -0.1281
  914YOPE   C4B13806  15.944   8.621   7.330  0.1517 -0.0435 -0.1740
  915YOPE   NH313807  12.450  18.909   5.239  0.3056 -0.2277 -0.1819
  915YOPE   PO413808  12.762  18.897   4.855 -0.2552 -0.0893 -0.1946
  915YOPE   GL113809  12.986  18.929   5.262 -0.0883  0.0513  0.2165
  915YOPE   GL213810  12.897  18.882   5.564 -0.0744 -0.3374  0.4389
  915YOPE   C1A13811  13.383  19.024   5.511 -0.0939 -0.2130  0.0325
  915YOPE   D2A13812  13.584  19.123   5.905  0.0267  0.1410 -0.0471
  915YOPE   C3A13813  13.661  18.901   6.199  0.1073 -0.0437 -0.0911
  915YOPE   C4A13814  13.973  18.637   6.288  0.0393 -0.1317 -0.0185
  915YOPE   C1B13815  12.606  18.925   5.785 -0.2035 -0.1901 -0.3437
  915YOPE   C2B13816  12.448  18.746   6.059 -0.3766 -0.1130 -0.1508
  915YOPE   D3B13817  12.250  18.622   6.432  0.0758 -0.2396  0.0530
  915YOPE   C4B13818  11.949  18.764   6.763  0.0369 -0.2697 -0.2333
  916YOPE   NH313819   6.988   2.215   5.182 -0.1074  0.1398  0.2339
  916YOPE   PO413820   6.679   2.031   4.901 -0.0015 -0.1239 -0.1380
  916YOPE   GL113821   6.576   2.025   5.391  0.1641 -0.0816  0.2396
  916YOPE   GL213822   6.361   2.225   5.470  0.2308  0.0608 -0.1220
  916YOPE   C1A13823   6.482   1.830   5.753 -0.0207  0.1811 -0.0346
  916YOPE   D2A13824   6.384   1.634   6.100 -0.0253 -0.5165 -0.2321
  916YOPE   C3A13825   6.383   1.919   6.481  0.0678 -0.0669  0.1645
  916YOPE   C4A13826   6.410   2.303   6.745  0.4241  0.1848  0.0446
  916YOPE   C1B13827   6.468   2.332   5.866 -0.1229 -0.0671  0.1388
  916YOPE   C2B13828   6.587   2.248   6.239 -0.0617  0.0937  0.1633
  916YOPE   D3B13829   6.834   2.086   6.480 -0.0282  0.1765  0.0130
  916YOPE   C4B13830   7.235   1.876   6.585 -0.2357  0.6167 -0.1343
  917YOPE   NH313831   4.947  10.901   4.914  0.0232  0.2295  0.2250
  917YOPE   PO413832   5.157  10.513   5.182  0.1221  0.3871  0.1598
  917YOPE   GL113833   5.106  10.642   5.580  0.0739  0.0483  0.2584
  917YOPE   GL213834   4.947  10.320   5.800  0.1157  0.2100  0.0668
  917YOPE   C1A13835   5.378  10.950   5.935  0.1180  0.0777 -0.0786
  917YOPE   D2A13836   5.361  11.108   6.272  0.0582  0.0015 -0.1445
  917YOPE   C3A13837   5.254  10.946   6.690  0.0762 -0.0820 -0.0504
  917YOPE   C4A13838   5.177  11.029   7.097  0.0318  0.0892 -0.0708
  917YOPE   C1B13839   5.003  10.617   6.091  0.3447  0.0892  0.0657
  917YOPE   C2B13840   5.060  10.445   6.436 -0.0174 -0.0430  0.0949
  917YOPE   D3B13841   5.382  10.150   6.539  0.0110  0.3083  0.0465
  917YOPE   C4B13842   5.418  10.065   6.849  0.2592 -0.0397 -0.3182
  918YOPE   NH313843   6.081  18.620   4.854 -0.1687  0.0088 -0.0952
  918YOPE   PO413844   6.289  18.912   4.979 -0.1244 -0.0124 -0.1595
  918YOPE   GL113845   6.029  18.959   5.398  0.0520 -0.0083  0.1540
  918YOPE   GL213846   5.788  18.681   5.296 -0.3200 -0.0845 -0.0160
  918YOPE   C1A13847   5.981  18.884   5.751  0.2876  0.1769  0.0065
  918YOPE   D2A13848   5.854  19.007   6.104 -0.2218 -0.0253 -0.2661
  918YOPE   C3A13849   5.666  19.465   6.143 -0.0921 -0.2757 -0.1264
  918YOPE   C4A13850   5.660  19.954   6.206 -0.1690 -0.0760 -0.2303
  918YOPE   C1B13851   5.559  18.477   5.595 -0.3332  0.2040 -0.0399
  918YOPE   C2B13852   5.739  18.473   6.051 -0.2310 -0.0296 -0.1649
  918YOPE   D3B13853   5.615  18.734   6.434  0.1507 -0.1079 -0.0417
  918YOPE   C4B13854   5.392  18.755   6.686 -0.0596  0.0251  0.1368
  919YOPE   NH313855  12.807  18.435   5.103 -0.1211  0.0601  0.0304
  919YOPE   PO413856  12.753  18.108   4.921  0.2727  0.3936 -0.1144
  919YOPE   GL113857  12.910  18.024   5.372  0.0500  0.3483  0.1595
  919YOPE   GL213858  13.218  18.093   5.225 -0.2823  0.1820 -0.1885
  919YOPE   C1A13859  12.742  17.895   5.738 -0.0179  0.0442 -0.0294
  919YOPE   D2A13860  12.544  17.780   6.023 -0.2104  0.0665 -0.3094
  919YOPE   C3A13861  12.523  17.735   6.453  0.2301  0.0993 -0.1912
  919YOPE   C4A13862  12.284  17.901   6.769 -0.4194 -0.3181  0.1592
  919YOPE   C1B13863  13.404  17.750   5.632 -0.0536  0.2400 -0.1931
  919YOPE   C2B13864  13.438  17.856   6.052 -0.1344  0.1223  0.0238
  919YOPE   D3B13865  13.557  17.930   6.464 -0.2406  0.1843 -0.2588
  919YOPE   C4B13866  13.803  18.111   6.583 -0.1299  0.1755  0.4041
  920YOPE   NH313867   5.981  11.499   5.145  0.1248  0.3534 -0.0848
  920YOPE   PO413868   5.605  11.437   5.208  0.0590 -0.2140 -0.1931
  920YOPE   GL113869   5.731  11.247   5.520 -0.1366  0.0419 -0.0164
  920YOPE   GL213870   6.146  11.338   5.637  0.1604  0.0637  0.1656
  920YOPE   C1A13871   5.794  11.216   5.936  0.0595 -0.0674  0.1600
  920YOPE   D2A13872   5.865  11.097   6.413 -0.0104  0.3385  0.3650
  920YOPE   C3A13873   6.085  10.968   6.786  0.5846  0.2114 -0.2481
  920YOPE   C4A13874   6.047  10.654   7.010 -0.0517  0.4078 -0.1126
  920YOPE   C1B13875   6.278  11.324   6.131  0.0895 -0.1087 -0.4733
  920YOPE   C2B13876   6.395  11.262   6.513 -0.3940  0.1626 -0.1802
  920YOPE   D3B13877   6.479  11.410   6.893  0.1839 -0.0113  0.0898
  920YOPE   C4B13878   6.241  11.769   7.066  0.0981 -0.1615  0.1393
  921YOPE   NH313879  14.002  17.367   5.056 -0.0327 -0.0819  0.1013
  921YOPE   PO413880  14.041  17.826   4.886  0.0285 -0.2709  0.0466
  921YOPE   GL113881  14.279  18.148   5.065  0.4023  0.1007 -0.1660
  921YOPE   GL213882  14.158  18.328   5.266  0.0284  0.1317  0.0832
  921YOPE   C1A13883  14.615  18.172   5.389  0.3521 -0.2447 -0.3375
  921YOPE   D2A13884  14.570  18.203   5.821 -0.1041 -0.3095  0.2799
  921YOPE   C3A13885  14.569  17.837   5.908 -0.0875  0.0442  0.0091
  921YOPE   C4A13886  14.596  17.571   6.219 -0.1973  0.2459 -0.2875
  921YOPE   C1B13887  14.197  18.536   5.576  0.0647 -0.0706  0.2083
  921YOPE   C2B13888  14.420  18.609   6.005  0.0156 -0.3307 -0.2704
  921YOPE   D3B13889  14.475  18.683   6.419  0.1166  0.2669 -0.0924
  921YOPE   C4B13890  14.618  18.490   6.851 -0.0371 -0.0171  0.0287
  922YOPE   NH313891  14.538   7.376   5.412 -0.1331  0.0905  0.3589
  922YOPE   PO413892  14.136   7.463   5.312  0.2433 -0.1150  0.0260
  922YOPE   GL113893  14.174   7.792   5.613  0.0505 -0.1601 -0.0292
  922YOPE   GL213894  14.269   7.652   5.813 -0.0548  0.3764 -0.0231
  922YOPE   C1A13895  14.318   8.156   5.971  0.1315 -0.0033  0.0635
  922YOPE   D2A13896  14.626   8.490   6.169 -0.1822  0.0512 -0.0480
  922YOPE   C3A13897  14.732   8.452   6.610 -0.0875  0.2855 -0.0942
  922YOPE   C4A13898  14.899   8.834   6.766  0.2205 -0.1338  0.0232
  922YOPE   C1B13899  14.394   7.612   6.276  0.0635 -0.2428  0.3797
  922YOPE   C2B13900  14.436   8.015   6.517 -0.0630 -0.0393 -0.0245
  922YOPE   D3B13901  14.204   8.382   6.552  0.2995  0.3064  0.3508
  922YOPE   C4B13902  13.762   8.396   6.372  0.0832  0.2089 -0.0548
  923YOPE   NH313903   0.636   5.574   4.675 -0.0342 -0.0495  0.2782
  923YOPE   PO413904   0.455   5.707   4.980  0.1447  0.0057 -0.1700
  923YOPE   GL113905   0.564   5.746   5.374 -0.0065  0.0192  0.0073
  923YOPE   GL213906   0.908   5.627   5.449  0.1536 -0.1304 -0.1206
  923YOPE   C1A13907   0.462   5.902   5.755 -0.1554 -0.0230 -0.0466
  923YOPE   D2A13908   0.220   5.773   6.050  0.0242 -0.0689  0.3370
  923YOPE   C3A13909  -0.179   5.988   6.017  0.0702  0.0091 -0.2146
  923YOPE   C4A13910  -0.328   6.189   5.572 -0.1261  0.1519 -0.0578
  923YOPE   C1B13911   1.176   5.455   5.825 -0.3805 -0.0576  0.0170
  923YOPE   C2B13912   1.106   5.313   6.291  0.1822 -0.0974 -0.4195
  923YOPE   D3B13913   0.980   5.088   6.655  0.1760  0.0783  0.1291
  923YOPE   C4B13914   1.132   4.958   6.988 -0.0162 -0.2792 -0.1250
  924YOPE   NH313915   3.383  16.104   4.844  0.1477 -0.1186 -0.3354
  924YOPE   PO413916   3.616  16.525   4.890  0.3661  0.0966 -0.1381
  924YOPE   GL113917   4.060  16.623   5.004  0.1246  0.1370 -0.3043
  924YOPE   GL213918   4.336  16.320   5.149 -0.0318 -0.0867 -0.0152
  924YOPE   C1A13919   4.547  16.842   5.039 -0.3875  0.0860  0.1213
  924YOPE   D2A13920   4.676  17.020   5.400  0.1322 -0.1981  0.0442
  924YOPE   C3A13921   4.562  17.478   5.477  0.3397 -0.0593 -0.2229
  924YOPE   C4A13922   4.764  17.717   5.845 -0.2845 -0.0931 -0.1822
  924YOPE   C1B13923   4.707  16.485   5.352  0.2796 -0.2030  0.2506
  924YOPE   C2B13924   5.067  16.686   5.392  0.1374  0.0133  0.2490
  924YOPE   D3B13925   5.278  16.897   5.638 -0.0214  0.1854  0.0476
  924YOPE   C4B13926   5.231  17.009   6.092  0.3957  0.1318  0.4416
  925YOPE   NH313927  18.945   8.817   5.703 -0.0462 -0.0623  0.2166
  925YOPE   PO413928  19.094   9.220   5.759  0.3608 -0.1439  0.2901
  925YOPE   GL113929  19.069   9.123   6.153 -0.2331 -0.2693  0.1259
  925YOPE   GL213930  19.173   8.925   6.290 -0.1885  0.0938  0.1525
  925YOPE   C1A13931  18.691   9.117   6.490 -0.0663  0.1073  0.1969
  925YOPE   D2A13932  18.650   9.175   6.970 -0.0851  0.0704  0.1471
  925YOPE   C3A13933  18.760   8.803   7.289  0.0755  0.1145  0.1266
  925YOPE   C4A13934  18.976   8.599   7.619  0.3463 -0.2868 -0.0600
  925YOPE   C1B13935  19.089   9.012   6.736  0.2794 -0.4602 -0.2106
  925YOPE   C2B13936  19.167   9.100   7.157  0.0379  0.0093 -0.1606
  925YOPE   D3B13937  19.538   8.956   7.601 -0.1801 -0.1576 -0.0766
  925YOPE   C4B13938  19.920   8.917   7.896  0.2643 -0.1400  0.1006
  926YOPE   NH313939   6.009   8.084   5.452  0.1807  0.0960  0.0744
  926YOPE   PO413940   6.319   8.256   5.228 -0.0103  0.2794  0.3544
  926YOPE   GL113941   6.343   8.508   5.542 -0.0093  0.0268  0.0595
  926YOPE   GL213942   6.291   8.453   5.886 -0.1014 -0.2219  0.1184
  926YOPE   C1A13943   6.344   8.932   5.637 -0.0542  0.1892 -0.2222
  926YOPE   D2A13944   6.095   9.380   5.750 -0.0759 -0.0077  0.1847
  926YOPE   C3A13945   6.047   9.535   6.196  0.2793 -0.1204  0.1350
  926YOPE   C4A13946   6.222   9.787   6.396 -0.1211 -0.0898  0.1732
  926YOPE   C1B13947   6.065   8.732   6.110  0.0890  0.2658 -0.0027
  926YOPE   C2B13948   6.122   9.048   6.346  0.2245 -0.1020  0.1132
  926YOPE   D3B13949   6.378   9.179   6.638  0.1153  0.2202  0.3304
  926YOPE   C4B13950   6.549   9.518   6.766  0.1294  0.0569 -0.2679
  927YOPE   NH313951  12.905   0.594   5.324 -0.4437 -0.2496  0.5426
  927YOPE   PO413952  12.839   0.250   5.492 -0.1295 -0.0022  0.2622
  927YOPE   GL113953  12.653   0.457   5.779 -0.2135 -0.1733  0.1002
  927YOPE   GL213954  12.313   0.294   5.821 -0.1993  0.0397  0.1410
  927YOPE   C1A13955  12.623   0.660   6.147  0.2133 -0.1020 -0.0802
  927YOPE   D2A13956  12.622   0.681   6.640 -0.2252 -0.0800 -0.0950
  927YOPE   C3A13957  12.293   0.567   7.001 -0.1723 -0.1621  0.0532
  927YOPE   C4A13958  12.087   0.221   6.984 -0.0218 -0.1538  0.0366
  927YOPE   C1B13959  12.035   0.095   6.065 -0.0604  0.0146  0.0001
  927YOPE   C2B13960  11.559   0.164   6.297 -0.0881 -0.0998 -0.2109
  927YOPE   D3B13961  11.188   0.340   6.524  0.1435 -0.0089 -0.0772
  927YOPE   C4B13962  11.170   0.182   6.981 -0.5411  0.1364  0.0866
  928YOPE   NH313963  18.373  15.813   4.923  0.1437  0.0842 -0.1077
  928YOPE   PO413964  18.001  16.009   4.961  0.2984  0.1389 -0.1399
  928YOPE   GL113965  17.849  16.184   5.314 -0.0648  0.1223  0.0524
  928YOPE   GL213966  17.716  16.538   5.274  0.4350 -0.2713  0.1656
  928YOPE   C1A13967  17.774  16.290   5.702 -0.0794  0.1035  0.1392
  928YOPE   D2A13968  17.519  16.501   5.911  0.0249 -0.0081  0.1034
  928YOPE   C3A13969  17.251  16.389   6.268  0.0859 -0.2434  0.1739
  928YOPE   C4A13970  17.098  16.521   6.616 -0.2187  0.1292  0.1727
  928YOPE   C1B13971  17.934  16.794   5.584 -0.2744  0.0937  0.2008
  928YOPE   C2B13972  17.949  16.816   6.006 -0.2225  0.1719  0.1249
  928YOPE   D3B13973  18.147  16.673   6.383  0.1889 -0.0376 -0.2540
  928YOPE   C4B13974  18.020  16.469   6.734  0.0304 -0.0049  0.1132
  929YOPE   NH313975  15.587  18.037   5.005  0.1180 -0.0959  0.3551
  929YOPE   PO413976  15.471  17.586   4.972  0.2689 -0.2602  0.1730
  929YOPE   GL113977  15.778  17.646   5.288  0.3448 -0.2025  0.0652
  929YOPE   GL213978  15.891  17.519   5.439 -0.0947  0.1552  0.3028
  929YOPE   C1A13979  15.780  17.894   5.669  0.0685 -0.0739  0.1751
  929YOPE   D2A13980  16.046  18.193   5.957 -0.1346 -0.1315 -0.2425
  929YOPE   C3A13981  16.352  18.443   5.751 -0.2418 -0.2586 -0.0690
  929YOPE   C4A13982  16.659  18.682   5.566 -0.1154 -0.0557 -0.0408
  929YOPE   C1B13983  16.230  17.718   5.644 -0.1782  0.1934  0.0426
  929YOPE   C2B13984  16.476  17.932   5.948  0.1287  0.2156  0.0379
  929YOPE   D3B13985  16.435  18.135   6.375 -0.0492  0.1993 -0.2825
  929YOPE   C4B13986  16.377  18.365   6.780  0.0081  0.0708  0.0716
  930YOPE   NH313987  17.031  12.866   5.085  0.1239 -0.2997 -0.0596
  930YOPE   PO413988  17.230  13.184   5.173  0.2351 -0.1974  0.0247
  930YOPE   GL113989  17.426  13.057   5.547  0.0553 -0.0486  0.3501
  930YOPE   GL213990  17.376  12.828   5.576  0.0329  0.0846  0.1262
  930YOPE   C1A13991  17.675  13.145   5.826  0.1480  0.0109  0.0226
  930YOPE   D2A13992  17.968  13.356   5.996  0.0096 -0.0098 -0.1203
  930YOPE   C3A13993  18.241  13.201   6.304 -0.0750  0.0098  0.0166
  930YOPE   C4A13994  18.402  13.031   6.615 -0.0929 -0.1406  0.0852
  930YOPE   C1B13995  17.457  12.791   6.046  0.2613 -0.1416 -0.1336
  930YOPE   C2B13996  17.397  12.671   6.452 -0.1120  0.0940  0.0998
  930YOPE   D3B13997  17.071  12.952   6.712 -0.1079  0.2220  0.2807
  930YOPE   C4B13998  16.765  13.058   6.913  0.1673 -0.1364  0.1026
  931YOPE   NH313999  13.946  15.273   5.166 -0.3115  0.1796  0.2262
  931YOPE   PO414000  13.653  15.017   4.966  0.2485 -0.0535  0.2274
  931YOPE   GL114001  13.501  14.953   5.355  0.1385  0.1253  0.0582
  931YOPE   GL214002  13.307  15.110   5.370 -0.1302  0.0223  0.1593
  931YOPE   C1A14003  13.666  15.028   5.714 -0.1493 -0.1331  0.2384
  931YOPE   D2A14004  14.011  15.107   5.891  0.0185  0.2204 -0.0641
  931YOPE   C3A14005  14.001  14.956   6.287 -0.0666 -0.1360  0.0094
  931YOPE   C4A14006  14.074  14.984   6.704 -0.3306  0.0888 -0.1369
  931YOPE   C1B14007  13.264  15.241   5.696  0.2865  0.0918  0.0183
  931YOPE   C2B14008  13.125  15.219   6.117  0.5989 -0.0311  0.0257
  931YOPE   D3B14009  12.934  14.925   6.335 -0.1337  0.2291 -0.3000
  931YOPE   C4B14010  12.852  14.561   6.538  0.1121 -0.0153 -0.1029
  932YOPE   NH314011   7.432  11.625   5.133  0.1538 -0.2974 -0.4492
  932YOPE   PO414012   6.992  11.735   5.090 -0.0821 -0.0879  0.0713
  932YOPE   GL114013   6.982  11.709   5.580 -0.2223 -0.0533  0.0513
  932YOPE   GL214014   7.237  11.573   5.591  0.0296  0.1897  0.1011
  932YOPE   C1A14015   7.063  11.858   6.005  0.2345 -0.0084  0.2570
  932YOPE   D2A14016   7.142  11.964   6.450  0.0156 -0.1010  0.0250
  932YOPE   C3A14017   6.907  12.226   6.748 -0.0345 -0.3516  0.0723
  932YOPE   C4A14018   6.524  12.097   6.800  0.3385  0.1764  0.1458
  932YOPE   C1B14019   7.520  11.827   5.806  0.1130  0.3663 -0.0138
  932YOPE   C2B14020   7.616  11.834   6.238 -0.0050 -0.0751 -0.2792
  932YOPE   D3B14021   7.640  11.887   6.676 -0.0068  0.1824  0.0398
  932YOPE   C4B14022   7.961  11.938   6.975  0.0133  0.1521 -0.1918
  933YOPE   NH314023  17.528  19.268   4.790  0.2670  0.1184  0.2237
  933YOPE   PO414024  17.978  19.560   4.810  0.5423  0.0247  0.0031
  933YOPE   GL114025  18.044  19.398   5.192 -0.2397 -0.1787  0.0493
  933YOPE   GL214026  17.709  19.377   5.244 -0.1930 -0.5058 -0.0717
  933YOPE   C1A14027  18.006  19.512   5.681  0.1548  0.0097  0.1766
  933YOPE   D2A14028  17.845  19.550   6.048  0.1264  0.0403 -0.0262
  933YOPE   C3A14029  17.643  19.426   6.415  0.1580 -0.2672  0.1770
  933YOPE   C4A14030  17.263  19.227   6.479  0.1803 -0.1259  0.0947
  933YOPE   C1B14031  17.662  19.021   5.513  0.0201 -0.1471 -0.0672
  933YOPE   C2B14032  17.747  19.028   5.930 -0.0764  0.1587 -0.0642
  933YOPE   D3B14033  17.850  18.887   6.346 -0.1976 -0.1677  0.0354
  933YOPE   C4B14034  18.002  19.285   6.704  0.1027  0.0469 -0.1008
  934YOPE   NH314035  11.988   7.520   5.202 -0.0594 -0.2596  0.2908
  934YOPE   PO414036  12.086   7.992   5.141  0.3348 -0.3281  0.5370
  934YOPE   GL114037  11.863   7.988   5.483 -0.0469 -0.0175  0.2583
  934YOPE   GL214038  12.052   7.757   5.725  0.0331  0.1159 -0.0254
  934YOPE   C1A14039  11.636   7.965   5.834 -0.1195  0.1700 -0.1075
  934YOPE   D2A14040  11.295   7.984   6.032  0.0400  0.1427 -0.4956
  934YOPE   C3A14041  11.089   8.445   5.902 -0.0590  0.1219 -0.0090
  934YOPE   C4A14042  11.256   8.853   5.840 -0.2470 -0.1920 -0.3103
  934YOPE   C1B14043  12.025   7.787   6.162  0.1568 -0.2521 -0.0233
  934YOPE   C2B14044  12.300   7.747   6.676  0.0389  0.0039  0.2924
  934YOPE   D3B14045  12.610   7.553   6.927  0.1038 -0.0963 -0.1923
  934YOPE   C4B14046  12.632   7.333   7.388 -0.0812  0.0946 -0.0854
  935YOPE   NH314047  13.681   1.150   5.041  0.0048 -0.2300  0.1049
  935YOPE   PO414048  14.067   1.364   5.012  0.0062  0.1835 -0.0114
  935YOPE   GL114049  14.214   1.148   5.378  0.1745 -0.3013 -0.0749
  935YOPE   GL214050  14.093   0.978   5.553  0.0232  0.1192 -0.1884
  935YOPE   C1A14051  14.593   0.930   5.456 -0.3607  0.1052 -0.3012
  935YOPE   D2A14052  14.921   0.645   5.636 -0.3083  0.0758 -0.2061
  935YOPE   C3A14053  14.871   0.215   5.831  0.1630 -0.0378  0.1914
  935YOPE   C4A14054  14.778  -0.226   5.858  0.0048 -0.2433 -0.2380
  935YOPE   C1B14055  14.497   1.001   6.016 -0.1659  0.5249 -0.0851
  935YOPE   C2B14056  14.783   1.105   6.385  0.3508  0.0765  0.3459
  935YOPE   D3B14057  15.102   1.390   6.416  0.1532  0.1806 -0.2043
  935YOPE   C4B14058  15.225   1.656   6.719  0.0154 -0.1567  0.1667
  936YOPE   NH314059  11.386   6.866   5.311  0.0764 -0.1584 -0.1183
  936YOPE   PO414060  11.552   7.192   5.103  0.2551 -0.1770  0.1560
  936YOPE   GL114061  11.694   7.244   5.522 -0.2415  0.3519  0.0056
  936YOPE   GL214062  11.518   7.505   5.564 -0.0408 -0.1853 -0.1843
  936YOPE   C1A14063  11.393   7.074   5.919 -0.2332 -0.4121  0.3492
  936YOPE   D2A14064  11.048   6.930   6.046  0.1633 -0.5058 -0.1805
  936YOPE   C3A14065  10.678   7.179   6.156  0.0008  0.1768  0.1510
  936YOPE   C4A14066  10.538   7.217   6.455  0.1505 -0.1119 -0.0393
  936YOPE   C1B14067  11.585   7.520   6.030 -0.0399 -0.1195  0.0276
  936YOPE   C2B14068  11.482   7.634   6.488 -0.2320  0.0638  0.1977
  936YOPE   D3B14069  11.824   7.646   6.756  0.4094 -0.1147 -0.2844
  936YOPE   C4B14070  11.987   7.607   7.203 -0.2454  0.2611  0.0984
  937YOPE   NH314071   8.136  15.822   5.229 -0.1497  0.1393 -0.2513
  937YOPE   PO414072   8.398  15.596   5.380  0.1974 -0.2043  0.1523
  937YOPE   GL114073   8.391  15.621   5.792 -0.0451 -0.1039  0.0975
  937YOPE   GL214074   8.677  15.659   5.900  0.0998  0.1698 -0.1887
  937YOPE   C1A14075   8.237  15.900   6.000 -0.4176 -0.2839  0.1454
  937YOPE   D2A14076   8.211  16.035   6.394  0.3367  0.0226 -0.1960
  937YOPE   C3A14077   8.452  16.049   6.832  0.1028 -0.1818  0.0572
  937YOPE   C4A14078   8.396  15.990   7.298 -0.0394  0.2003  0.1409
  937YOPE   C1B14079   8.808  15.679   6.389 -0.0808  0.0583  0.0604
  937YOPE   C2B14080   8.966  15.597   6.836 -0.0868 -0.2391  0.2416
  937YOPE   D3B14081   9.300  15.445   7.043 -0.1087  0.0176  0.0341
  937YOPE   C4B14082   9.445  15.329   7.423 -0.1971  0.1012  0.0940
  938YOPE   NH314083   5.029   8.338   4.889 -0.0482  0.2460 -0.0385
  938YOPE   PO414084   4.973   8.025   5.131 -0.0414  0.1053 -0.0378
  938YOPE   GL114085   5.044   8.232   5.541  0.0486  0.3040  0.1932
  938YOPE   GL214086   5.308   8.361   5.687  0.1889 -0.1903  0.0301
  938YOPE   C1A14087   4.835   8.034   5.885 -0.0816 -0.0401 -0.2670
  938YOPE   D2A14088   4.915   7.717   6.215 -0.1332  0.0817 -0.2161
  938YOPE   C3A14089   4.555   7.719   6.485 -0.0735 -0.0711 -0.4014
  938YOPE   C4A14090   4.069   7.698   6.521  0.1748  0.0704 -0.0055
  938YOPE   C1B14091   5.124   8.330   6.182  0.3887 -0.1883  0.2176
  938YOPE   C2B14092   5.007   8.098   6.555  0.2385  0.4477 -0.1888
  938YOPE   D3B14093   5.267   7.995   6.956  0.2670 -0.0645  0.0991
  938YOPE   C4B14094   5.590   7.692   7.199  0.1714 -0.0831  0.0760
  939YOPE   NH314095   9.343   4.405   5.398  0.0795 -0.0942  0.0428
  939YOPE   PO414096   9.187   3.939   5.232  0.0384 -0.2669  0.0314
  939YOPE   GL114097   9.319   3.886   5.654 -0.1644  0.0776 -0.0561
  939YOPE   GL214098   9.565   4.145   5.776 -0.1073 -0.0573 -0.3677
  939YOPE   C1A14099   9.468   3.869   6.198  0.0984  0.0013 -0.3718
  939YOPE   D2A14100   9.577   3.853   6.630  0.0518 -0.4570 -0.2460
  939YOPE   C3A14101   9.166   4.078   6.793  0.0755  0.2046  0.0938
  939YOPE   C4A14102   9.103   4.290   7.234  0.2107  0.2362 -0.0721
  939YOPE   C1B14103   9.963   4.254   5.868  0.0630 -0.2858  0.1857
  939YOPE   C2B14104  10.147   4.275   6.335  0.0346  0.0306 -0.1110
  939YOPE   D3B14105   9.983   4.206   6.688  0.0802  0.1953 -0.1069
  939YOPE   C4B14106   9.727   4.099   7.074  0.0514 -0.1725 -0.0325
  940YOPE   NH314107  10.213   4.842   4.659  0.1000  0.0332  0.1719
  940YOPE   PO414108  10.368   4.613   5.035 -0.0159 -0.0289 -0.1329
  940YOPE   GL114109  10.231   4.603   5.499 -0.1660 -0.0700 -0.1063
  940YOPE   GL214110   9.897   4.663   5.600  0.1583 -0.0190 -0.0242
  940YOPE   C1A14111  10.455   4.447   5.883  0.1201 -0.0603 -0.2197
  940YOPE   D2A14112  10.553   4.074   6.135  0.1330 -0.0136  0.1623
  940YOPE   C3A14113  10.410   3.671   5.940 -0.1355 -0.1036 -0.0025
  940YOPE   C4A14114  10.185   3.587   5.665 -0.2099 -0.0574 -0.1043
  940YOPE   C1B14115   9.952   4.756   6.025 -0.3760 -0.1337  0.3265
  940YOPE   C2B14116   9.866   4.795   6.458  0.0478  0.1450 -0.0035
  940YOPE   D3B14117   9.649   4.568   6.835 -0.1408 -0.3374  0.0362
  940YOPE   C4B14118   9.269   4.720   6.921  0.0371 -0.0937 -0.0137
  941YOPE   NH314119   0.200  18.829   4.617  0.2847  0.1481 -0.2047
  941YOPE   PO414120   0.649  18.661   4.607 -0.3533 -0.0650  0.1699
  941YOPE   GL114121   0.568  18.693   5.009  0.0026 -0.0160 -0.1193
  941YOPE   GL214122   0.215  18.521   5.080 -0.3042 -0.3486  0.0522
  941YOPE   C1A14123   0.801  18.743   5.357  0.0068  0.0553  0.1719
  941YOPE   D2A14124   0.882  18.760   5.732  0.0908  0.1665  0.0461
  941YOPE   C3A14125   0.613  19.073   5.939  0.0532  0.1321  0.0657
  941YOPE   C4A14126   0.377  19.338   6.012 -0.2228 -0.5792  0.1936
  941YOPE   C1B14127   0.325  18.437   5.476  0.1110  0.0491  0.0502
  941YOPE   C2B14128   0.444  18.527   5.888  0.3788 -0.4304  0.0077
  941YOPE   D3B14129   0.427  18.362   6.386 -0.3787 -0.1443 -0.1400
  941YOPE   C4B14130   0.343  17.955   6.608  0.0306 -0.0633 -0.4114
  942YOPE   NH314131   2.599  10.526   5.842  0.0732 -0.1528 -0.0010
  942YOPE   PO414132   2.201  10.474   5.582 -0.0099 -0.1479 -0.1313
  942YOPE   GL114133   2.163  10.863   5.945 -0.0156 -0.1490 -0.2567
  942YOPE   GL214134   2.301  11.042   5.844  0.0447 -0.1406  0.1894
  942YOPE   C1A14135   2.009  10.903   6.333  0.3423 -0.3152 -0.2005
  942YOPE   D2A14136   2.043  10.899   6.729  0.0437 -0.0730 -0.0887
  942YOPE   C3A14137   2.349  10.885   6.889 -0.0558 -0.0690 -0.1755
  942YOPE   C4A14138   2.571  11.124   7.264  0.0594  0.1134  0.1882
  942YOPE   C1B14139   2.603  11.007   6.286 -0.3062  0.2767 -0.2777
  942YOPE   C2B14140   2.811  11.004   6.727  0.2765 -0.0484  0.1769
  942YOPE   D3B14141   2.998  10.909   7.128 -0.1313 -0.2728 -0.0751
  942YOPE   C4B14142   2.906  10.743   7.642 -0.0239  0.3542 -0.2353
  943YOPE   NH314143   9.370   6.970   5.660  0.0788  0.1147  0.0130
  943YOPE   PO414144   8.982   7.170   5.506  0.1227  0.1079  0.2673
  943YOPE   GL114145   8.803   7.144   5.890 -0.0650  0.0277 -0.0298
  943YOPE   GL214146   8.935   6.932   5.955  0.3477  0.1947  0.1992
  943YOPE   C1A14147   8.628   7.463   6.223  0.0125  0.4112 -0.1873
  943YOPE   D2A14148   8.548   7.594   6.631 -0.1818  0.0017  0.1571
  943YOPE   C3A14149   8.196   7.646   6.965 -0.0249 -0.1051 -0.1785
  943YOPE   C4A14150   8.043   7.922   7.369 -0.2144  0.1124  0.4085
  943YOPE   C1B14151   9.048   6.848   6.368 -0.2417  0.0480  0.3107
  943YOPE   C2B14152   9.255   6.704   6.605  0.1608 -0.1021 -0.2885
  943YOPE   D3B14153   9.350   6.881   6.939  0.0772 -0.1534 -0.0304
  943YOPE   C4B14154   9.182   7.185   7.310  0.3054 -0.0888 -0.0372
  944POPC   NC314155   3.631  10.451   5.792  0.0558  0.0022 -0.3214
  944POPC   PO414156   3.842  10.721   5.518 -0.0723 -0.1362  0.1276
  944POPC   GL114157   4.020  10.792   5.912  0.0161 -0.2650  0.0434
  944POPC   GL214158   3.967  10.901   6.214  0.1751  0.1976  0.0280
  944POPC   C1A14159   4.343  10.617   6.118 -0.1968  0.2652 -0.1417
  944POPC   D2A14160   4.560  10.454   6.426 -0.3702  0.3384  0.1367
  944POPC   C3A14161   4.813  10.036   6.273 -0.2849  0.0770 -0.0889
  944POPC   C4A14162   4.922   9.824   5.910  0.3637 -0.0450  0.2219
  944POPC   C1B14163   4.024  11.007   6.650 -0.3958  0.2986  0.0490
  944POPC   C2B14164   3.868  11.283   6.901 -0.0716  0.0459 -0.0424
  944POPC   C3B14165   3.950  11.742   6.942  0.2407 -0.0824  0.0640
  944POPC   C4B14166   4.098  11.746   7.457 -0.0244 -0.0329  0.2006
  945POPC   NC314167   1.594   1.150   4.749 -0.0294 -0.0376 -0.1897
  945POPC   PO414168   1.571   1.086   5.155 -0.0996  0.0492  0.1517
  945POPC   GL114169   1.568   1.005   5.630 -0.1316  0.2086  0.2006
  945POPC   GL214170   1.748   1.260   5.707 -0.4026  0.0888 -0.1322
  945POPC   C1A14171   1.325   0.910   5.926 -0.1008 -0.0354 -0.1847
  945POPC   D2A14172   1.152   0.986   6.436  0.2758 -0.0739  0.1739
  945POPC   C3A14173   1.479   1.041   6.741  0.2823 -0.3512 -0.5197
  945POPC   C4A14174   1.848   1.297   6.705 -0.0549  0.0449  0.3128
  945POPC   C1B14175   1.668   1.607   5.870 -0.0081  0.1427 -0.1325
  945POPC   C2B14176   1.499   1.789   6.176 -0.2563  0.0350 -0.4028
  945POPC   C3B14177   1.848   1.982   6.392  0.2557 -0.0239  0.1794
  945POPC   C4B14178   1.800   1.854   6.731 -0.3776 -0.1489 -0.4560
  946POPC   NC314179  10.287  15.992   5.250  0.3732  0.1448  0.1930
  946POPC   PO414180  10.059  15.581   5.134 -0.4208  0.0360 -0.1292
  946POPC   GL114181  10.143  15.749   5.646 -0.0606  0.1120  0.1758
  946POPC   GL214182  10.428  15.826   5.750 -0.0594  0.0405  0.0483
  946POPC   C1A14183  10.084  15.634   6.062  0.1650  0.1466  0.0247
  946POPC   D2A14184  10.041  15.645   6.433 -0.0875 -0.1840  0.3407
  946POPC   C3A14185   9.575  15.584   6.652  0.2234  0.1100 -0.0844
  946POPC   C4A14186   9.226  15.928   6.606 -0.1753  0.0008  0.0555
  946POPC   C1B14187  10.562  15.914   6.113 -0.1345 -0.2515  0.0303
  946POPC   C2B14188  10.862  15.693   6.288 -0.2763  0.2687  0.0478
  946POPC   C3B14189  11.135  15.851   6.541  0.0370  0.0793 -0.2481
  946POPC   C4B14190  11.399  15.803   6.869 -0.2759  0.2237 -0.1042
  947POPC   NC314191   0.522   9.348   5.875 -0.1034  0.2108  0.2438
  947POPC   PO414192   0.271   9.708   5.954 -0.1788 -0.0217  0.3116
  947POPC   GL114193   0.128   9.445   6.174 -0.0163  0.2876 -0.0187
  947POPC   GL214194   0.009   9.186   6.034 -0.1998  0.0068 -0.1874
  947POPC   C1A14195   0.344   9.206   6.594 -0.3348 -0.0958  0.2764
  947POPC   D2A14196   0.573   9.108   6.972  0.2216  0.1038  0.1631
  947POPC   C3A14197   0.751   8.729   6.990  0.1448 -0.4210  0.4941
  947POPC   C4A14198   0.908   8.414   6.663  0.1927 -0.3410 -0.0246
  947POPC   C1B14199   0.013   8.858   6.396 -0.1554 -0.0234  0.1625
  947POPC   C2B14200  -0.207   8.656   6.804 -0.1566 -0.3485 -0.1816
  947POPC   C3B14201  -0.296   8.646   7.273 -0.0683 -0.1314 -0.2209
  947POPC   C4B14202  -0.073   8.477   7.649  0.0820  0.3405  0.2984
  948POPC   NC314203   9.787   2.472   4.917 -0.2152 -0.5255 -0.1960
  948POPC   PO414204   9.340   2.501   5.137  0.2773  0.1249 -0.1034
  948POPC   GL114205   9.642   2.486   5.383 -0.1209  0.3367 -0.0751
  948POPC   GL214206   9.306   2.509   5.697  0.3509 -0.0811  0.0673
  948POPC   C1A14207   9.870   2.327   5.743 -0.2268  0.0613 -0.2543
  948POPC   D2A14208  10.130   2.178   6.131 -0.0175  0.1505  0.0379
  948POPC   C3A14209   9.880   1.871   6.325  0.0895 -0.0319 -0.0701
  948POPC   C4A14210   9.769   1.682   6.017  0.2765  0.3025  0.3454
  948POPC   C1B14211   8.900   2.708   5.866  0.0636 -0.0752 -0.0459
  948POPC   C2B14212   8.591   3.019   5.842  0.1025 -0.0254 -0.0378
  948POPC   C3B14213   8.492   3.287   6.242  0.0622  0.0412 -0.3345
  948POPC   C4B14214   8.613   3.194   6.664 -0.2334  0.0325 -0.1039
  949POPC   NC314215  12.307   9.561   5.145 -0.2603  0.2900  0.2132
  949POPC   PO414216  11.897   9.342   5.217  0.2938 -0.0259  0.0761
  949POPC   GL114217  12.196   9.296   5.607  0.1425 -0.0641  0.4596
  949POPC   GL214218  12.452   9.236   5.601  0.5284  0.0218  0.3871
  949POPC   C1A14219  12.287   9.488   5.990  0.1444  0.0109  0.1303
  949POPC   D2A14220  12.209   9.580   6.500 -0.1126 -0.1313  0.0084
  949POPC   C3A14221  12.528   9.799   6.575 -0.0045 -0.0281 -0.1285
  949POPC   C4A14222  12.691   9.833   6.997 -0.0167 -0.2323 -0.3298
  949POPC   C1B14223  12.713   9.245   6.080 -0.1111  0.2134  0.0909
  949POPC   C2B14224  12.618   9.290   6.506  0.0160 -0.1059 -0.0757
  949POPC   C3B14225  12.398   9.194   6.875  0.1959 -0.3133  0.1240
  949POPC   C4B14226  12.267   8.952   7.181 -0.1014  0.1906  0.0291
  950POPC   NC314227   6.438  16.923   4.569  0.2494  0.2907  0.0675
  950POPC   PO414228   6.475  16.658   4.796 -0.1577 -0.0603 -0.4848
  950POPC   GL114229   6.402  16.626   5.310  0.4864 -0.0940  0.1579
  950POPC   GL214230   6.640  16.305   5.290  0.1199 -0.1501 -0.2166
  950POPC   C1A14231   6.199  16.611   5.661  0.2663  0.1580  0.2637
  950POPC   D2A14232   6.094  16.552   6.140  0.3448  0.2242  0.3238
  950POPC   C3A14233   6.113  16.735   6.466 -0.4291  0.1558  0.0300
  950POPC   C4A14234   6.050  16.605   6.885  0.2533 -0.0651 -0.1728
  950POPC   C1B14235   6.724  16.670   5.684 -0.2411  0.2027 -0.3465
  950POPC   C2B14236   6.670  16.803   6.055  0.1094 -0.2228  0.0683
  950POPC   C3B14237   6.592  16.697   6.539 -0.0739  0.0787 -0.1112
  950POPC   C4B14238   6.454  16.363   6.772 -0.1341 -0.1829 -0.0586
  951POPC   NC314239  18.705   5.735   5.147  0.0841  0.0047  0.0183
  951POPC   PO414240  18.391   5.623   5.051  0.1478 -0.3727 -0.2174
  951POPC   GL114241  18.330   5.488   5.502  0.1971  0.0084 -0.1654
  951POPC   GL214242  18.401   5.672   5.592  0.3862 -0.0258 -0.0245
  951POPC   C1A14243  18.286   5.161   5.852 -0.1277 -0.0044 -0.1786
  951POPC   D2A14244  18.106   5.089   6.230 -0.1347 -0.0000  0.0258
  951POPC   C3A14245  17.820   5.136   6.537 -0.1615 -0.0856 -0.0290
  951POPC   C4A14246  17.554   5.152   6.878  0.1600 -0.2909  0.1123
  951POPC   C1B14247  18.659   5.631   5.837  0.2018 -0.1430  0.3967
  951POPC   C2B14248  18.969   5.556   6.144 -0.1003  0.2668  0.1249
  951POPC   C3B14249  18.942   5.635   6.533 -0.1739 -0.4691 -0.3075
  951POPC   C4B14250  18.969   5.456   6.865  0.1087  0.0198 -0.0433
  952POPC   NC314251   5.243   1.309   5.288  0.3547  0.1835  0.2354
  952POPC   PO414252   5.018   0.862   5.209 -0.0243 -0.2284  0.1276
  952POPC   GL114253   4.957   0.888   5.671 -0.3868  0.0417 -0.0263
  952POPC   GL214254   5.127   0.704   5.811 -0.1278  0.3250 -0.1412
  952POPC   C1A14255   5.239   1.230   5.875 -0.2839  0.0957 -0.1762
  952POPC   D2A14256   5.619   1.478   6.019  0.1991  0.2667  0.3083
  952POPC   C3A14257   5.835   1.645   6.357  0.1827  0.2745 -0.0490
  952POPC   C4A14258   5.789   1.480   6.769  0.2701 -0.1943  0.4918
  952POPC   C1B14259   5.473   0.454   5.756  0.1687  0.6769 -0.0433
  952POPC   C2B14260   5.920   0.581   5.938 -0.0985 -0.3602 -0.1697
  952POPC   C3B14261   6.164   0.520   6.306 -0.0189  0.0477 -0.1851
  952POPC   C4B14262   6.138   0.536   6.830 -0.0094  0.0225 -0.1041
  953POPC   NC314263  16.858   1.831   4.908  0.2001  0.0830 -0.0087
  953POPC   PO414264  16.930   1.441   4.828 -0.0756  0.0184 -0.3213
  953POPC   GL114265  17.113   1.578   5.315 -0.0035  0.2172  0.1029
  953POPC   GL214266  17.053   1.611   5.669 -0.1155 -0.1683  0.3138
  953POPC   C1A14267  17.309   1.203   5.527  0.0126 -0.2254 -0.2793
  953POPC   D2A14268  17.373   0.832   5.779  0.2067 -0.3092 -0.0086
  953POPC   C3A14269  17.244   0.950   6.167 -0.0690  0.3607  0.0386
  953POPC   C4A14270  17.261   1.213   6.486  0.2736  0.0138  0.0758
  953POPC   C1B14271  16.670   1.705   5.867 -0.1240  0.3459 -0.4194
  953POPC   C2B14272  16.513   2.021   6.120  0.0296  0.1153  0.1027
  953POPC   C3B14273  16.341   2.274   6.310 -0.0440  0.1766 -0.0774
  953POPC   C4B14274  16.238   2.536   6.533  0.2610  0.0199 -0.1877
  954POPC   NC314275   1.375  10.019   5.528  0.2372 -0.0817  0.2738
  954POPC   PO414276   1.330   9.923   6.004 -0.1163 -0.0536  0.1024
  954POPC   GL114277   1.348  10.203   6.297 -0.0823 -0.0275 -0.1423
  954POPC   GL214278   1.039  10.219   6.458  0.2835 -0.1416  0.1741
  954POPC   C1A14279   1.569  10.536   6.538 -0.2191  0.1326 -0.0144
  954POPC   D2A14280   1.638  10.603   7.005  0.2365  0.4145  0.0334
  954POPC   C3A14281   1.942  10.829   7.232 -0.0073  0.3955  0.3398
  954POPC   C4A14282   2.057  11.199   7.238  0.3604 -0.0929  0.1823
  954POPC   C1B14283   1.271  10.297   6.834  0.0036  0.2533  0.0098
  954POPC   C2B14284   1.608  10.125   7.219  0.2159 -0.1119 -0.1268
  954POPC   C3B14285   1.609   9.744   7.265  0.1465 -0.2284  0.0027
  954POPC   C4B14286   1.301   9.566   7.031  0.2237  0.0943 -0.2824
  955POPC   NC314287   2.837   7.482   5.282 -0.0343 -0.0374  0.0327
  955POPC   PO414288   2.752   7.928   5.169  0.1331 -0.0155 -0.0218
  955POPC   GL114289   2.811   7.906   5.559  0.0923  0.0812 -0.0038
  955POPC   GL214290   2.526   7.984   5.705 -0.0981  0.2343 -0.1719
  955POPC   C1A14291   3.018   7.935   5.947  0.2071  0.3648 -0.0895
  955POPC   D2A14292   3.038   8.099   6.295  0.4775  0.3600 -0.0040
  955POPC   C3A14293   2.926   7.804   6.711  0.0870  0.3270 -0.1078
  955POPC   C4A14294   2.733   7.654   7.093  0.1335 -0.0604  0.1279
  955POPC   C1B14295   2.569   8.205   6.105  0.2510 -0.0839  0.0553
  955POPC   C2B14296   2.531   8.312   6.521 -0.0463 -0.0132 -0.1256
  955POPC   C3B14297   2.323   8.410   6.966  0.0862  0.3435  0.0079
  955POPC   C4B14298   2.028   8.153   7.240 -0.1260  0.1368  0.2212
  956POPC   NC314299  12.201   3.961   4.779 -0.1046  0.1445 -0.2442
  956POPC   PO414300  12.142   3.684   5.162  0.1823 -0.0049 -0.1798
  956POPC   GL114301  12.263   3.609   5.575 -0.4490  0.4320  0.0626
  956POPC   GL214302  12.582   3.719   5.733  0.0297 -0.2026  0.1592
  956POPC   C1A14303  12.242   3.380   5.991  0.3210 -0.0419 -0.1743
  956POPC   D2A14304  12.419   3.181   6.382 -0.1311  0.1640 -0.1498
  956POPC   C3A14305  12.739   2.914   6.354 -0.0049  0.3018  0.0809
  956POPC   C4A14306  13.243   2.574   6.391 -0.0729 -0.1978 -0.2586
  956POPC   C1B14307  12.623   3.678   6.172 -0.3711 -0.0814  0.2512
  956POPC   C2B14308  12.552   3.641   6.616 -0.0997  0.3312  0.1324
  956POPC   C3B14309  12.697   3.821   7.057 -0.0219 -0.3127 -0.2299
  956POPC   C4B14310  12.821   3.870   7.594  0.1535  0.0265  0.1594
  957POPC   NC314311  18.686  14.965   4.938 -0.0722 -0.0839  0.4763
  957POPC   PO414312  18.529  14.561   5.297  0.1389  0.0416  0.0346
  957POPC   GL114313  18.315  14.693   5.710 -0.2493  0.1504  0.3501
  957POPC   GL214314  18.131  14.413   5.747 -0.2634  0.5213 -0.3806
  957POPC   C1A14315  18.231  14.855   6.030 -0.1787  0.4423 -0.0570
  957POPC   D2A14316  17.994  15.148   6.309  0.0836 -0.0057 -0.0716
  957POPC   C3A14317  17.742  15.431   6.337  0.0298 -0.0992 -0.1407
  957POPC   C4A14318  17.532  15.750   6.525  0.0208 -0.1039 -0.1930
  957POPC   C1B14319  17.948  14.441   6.129 -0.5243 -0.0175 -0.1662
  957POPC   C2B14320  17.941  14.237   6.461 -0.0177 -0.2011  0.0828
  957POPC   C3B14321  18.191  13.975   6.795 -0.1633  0.2956  0.0576
  957POPC   C4B14322  18.373  14.145   7.156 -0.2931 -0.1771  0.0587
  958POPC   NC314323  13.758   7.191   5.248 -0.3013 -0.4950  0.4983
  958POPC   PO414324  13.843   6.779   5.380 -0.5941 -0.0444 -0.0509
  958POPC   GL114325  13.982   6.835   5.767  0.2519  0.2161 -0.1939
  958POPC   GL214326  14.281   6.659   5.832 -0.2157  0.0556 -0.0708
  958POPC   C1A14327  13.793   6.637   6.098  0.1284 -0.3476  0.1509
  958POPC   D2A14328  13.757   6.553   6.377 -0.1924  0.0358 -0.0794
  958POPC   C3A14329  14.233   6.617   6.556  0.1120  0.1699 -0.0334
  958POPC   C4A14330  14.620   6.563   6.821  0.0282 -0.1000 -0.0100
  958POPC   C1B14331  14.601   6.327   6.011  0.0648  0.1296 -0.0225
  958POPC   C2B14332  14.647   6.111   6.450 -0.0154  0.1941  0.2069
  958POPC   C3B14333  14.774   5.808   6.829  0.2970 -0.1445 -0.0120
  958POPC   C4B14334  15.045   5.894   7.196  0.2314  0.2190 -0.1246
  959POPC   NC314335  16.515   6.881   5.101  0.1951 -0.2957 -0.3924
  959POPC   PO414336  16.264   6.704   5.542 -0.1371 -0.1575 -0.1905
  959POPC   GL114337  16.090   6.525   5.994  0.0240 -0.1800  0.1488
  959POPC   GL214338  16.133   6.196   6.051  0.0188 -0.3005 -0.1060
  959POPC   C1A14339  16.335   6.579   6.354 -0.0294 -0.0638  0.2288
  959POPC   D2A14340  16.379   6.879   6.612 -0.2050 -0.0254  0.0809
  959POPC   C3A14341  16.242   6.605   6.970  0.0077  0.0580  0.1297
  959POPC   C4A14342  16.265   6.231   7.331 -0.2296 -0.2478 -0.2903
  959POPC   C1B14343  16.140   5.959   6.460  0.0576  0.0327 -0.1083
  959POPC   C2B14344  16.109   6.201   6.713  0.1178 -0.0959 -0.2009
  959POPC   C3B14345  15.841   6.196   7.002 -0.1715 -0.4341 -0.0731
  959POPC   C4B14346  15.597   6.180   7.341 -0.0451 -0.1912 -0.0743
  960POPC   NC314347   6.814   1.616   4.578 -0.0938  0.2280  0.0551
  960POPC   PO414348   6.922   1.619   5.049  0.1539 -0.5943  0.1690
  960POPC   GL114349   7.296   1.556   5.236  0.0482 -0.0994  0.2256
  960POPC   GL214350   7.385   1.110   5.307  0.1042  0.1412  0.0588
  960POPC   C1A14351   7.484   1.475   5.568 -0.0191  0.0267  0.1242
  960POPC   D2A14352   7.434   1.599   5.904 -0.2045 -0.3571 -0.1479
  960POPC   C3A14353   7.145   1.266   6.026  0.0565  0.1904 -0.0593
  960POPC   C4A14354   7.040   1.031   6.245 -0.2072  0.0834 -0.0327
  960POPC   C1B14355   7.421   0.919   5.665  0.1674  0.0527  0.0439
  960POPC   C2B14356   7.571   1.060   6.081 -0.1611  0.1232  0.0337
  960POPC   C3B14357   7.522   1.384   6.394  0.1724  0.0642  0.0933
  960POPC   C4B14358   7.501   1.544   6.805  0.0051  0.0938 -0.0054
  961POPC   NC314359  14.247   3.415   4.887 -0.0588  0.1635  0.3072
  961POPC   PO414360  14.617   3.727   4.876 -0.0923  0.2741  0.0038
  961POPC   GL114361  14.385   3.758   5.256 -0.1404  0.1510  0.0867
  961POPC   GL214362  14.167   3.971   5.459  0.1098  0.0365  0.2054
  961POPC   C1A14363  14.002   3.543   5.483  0.1401 -0.1959 -0.0732
  961POPC   D2A14364  13.964   3.217   5.773  0.0908  0.1099  0.1629
  961POPC   C3A14365  13.969   3.299   6.248  0.1370 -0.1175 -0.2919
  961POPC   C4A14366  14.038   3.472   6.684 -0.1248 -0.1782  0.0114
  961POPC   C1B14367  14.272   4.106   5.868 -0.2438 -0.1458 -0.4195
  961POPC   C2B14368  14.542   4.013   6.222  0.1283 -0.0874  0.0548
  961POPC   C3B14369  14.885   3.888   6.294 -0.1207 -0.1832 -0.4146
  961POPC   C4B14370  15.290   4.089   6.470  0.2110 -0.1067 -0.2305
  962POPC   NC314371   0.341  16.915   4.751 -0.0413 -0.0821 -0.0355
  962POPC   PO414372   0.141  17.205   4.509 -0.2086  0.1130  0.1835
  962POPC   GL114373   0.163  17.348   4.971 -0.0143  0.2914 -0.2956
  962POPC   GL214374   0.419  17.315   5.119 -0.0059  0.2621  0.2980
  962POPC   C1A14375   0.089  17.715   5.156  0.1716  0.0928  0.0692
  962POPC   D2A14376   0.013  18.066   5.443 -0.0113  0.3159  0.0605
  962POPC   C3A14377   0.347  18.065   5.819 -0.1749  0.1085  0.1321
  962POPC   C4A14378   0.784  18.222   5.967  0.4326 -0.1371 -0.0002
  962POPC   C1B14379   0.199  17.271   5.526  0.0273 -0.1428  0.4032
  962POPC   C2B14380   0.127  17.463   5.905 -0.1460 -0.0617  0.2585
  962POPC   C3B14381   0.104  17.793   6.148  0.1160  0.0554  0.0242
  962POPC   C4B14382  -0.121  17.923   6.473 -0.0356  0.2244  0.2040
  963POPC   NC314383  13.288   1.886   4.726 -0.1946 -0.3862  0.2281
  963POPC   PO414384  13.687   1.649   4.911  0.0176  0.3455 -0.3126
  963POPC   GL114385  13.551   1.524   5.367  0.2875  0.0824 -0.2515
  963POPC   GL214386  13.752   1.441   5.474  0.0305  0.0581 -0.2483
  963POPC   C1A14387  13.237   1.849   5.621  0.1181  0.1553 -0.0159
  963POPC   D2A14388  13.067   1.829   6.060  0.2406  0.3286 -0.0038
  963POPC   C3A14389  13.112   1.713   6.406 -0.2289  0.0982  0.0153
  963POPC   C4A14390  13.305   1.597   6.776 -0.1031  0.2684  0.0920
  963POPC   C1B14391  14.146   1.662   5.673  0.3085 -0.3912  0.1003
  963POPC   C2B14392  14.323   1.751   6.072  0.0923  0.2974 -0.0337
  963POPC   C3B14393  14.244   1.833   6.482 -0.1571 -0.0616 -0.1366
  963POPC   C4B14394  14.210   2.166   6.756  0.1302  0.0674  0.1353
  964POPC   NC314395   8.952   3.524   4.948 -0.0193 -0.0011  0.2278
  964POPC   PO414396   8.730   3.694   5.240  0.2309  0.1619  0.3240
  964POPC   GL114397   8.746   3.884   5.608 -0.3474 -0.0836 -0.1157
  964POPC   GL214398   8.974   4.193   5.738  0.1736  0.0509  0.3456
  964POPC   C1A14399   8.940   3.809   6.082 -0.1241  0.0850 -0.0515
  964POPC   D2A14400   9.164   3.458   6.428  0.0955  0.4743 -0.3528
  964POPC   C3A14401   9.073   3.504   6.880 -0.1594 -0.2421  0.2429
  964POPC   C4A14402   9.350   3.682   7.102  0.1958  0.1175 -0.2950
  964POPC   C1B14403   9.003   4.604   6.042 -0.0074  0.0919 -0.1134
  964POPC   C2B14404   9.026   5.044   5.919 -0.2681  0.0813 -0.0502
  964POPC   C3B14405   9.087   5.404   6.195 -0.3445 -0.1286  0.3112
  964POPC   C4B14406   9.055   5.552   6.501 -0.0675  0.1310 -0.1827
  965POPC   NC314407  17.781  14.441   4.419  0.1538 -0.0234  0.0396
  965POPC   PO414408  17.718  14.634   4.791 -0.1380 -0.2675 -0.3216
  965POPC   GL114409  17.542  14.912   5.174 -0.2454  0.2717  0.1880
  965POPC   GL214410  17.797  15.183   5.306  0.1195  0.1103  0.1500
  965POPC   C1A14411  17.273  14.942   5.545  0.1172  0.0869  0.2607
  965POPC   D2A14412  17.050  15.144   5.878 -0.1780  0.1843  0.0680
  965POPC   C3A14413  17.175  15.023   6.306  0.3131 -0.0651  0.0366
  965POPC   C4A14414  17.417  15.111   6.715 -0.3410 -0.1472 -0.0266
  965POPC   C1B14415  17.788  14.908   5.704  0.1928 -0.1115  0.4469
  965POPC   C2B14416  17.598  14.906   6.069 -0.0983  0.0031  0.1246
  965POPC   C3B14417  17.551  14.528   6.373  0.1404  0.2024 -0.1170
  965POPC   C4B14418  17.350  14.594   6.693  0.3005 -0.0929  0.1013
  966POPC   NC314419   9.468   8.859   5.244 -0.0579 -0.3001  0.1199
  966POPC   PO414420   9.289   8.393   5.337  0.3240 -0.4479 -0.0776
  966POPC   GL114421   9.223   8.253   5.710  0.1300 -0.2652  0.2446
  966POPC   GL214422   9.550   8.179   5.802  0.0367  0.0242 -0.1296
  966POPC   C1A14423   9.090   8.320   6.138  0.1964  0.0165  0.2498
  966POPC   D2A14424   9.277   8.231   6.522  0.4076  0.1744  0.1147
  966POPC   C3A14425   9.504   7.823   6.688  0.0769  0.1205 -0.4885
  966POPC   C4A14426   9.638   7.561   6.400 -0.1636 -0.5644 -0.1556
  966POPC   C1B14427   9.622   8.031   6.218 -0.3039  0.3307 -0.2526
  966POPC   C2B14428  10.014   7.998   6.352  0.1795  0.4322 -0.0597
  966POPC   C3B14429  10.288   7.894   6.675 -0.0307  0.2848 -0.1514
  966POPC   C4B14430  10.514   8.017   7.053 -0.0657 -0.1184  0.1875
  967POPC   NC314431   2.872  16.213   4.696  0.3843 -0.0373 -0.1019
  967POPC   PO414432   2.454  15.956   4.886 -0.0176  0.0150  0.1302
  967POPC   GL114433   2.323  15.862   5.239 -0.0200 -0.2870  0.2903
  967POPC   GL214434   2.575  16.019   5.353 -0.2577  0.0420 -0.1941
  967POPC   C1A14435   2.156  16.040   5.569  0.0251 -0.0687  0.1594
  967POPC   D2A14436   2.065  16.221   5.915  0.5016  0.0288  0.5716
  967POPC   C3A14437   2.130  16.114   6.264  0.0311 -0.2572 -0.1931
  967POPC   C4A14438   2.241  15.978   6.629 -0.2590  0.2824  0.1646
  967POPC   C1B14439   2.794  16.157   5.753  0.1333 -0.2217  0.0039
  967POPC   C2B14440   2.694  16.187   6.249  0.0429 -0.1406 -0.2820
  967POPC   C3B14441   2.625  16.248   6.660 -0.1509 -0.0226 -0.0724
  967POPC   C4B14442   2.689  16.100   7.077 -0.0402  0.0983 -0.3070
  968POPC   NC314443  13.667   4.835   5.296  0.1912  0.2871  0.1740
  968POPC   PO414444  13.478   5.121   5.059 -0.0036 -0.0415 -0.3444
  968POPC   GL114445  13.403   5.347   5.402 -0.0130 -0.1605 -0.0433
  968POPC   GL214446  13.376   5.039   5.633 -0.1934 -0.2365 -0.2304
  968POPC   C1A14447  13.289   5.534   5.930 -0.0295  0.1405 -0.2178
  968POPC   D2A14448  13.582   5.619   6.315 -0.1279 -0.1581  0.0858
  968POPC   C3A14449  13.351   5.640   6.639  0.1623  0.0558 -0.1915
  968POPC   C4A14450  13.305   5.649   7.056 -0.0706 -0.0157 -0.1134
  968POPC   C1B14451  13.195   5.059   6.070 -0.3895  0.0638  0.0529
  968POPC   C2B14452  13.399   5.111   6.430  0.1251 -0.3398 -0.0877
  968POPC   C3B14453  13.559   5.231   6.899 -0.1026  0.1475  0.0646
  968POPC   C4B14454  13.525   5.227   7.372  0.1218  0.1277  0.3001
  969POPC   NC314455   1.851   5.586   5.394  0.2888  0.0504  0.1835
  969POPC   PO414456   2.027   6.001   5.286 -0.0822 -0.0255 -0.0032
  969POPC   GL114457   1.700   5.979   5.641 -0.0361  0.0271  0.0661
  969POPC   GL214458   1.387   5.847   5.626 -0.0352 -0.1391  0.1003
  969POPC   C1A14459   1.627   6.055   6.140 -0.2095 -0.3035  0.2888
  969POPC   D2A14460   1.744   5.953   6.601 -0.0458  0.1114  0.2134
  969POPC   C3A14461   1.440   5.671   6.821  0.2167 -0.1501 -0.0661
  969POPC   C4A14462   1.188   5.958   6.963  0.1246 -0.0387  0.2311
  969POPC   C1B14463   1.015   5.908   5.975  0.4013  0.2448 -0.3586
  969POPC   C2B14464   0.692   5.561   6.060 -0.0408  0.2102  0.1099
  969POPC   C3B14465   0.605   5.530   6.473  0.0580 -0.0181  0.0825
  969POPC   C4B14466   0.283   5.455   6.768 -0.1048 -0.0878 -0.2427
  970POPC   NC314467   1.655   7.446   4.820  0.1022  0.2681  0.0138
  970POPC   PO414468   1.648   7.279   5.252  0.0895  0.0737 -0.2324
  970POPC   GL114469   1.718   7.273   5.674  0.0402  0.1981  0.3020
  970POPC   GL214470   2.025   7.378   5.860 -0.1914  0.1436 -0.1169
  970POPC   C1A14471   1.738   7.144   6.169 -0.3385  0.0439 -0.0405
  970POPC   D2A14472   1.785   6.995   6.520  0.2320 -0.1194  0.2009
  970POPC   C3A14473   1.906   7.231   6.742 -0.0678 -0.2609 -0.0961
  970POPC   C4A14474   1.870   7.288   7.135 -0.1135  0.3399  0.2031
  970POPC   C1B14475   2.360   7.700   6.090  0.2694 -0.3986  0.2077
  970POPC   C2B14476   2.484   7.846   6.373 -0.2649  0.3393  0.1002
  970POPC   C3B14477   2.417   7.942   6.843 -0.0842 -0.0737 -0.0039
  970POPC   C4B14478   2.257   7.748   7.297  0.1960  0.2235 -0.0060
  971POPC   NC314479   3.392   0.721   4.711 -0.2084 -0.1885 -0.0507
  971POPC   PO414480   3.323   0.590   5.058 -0.2520  0.0172 -0.0082
  971POPC   GL114481   3.400   0.501   5.396  0.1430  0.1482  0.2170
  971POPC   GL214482   3.428   0.727   5.645  0.0795 -0.3892 -0.0988
  971POPC   C1A14483   3.323   0.212   5.637 -0.0039 -0.2128  0.2523
  971POPC   D2A14484   3.079   0.189   5.962 -0.1894 -0.1236 -0.0028
  971POPC   C3A14485   3.156   0.167   6.386 -0.2329  0.2453 -0.1282
  971POPC   C4A14486   2.823   0.050   6.771  0.1911 -0.3375  0.0352
  971POPC   C1B14487   3.442   0.521   6.069  0.0106 -0.3173 -0.3958
  971POPC   C2B14488   3.734   0.338   6.287 -0.0853  0.1544 -0.1918
  971POPC   C3B14489   3.683   0.113   6.621 -0.1213  0.4646  0.3496
  971POPC   C4B14490   3.716   0.092   7.073 -0.1785  0.0652  0.1795
  972POPC   NC314491   5.883   3.382   5.048 -0.2190  0.2837  0.0059
  972POPC   PO414492   6.274   3.113   4.943  0.0433  0.2098  0.1806
  972POPC   GL114493   6.335   3.078   5.393 -0.1398 -0.0039  0.1095
  972POPC   GL214494   6.548   2.872   5.411  0.1774  0.2308  0.2944
  972POPC   C1A14495   6.236   3.226   5.768 -0.1394 -0.0180 -0.4406
  972POPC   D2A14496   6.122   2.937   6.075 -0.2931 -0.0793  0.1767
  972POPC   C3A14497   6.156   2.992   6.466  0.1046 -0.2258  0.0833
  972POPC   C4A14498   6.339   2.774   6.839 -0.0056  0.0468  0.2984
  972POPC   C1B14499   6.590   2.817   5.793 -0.0019  0.2145 -0.1129
  972POPC   C2B14500   6.555   2.766   6.323 -0.1464 -0.1345  0.0609
  972POPC   C3B14501   6.877   2.604   6.613  0.0782 -0.0569 -0.0926
  972POPC   C4B14502   7.100   2.287   6.841 -0.0726  0.1237  0.0444
  973POPC   NC314503  13.175   9.809   5.420  0.0996  0.3915 -0.2872
  973POPC   PO414504  12.939   9.401   5.541 -0.1934  0.0611 -0.2677
  973POPC   GL114505  13.111   9.496   5.891 -0.1027  0.1257 -0.3944
  973POPC   GL214506  13.295   9.815   6.010  0.1905  0.2704  0.0360
  973POPC   C1A14507  13.146   9.477   6.398  0.3874 -0.4733  0.2125
  973POPC   D2A14508  13.039   9.561   6.776  0.2774  0.0653 -0.2076
  973POPC   C3A14509  13.226   9.960   6.999 -0.0215 -0.0848 -0.0787
  973POPC   C4A14510  13.226  10.074   7.396 -0.1478  0.3408  0.0161
  973POPC   C1B14511  13.521   9.798   6.390 -0.2937 -0.0668  0.0457
  973POPC   C2B14512  13.917   9.543   6.407 -0.3104 -0.0165  0.1371
  973POPC   C3B14513  14.113   9.133   6.354 -0.3440  0.5321 -0.0858
  973POPC   C4B14514  14.077   8.832   6.237  0.0726  0.3535  0.0749
  974POPC   NC314515  10.119   5.964   5.299 -0.1064 -0.2478  0.0041
  974POPC   PO414516  10.255   6.275   5.592 -0.1874 -0.2065 -0.0345
  974POPC   GL114517  10.350   6.081   5.921 -0.0968  0.1533 -0.1501
  974POPC   GL214518  10.742   6.129   6.087  0.2985 -0.2571  0.2153
  974POPC   C1A14519  10.262   6.071   6.397  0.2581 -0.1758  0.0877
  974POPC   D2A14520  10.125   6.369   6.632  0.1675 -0.2381 -0.2721
  974POPC   C3A14521  10.039   6.247   7.045  0.1614  0.4316  0.0186
  974POPC   C4A14522   9.685   5.917   7.086  0.0278 -0.3058  0.2421
  974POPC   C1B14523  10.791   6.101   6.508  0.1102 -0.2076  0.0755
  974POPC   C2B14524  11.055   6.234   6.821  0.1746  0.2259  0.0847
  974POPC   C3B14525  11.304   6.264   7.092 -0.0832  0.1975 -0.1841
  974POPC   C4B14526  11.503   6.370   7.481 -0.2621  0.0212  0.1295
  975POPC   NC314527  16.456   0.673   5.131  0.1040  0.0633 -0.0737
  975POPC   PO414528  16.703   0.459   4.863  0.1982 -0.0305 -0.1632
  975POPC   GL114529  16.948   0.359   5.279 -0.2189  0.1946  0.1996
  975POPC   GL214530  17.025   0.670   5.353  0.0262  0.1054 -0.0552
  975POPC   C1A14531  16.902   0.055   5.600  0.0879 -0.0833  0.1071
  975POPC   D2A14532  16.756   0.012   5.946 -0.2429  0.0527 -0.3084
  975POPC   C3A14533  16.894  -0.048   6.276 -0.1571  0.2740 -0.0129
  975POPC   C4A14534  17.189   0.020   6.636 -0.2592  0.0891  0.0909
  975POPC   C1B14535  17.071   0.461   5.779 -0.0054  0.3163 -0.1317
  975POPC   C2B14536  16.838   0.598   6.110  0.1667  0.0777  0.0027
  975POPC   C3B14537  17.037   0.532   6.481 -0.4447 -0.3610  0.0320
  975POPC   C4B14538  17.016   0.492   6.920 -0.0016 -0.0404 -0.3028
  976POPC   NC314539  10.364   1.807   4.682 -0.2694  0.1205 -0.3004
  976POPC   PO414540   9.957   2.040   4.803  0.2387 -0.1696  0.0476
  976POPC   GL114541  10.072   2.201   5.302  0.1383 -0.1330  0.0026
  976POPC   GL214542  10.300   2.077   5.185 -0.1042 -0.2368 -0.0369
  976POPC   C1A14543  10.135   2.651   5.426 -0.0824  0.2049 -0.2972
  976POPC   D2A14544  10.079   3.051   5.631 -0.1126  0.0903 -0.0771
  976POPC   C3A14545   9.886   3.266   5.972  0.0727 -0.1407 -0.0787
  976POPC   C4A14546   9.942   3.806   6.118  0.3331  0.1804 -0.0084
  976POPC   C1B14547   9.811   1.842   5.487 -0.1171 -0.1261 -0.3211
  976POPC   C2B14548   9.629   1.411   5.565  0.2271 -0.2146  0.0794
  976POPC   C3B14549   9.731   0.981   5.643  0.1784 -0.1109  0.0881
  976POPC   C4B14550  10.143   0.888   5.503  0.0603 -0.2031  0.1137
  977POPC   NC314551   0.277   6.459   4.716 -0.0481 -0.1575 -0.0311
  977POPC   PO414552   0.443   6.741   5.017  0.1243 -0.1072 -0.2686
  977POPC   GL114553   0.243   6.443   5.362  0.0617  0.0050  0.0646
  977POPC   GL214554   0.543   6.522   5.469  0.1311 -0.4544  0.0083
  977POPC   C1A14555   0.138   6.245   5.756 -0.1398 -0.2303  0.3117
  977POPC   D2A14556   0.250   6.242   6.235  0.3121  0.1403 -0.2781
  977POPC   C3A14557   0.348   5.976   6.569 -0.1913 -0.0758  0.2215
  977POPC   C4A14558   0.585   5.819   6.970  0.0974  0.0792  0.1260
  977POPC   C1B14559   0.466   6.679   5.842  0.0129  0.1589 -0.2037
  977POPC   C2B14560   0.196   6.827   6.174 -0.1115  0.3133  0.0826
  977POPC   C3B14561   0.040   6.773   6.577 -0.2136  0.0040 -0.1335
  977POPC   C4B14562  -0.391   6.838   6.735 -0.2483  0.0362  0.2399
  978POPC   NC314563  16.065   2.317   4.929 -0.0965  0.4397 -0.1356
  978POPC   PO414564  15.633   2.429   5.186  0.0792  0.0289 -0.2943
  978POPC   GL114565  15.691   2.475   5.648 -0.0141  0.0131 -0.1686
  978POPC   GL214566  15.775   2.785   5.683 -0.0470 -0.2167 -0.2482
  978POPC   C1A14567  15.819   2.389   6.109  0.1917 -0.5797  0.2306
  978POPC   D2A14568  15.756   2.371   6.493 -0.1793  0.1664 -0.1651
  978POPC   C3A14569  16.042   2.113   6.712 -0.2211 -0.1072  0.0394
  978POPC   C4A14570  16.178   1.738   7.052  0.0995 -0.0018 -0.0982
  978POPC   C1B14571  15.563   2.829   6.036  0.1598  0.0316 -0.1310
  978POPC   C2B14572  15.418   3.150   6.351  0.2470 -0.0824 -0.0779
  978POPC   C3B14573  15.111   3.068   6.781  0.1953 -0.0260 -0.1286
  978POPC   C4B14574  14.868   3.231   7.073  0.1781  0.2075 -0.0466
  979POPC   NC314575   5.980  15.040   3.966 -0.2330 -0.2181  0.3902
  979POPC   PO414576   6.156  15.142   4.463  0.0213 -0.0063  0.3567
  979POPC   GL114577   6.079  15.264   4.954 -0.1318  0.1707  0.4338
  979POPC   GL214578   5.880  15.481   5.078 -0.2346 -0.1890  0.0728
  979POPC   C1A14579   5.964  15.228   5.480 -0.0821  0.1295  0.0995
  979POPC   D2A14580   5.887  15.334   5.786 -0.0352 -0.3651 -0.0285
  979POPC   C3A14581   5.935  15.827   5.983 -0.2742 -0.0764  0.3773
  979POPC   C4A14582   6.079  16.089   6.308  0.0624  0.4916  0.2474
  979POPC   C1B14583   5.940  15.800   5.475 -0.3030 -0.1775 -0.1693
  979POPC   C2B14584   6.282  16.089   5.554 -0.4400  0.0708  0.0550
  979POPC   C3B14585   6.420  16.267   5.905 -0.0869  0.3911  0.2310
  979POPC   C4B14586   6.619  16.306   6.238  0.2426  0.1873 -0.2354
  980POPC   NC314587  11.826   5.890   5.170  0.1657  0.0557 -0.0116
  980POPC   PO414588  11.443   5.710   5.375  0.1691 -0.0411  0.0876
  980POPC   GL114589  11.640   5.620   5.753  0.0167  0.0801  0.0156
  980POPC   GL214590  11.401   5.759   6.047  0.1862  0.3246  0.2268
  980POPC   C1A14591  12.061   5.523   5.964  0.2103  0.0795 -0.1092
  980POPC   D2A14592  12.304   5.361   6.196 -0.2597  0.0787 -0.3706
  980POPC   C3A14593  12.604   5.076   5.970 -0.1243  0.2029 -0.0916
  980POPC   C4A14594  12.886   5.236   5.726  0.0388 -0.2994  0.0057
  980POPC   C1B14595  11.348   5.952   6.464 -0.1177  0.0463  0.1772
  980POPC   C2B14596  11.451   5.864   6.863 -0.0084 -0.3853 -0.1333
  980POPC   C3B14597  11.445   5.828   7.332 -0.2288  0.0674  0.0521
  980POPC   C4B14598  11.600   5.436   7.442 -0.0065 -0.3712 -0.0773
  981POPC   NC314599   1.853   4.759   4.965 -0.1618 -0.0945  0.1443
  981POPC   PO414600   1.522   4.586   5.091  0.4642 -0.0871 -0.0808
  981POPC   GL114601   1.409   4.338   5.480 -0.2153  0.2142  0.3593
  981POPC   GL214602   1.489   4.039   5.483 -0.3825 -0.1158 -0.0614
  981POPC   C1A14603   1.259   4.228   5.881 -0.0161  0.0048 -0.1541
  981POPC   D2A14604   0.880   4.176   6.024  0.1946 -0.1229  0.3559
  981POPC   C3A14605   0.599   4.396   5.922  0.0576 -0.0097  0.0628
  981POPC   C4A14606   0.348   4.790   5.833 -0.1393  0.0907 -0.0900
  981POPC   C1B14607   1.365   3.773   5.913  0.0213  0.0477  0.0374
  981POPC   C2B14608   1.194   3.670   6.412 -0.2182 -0.2946  0.1238
  981POPC   C3B14609   1.406   3.426   6.846 -0.0528 -0.1181 -0.0871
  981POPC   C4B14610   1.279   3.273   7.217 -0.1535  0.3166  0.0499
  982POPC   NC314611  17.876  18.496   4.334  0.3704 -0.0692  0.0169
  982POPC   PO414612  17.637  18.445   4.695 -0.0373 -0.1303  0.0481
  982POPC   GL114613  17.801  18.421   5.085  0.0649 -0.0865  0.2869
  982POPC   GL214614  17.610  18.855   5.034  0.0050  0.0803 -0.0821
  982POPC   C1A14615  17.826  18.537   5.510  0.1055 -0.1782 -0.0071
  982POPC   D2A14616  17.742  18.546   5.938  0.4059 -0.1550 -0.1308
  982POPC   C3A14617  17.849  18.047   6.151 -0.0315  0.0072 -0.0329
  982POPC   C4A14618  17.995  17.627   6.055 -0.0704 -0.3179 -0.1904
  982POPC   C1B14619  18.029  18.910   5.198 -0.2351 -0.3452 -0.1299
  982POPC   C2B14620  18.196  18.834   5.540  0.3605  0.0110 -0.0396
  982POPC   C3B14621  18.185  18.810   5.998 -0.0530 -0.0050  0.2437
  982POPC   C4B14622  18.133  18.473   6.257 -0.0830  0.1243 -0.1603
  983POPC   NC314623  15.616   8.593   5.282  0.1622  0.0406  0.1040
  983POPC   PO414624  16.041   8.867   5.307 -0.1420 -0.2133  0.5010
  983POPC   GL114625  16.191   9.110   5.597 -0.1994 -0.0376  0.1861
  983POPC   GL214626  16.468   9.293   5.705 -0.4278 -0.0387  0.1475
  983POPC   C1A14627  16.093   9.539   5.797  0.2868  0.1457  0.1632
  983POPC   D2A14628  16.044  10.000   5.915 -0.1071  0.2074 -0.2251
  983POPC   C3A14629  15.661  10.290   5.953  0.1408 -0.3870  0.1078
  983POPC   C4A14630  15.152  10.366   6.132  0.2694 -0.1081  0.2220
  983POPC   C1B14631  16.265   9.257   6.142 -0.0425 -0.2471  0.1036
  983POPC   C2B14632  16.045   9.180   6.522  0.0403  0.2151 -0.2467
  983POPC   C3B14633  16.073   9.318   6.957 -0.0888 -0.0782  0.1232
  983POPC   C4B14634  16.171   9.100   7.384 -0.0397  0.1842 -0.1653
  984YOPC   NC314635   0.652  15.731   5.083  0.2938 -0.0538  0.2238
  984YOPC   PO414636   0.285  15.900   5.195 -0.0388  0.0890 -0.1005
  984YOPC   GL114637  -0.088  16.164   5.344 -0.1770  0.1386 -0.1121
  984YOPC   GL214638  -0.441  16.024   5.483  0.1970 -0.1342 -0.0712
  984YOPC   C1A14639  -0.007  16.429   5.593 -0.0960  0.3836  0.0075
  984YOPC   D2A14640  -0.028  16.789   5.776  0.0851 -0.3834  0.1279
  984YOPC   C3A14641  -0.025  16.955   6.056  0.0126  0.0147  0.0282
  984YOPC   C4A14642  -0.088  16.891   6.533  0.0362 -0.1240  0.3138
  984YOPC   C1B14643  -0.187  16.035   5.959  0.2989  0.2805 -0.0007
  984YOPC   C2B14644   0.100  15.956   5.752 -0.1147  0.0983  0.0028
  984YOPC   D3B14645   0.407  15.863   6.098 -0.1338  0.2324 -0.1015
  984YOPC   C4B14646   0.345  15.674   6.535 -0.2703 -0.2350 -0.1974
  985YOPC   NC314647  11.946   3.057   4.524  0.1117 -0.0812 -0.4465
  985YOPC   PO414648  11.720   3.015   4.796  0.2189 -0.1207  0.1222
  985YOPC   GL114649  11.848   3.017   5.219  0.0187  0.2687 -0.1033
  985YOPC   GL214650  11.818   3.339   5.238  0.0526  0.1762  0.1858
  985YOPC   C1A14651  12.199   3.059   5.408 -0.3211 -0.1329 -0.0201
  985YOPC   D2A14652  12.472   2.925   5.728 -0.5183 -0.1704  0.3144
  985YOPC   C3A14653  12.791   3.173   5.893  0.0181  0.4396  0.1980
  985YOPC   C4A14654  12.946   3.389   6.348 -0.3960  0.1698 -0.1975
  985YOPC   C1B14655  11.794   3.263   5.672  0.1125  0.1962  0.0016
  985YOPC   C2B14656  11.754   3.173   6.066  0.0123 -0.1433  0.0577
  985YOPC   D3B14657  11.907   3.168   6.488 -0.0139 -0.4093  0.0258
  985YOPC   C4B14658  12.120   2.952   6.792 -0.1111 -0.1719 -0.3122
  986YOPC   NC314659  10.158   7.838   4.948  0.0547 -0.1856 -0.4110
  986YOPC   PO414660  10.224   8.198   5.137  0.0538 -0.1881 -0.0252
  986YOPC   GL114661  10.428   8.306   5.482 -0.1958  0.0311  0.1089
  986YOPC   GL214662  10.724   8.290   5.570  0.0974 -0.1688  0.1218
  986YOPC   C1A14663  10.387   8.411   5.932 -0.0030 -0.2379 -0.1446
  986YOPC   D2A14664  10.524   8.317   6.311 -0.3324  0.0562 -0.2387
  986YOPC   C3A14665  10.837   8.471   6.639  0.0845  0.0408 -0.0145
  986YOPC   C4A14666  11.269   8.348   6.951  0.2335 -0.0279 -0.2122
  986YOPC   C1B14667  10.963   7.853   5.719 -0.2773  0.0591 -0.1388
  986YOPC   C2B14668  11.016   7.593   5.865 -0.2416  0.0944  0.0526
  986YOPC   D3B14669  11.133   7.463   6.231  0.1899  0.1019  0.2846
  986YOPC   C4B14670  11.005   7.137   6.599 -0.0288 -0.0323  0.4675
  987YOPC   NC314671  10.847   3.490   5.047  0.1768 -0.0054 -0.0255
  987YOPC   PO414672  11.103   3.843   5.158 -0.3425 -0.1212  0.1514
  987YOPC   GL114673  10.866   3.818   5.540  0.2639  0.1255  0.1282
  987YOPC   GL214674  10.537   3.762   5.453  0.0122 -0.0944  0.4619
  987YOPC   C1A14675  10.926   3.710   5.909 -0.1240  0.2398 -0.0067
  987YOPC   D2A14676  10.791   3.442   6.235 -0.0363  0.3376  0.1132
  987YOPC   C3A14677  10.923   3.276   6.647  0.0383  0.1304  0.0976
  987YOPC   C4A14678  10.908   2.889   6.889 -0.1371 -0.4054 -0.1777
  987YOPC   C1B14679  10.573   3.278   5.721 -0.0882  0.3960  0.0444
  987YOPC   C2B14680  10.372   3.144   6.025  0.0369 -0.3979 -0.0325
  987YOPC   D3B14681  10.152   3.259   6.379 -0.0052 -0.3236 -0.4974
  987YOPC   C4B14682  10.100   3.049   6.703  0.0192 -0.0311  0.0976
  988YOPC   NC314683  13.668  10.577   5.270  0.0806 -0.3364 -0.3412
  988YOPC   PO414684  13.802  10.880   5.465 -0.2702 -0.2854  0.0048
  988YOPC   GL114685  14.073  10.919   5.788 -0.4483 -0.4534  0.2014
  988YOPC   GL214686  14.294  11.246   5.849  0.0246 -0.0991  0.2299
  988YOPC   C1A14687  13.828  10.991   6.168  0.0758 -0.2930  0.0097
  988YOPC   D2A14688  13.574  11.293   6.308  0.0036  0.1244 -0.2427
  988YOPC   C3A14689  13.680  11.678   6.242 -0.3910 -0.0229  0.2607
  988YOPC   C4A14690  13.745  11.932   5.970  0.0326  0.0879  0.1445
  988YOPC   C1B14691  14.068  11.455   6.090  0.1191  0.1043 -0.2467
  988YOPC   C2B14692  14.043  11.465   6.522 -0.1091  0.2187  0.1730
  988YOPC   D3B14693  13.899  11.691   6.735  0.0297 -0.0309  0.2269
  988YOPC   C4B14694  13.560  11.832   6.994  0.1162  0.1111  0.0402
  989YOPC   NC314695   6.848   5.255   4.563  0.1641  0.0133  0.1968
  989YOPC   PO414696   7.062   5.319   5.062  0.0371 -0.0596 -0.0194
  989YOPC   GL114697   6.763   5.181   5.436 -0.0956  0.0215  0.4148
  989YOPC   GL214698   6.914   4.995   5.574  0.1037  0.0523  0.4240
  989YOPC   C1A14699   6.472   4.993   5.829 -0.0774  0.3437  0.1995
  989YOPC   D2A14700   6.276   4.729   6.081  0.0178  0.1468  0.1173
  989YOPC   C3A14701   6.251   4.279   6.001 -0.2678 -0.3280 -0.2276
  989YOPC   C4A14702   6.298   3.875   6.127  0.2860  0.2252 -0.2001
  989YOPC   C1B14703   6.877   4.749   5.978  0.4139  0.0601 -0.0369
  989YOPC   C2B14704   7.049   4.438   6.281 -0.4721  0.3967  0.0153
  989YOPC   D3B14705   6.876   4.134   6.517 -0.0849 -0.0837 -0.0520
  989YOPC   C4B14706   6.655   3.757   6.561 -0.0643 -0.4083 -0.2274
  990YOPC   NC314707   2.510  12.295   5.398  0.0461  0.1254  0.0601
  990YOPC   PO414708   2.842  12.077   5.601 -0.0819 -0.0304  0.0940
  990YOPC   GL114709   2.702  12.246   5.976  0.0573 -0.0217 -0.0406
  990YOPC   GL214710   2.554  11.885   6.160 -0.0276  0.2846 -0.1545
  990YOPC   C1A14711   2.695  12.358   6.369  0.0461 -0.2163  0.0635
  990YOPC   D2A14712   2.717  12.274   6.720  0.1342  0.0552 -0.0188
  990YOPC   C3A14713   2.945  12.543   7.008  0.3163  0.0034 -0.0818
  990YOPC   C4A14714   3.279  12.581   7.287  0.2860  0.0160 -0.3070
  990YOPC   C1B14715   2.296  11.990   6.570 -0.0991  0.2391  0.1608
  990YOPC   C2B14716   2.162  12.176   6.960 -0.3148  0.0995  0.0965
  990YOPC   D3B14717   2.449  12.373   7.165  0.2646  0.0370  0.2045
  990YOPC   C4B14718   2.714  12.743   7.429  0.2590  0.3043 -0.1241
  991YOPC   NC314719   2.371  13.851   4.992  0.0482  0.0392 -0.1203
  991YOPC   PO414720   2.450  13.460   5.204 -0.4544 -0.0181 -0.0666
  991YOPC   GL114721   2.545  13.648   5.584  0.4428 -0.2157  0.1273
  991YOPC   GL214722   2.647  13.907   5.663 -0.0079 -0.1789  0.0771
  991YOPC   C1A14723   2.265  13.559   6.014 -0.0140  0.2162 -0.1170
  991YOPC   D2A14724   2.004  13.632   6.357  0.4463  0.0789  0.0576
  991YOPC   C3A14725   1.649  13.927   6.531  0.3005  0.0395  0.0277
  991YOPC   C4A14726   1.392  14.045   6.897  0.5151 -0.1256 -0.0839
  991YOPC   C1B14727   2.708  13.719   6.144 -0.0698 -0.0337 -0.2064
  991YOPC   C2B14728   2.482  13.552   6.499  0.3168 -0.0294  0.3804
  991YOPC   D3B14729   2.502  13.071   6.580  0.4326  0.1311 -0.1931
  991YOPC   C4B14730   2.595  12.903   6.947  0.1683 -0.0235 -0.0632
  992YOPC   NC314731   0.872  17.141   5.354 -0.1654  0.2533  0.2141
  992YOPC   PO414732   0.736  16.816   5.063 -0.1216  0.1947 -0.1856
  992YOPC   GL114733   0.535  16.815   5.564 -0.0364  0.0903  0.0540
  992YOPC   GL214734   0.808  16.790   5.711 -0.2656  0.1362  0.0232
  992YOPC   C1A14735   0.416  16.601   5.898 -0.0321 -0.3328 -0.0847
  992YOPC   D2A14736   0.112  16.351   6.182  0.1803 -0.0191  0.2454
  992YOPC   C3A14737   0.253  16.234   6.536  0.1832 -0.1482  0.0998
  992YOPC   C4A14738   0.078  16.168   6.951 -0.1075  0.2341  0.3041
  992YOPC   C1B14739   0.885  16.785   6.089  0.1235  0.1765 -0.0553
  992YOPC   C2B14740   0.832  16.946   6.561 -0.4053 -0.1453 -0.1159
  992YOPC   D3B14741   1.028  16.855   6.925  0.4310 -0.2108 -0.1094
  992YOPC   C4B14742   1.017  16.967   7.342  0.1193  0.1512 -0.2641
  993YOPC   NC314743  15.775  13.746   5.066  0.0285  0.0270 -0.3720
  993YOPC   PO414744  16.212  13.686   5.047 -0.0521 -0.2044  0.0526
  993YOPC   GL114745  16.109  13.929   5.388  0.1830 -0.4202 -0.1530
  993YOPC   GL214746  16.253  13.661   5.574  0.2306  0.1054  0.1333
  993YOPC   C1A14747  15.967  14.244   5.624 -0.2108 -0.0390  0.5642
  993YOPC   D2A14748  15.920  14.524   5.988  0.1514  0.4159  0.0474
  993YOPC   C3A14749  15.537  14.343   6.159  0.0546 -0.0329  0.0508
  993YOPC   C4A14750  15.039  14.219   6.407 -0.3194  0.3706 -0.2469
  993YOPC   C1B14751  15.823  13.392   5.645 -0.1756 -0.0674 -0.4907
  993YOPC   C2B14752  15.393  13.379   5.742 -0.3044  0.1670  0.0894
  993YOPC   D3B14753  15.312  13.470   6.167 -0.1667 -0.2421  0.3920
  993YOPC   C4B14754  15.417  13.932   6.451 -0.3084  0.1132 -0.0806
  994YOPC   NC314755   4.921  12.737   5.409 -0.0473  0.0333 -0.0903
  994YOPC   PO414756   4.469  12.398   5.360  0.0495  0.0104 -0.1491
  994YOPC   GL114757   4.634  12.224   5.662 -0.0101 -0.2562 -0.1591
  994YOPC   GL214758   4.889  12.546   5.844  0.0392  0.2627 -0.0530
  994YOPC   C1A14759   4.824  12.034   5.959 -0.2024 -0.1840 -0.5028
  994YOPC   D2A14760   4.906  12.057   6.336 -0.2446  0.1449  0.2089
  994YOPC   C3A14761   5.199  11.863   6.571  0.1036  0.2859  0.0068
  994YOPC   C4A14762   5.408  11.499   6.809 -0.2015 -0.1127 -0.4541
  994YOPC   C1B14763   5.167  12.605   6.222 -0.0814  0.1918 -0.0714
  994YOPC   C2B14764   5.198  12.632   6.632 -0.0229  0.0995  0.0635
  994YOPC   D3B14765   4.841  12.728   6.932 -0.0068  0.0848  0.5788
  994YOPC   C4B14766   4.467  12.606   7.009 -0.1558  0.2299  0.1843
  995YOPC   NC314767   4.737  14.969   4.590 -0.0752 -0.0754  0.3037
  995YOPC   PO414768   4.595  15.196   4.976  0.1029 -0.2580 -0.1231
  995YOPC   GL114769   4.274  15.194   5.305  0.1536  0.1559  0.2418
  995YOPC   GL214770   3.970  15.034   5.166 -0.1106 -0.3794  0.1183
  995YOPC   C1A14771   4.331  15.073   5.688 -0.1804  0.2661  0.0651
  995YOPC   D2A14772   4.561  14.879   6.006  0.0455  0.0440  0.0347
  995YOPC   C3A14773   4.434  14.793   6.411 -0.0469 -0.0170  0.0975
  995YOPC   C4A14774   4.429  14.923   6.779  0.2020  0.1670  0.2422
  995YOPC   C1B14775   3.840  14.993   5.655 -0.0800 -0.1447 -0.1854
  995YOPC   C2B14776   3.748  15.020   6.086 -0.0968  0.0746  0.0000
  995YOPC   D3B14777   4.172  15.136   6.183 -0.1316 -0.0106  0.0316
  995YOPC   C4B14778   4.471  15.305   6.357 -0.1686  0.2389  0.1885
  996YOPC   NC314779   9.800  19.340   4.823  0.0607 -0.0392  0.0031
  996YOPC   PO414780   9.400  19.185   5.098  0.1582 -0.3161 -0.1266
  996YOPC   GL114781   9.378  18.951   5.479 -0.2083 -0.0797  0.0780
  996YOPC   GL214782   9.506  18.740   5.393  0.1446  0.0545 -0.1353
  996YOPC   C1A14783   9.248  19.069   5.880 -0.0167  0.0674 -0.1147
  996YOPC   D2A14784   9.330  19.396   6.178 -0.0108  0.1221 -0.0237
  996YOPC   C3A14785   9.053  19.651   6.455 -0.2791  0.0888  0.1772
  996YOPC   C4A14786   8.760  19.809   6.754  0.1009 -0.1502  0.4144
  996YOPC   C1B14787   9.661  18.418   5.533 -0.1450  0.0712  0.3126
  996YOPC   C2B14788   9.631  18.462   5.884 -0.1770  0.1692 -0.0303
  996YOPC   D3B14789   9.450  18.626   6.266 -0.1011  0.0113 -0.0235
  996YOPC   C4B14790   9.269  18.895   6.415  0.0916  0.2379 -0.0079
  997YOPC   NC314791  10.372  18.391   5.011  0.3821  0.1592  0.2341
  997YOPC   PO414792  10.524  18.038   5.290  0.2317 -0.1159 -0.1590
  997YOPC   GL114793  10.499  18.353   5.544  0.1188  0.3449 -0.0721
  997YOPC   GL214794  10.694  18.303   5.834  0.0518  0.2075 -0.2754
  997YOPC   C1A14795  10.337  18.670   5.793  0.3210 -0.0535 -0.2257
  997YOPC   D2A14796  10.204  18.875   6.289 -0.0998 -0.1458 -0.2372
  997YOPC   C3A14797  10.160  19.268   6.213 -0.3444  0.1027 -0.3222
  997YOPC   C4A14798  10.132  19.504   5.690 -0.2178  0.1026 -0.0796
  997YOPC   C1B14799  10.855  18.064   6.064  0.2264 -0.0544 -0.3130
  997YOPC   C2B14800  11.291  17.959   6.263  0.2096 -0.2062 -0.1733
  997YOPC   D3B14801  11.401  17.904   6.655 -0.0503 -0.0721  0.0863
  997YOPC   C4B14802  11.482  17.936   7.155  0.0873  0.0323  0.1772
  998YOPC   NC314803   3.500   4.544   5.027 -0.0791  0.2449  0.0436
  998YOPC   PO414804   3.594   4.973   5.086  0.0142 -0.1771 -0.2745
  998YOPC   GL114805   3.552   4.924   5.436  0.2829 -0.0068  0.2399
  998YOPC   GL214806   3.317   5.214   5.485 -0.3066 -0.2053 -0.0630
  998YOPC   C1A14807   3.699   4.865   5.783  0.0312 -0.2270  0.0663
  998YOPC   D2A14808   3.870   4.958   6.276 -0.2277 -0.1335  0.3042
  998YOPC   C3A14809   3.704   4.696   6.595 -0.1022 -0.0224 -0.1211
  998YOPC   C4A14810   3.722   4.627   7.074  0.1286 -0.0026  0.1733
  998YOPC   C1B14811   3.388   5.231   5.966 -0.0574  0.1101  0.4741
  998YOPC   C2B14812   3.497   5.180   6.419  0.0272 -0.0851  0.2255
  998YOPC   D3B14813   3.880   5.155   6.835 -0.2527  0.3213 -0.0991
  998YOPC   C4B14814   3.972   5.407   7.270 -0.0452  0.0400 -0.1170
  999YOPC   NC314815   7.306  15.664   5.229 -0.2047  0.4017 -0.0330
  999YOPC   PO414816   6.952  15.498   5.089 -0.2250 -0.0173 -0.1348
  999YOPC   GL114817   6.936  15.303   5.448  0.1107  0.0731 -0.2914
  999YOPC   GL214818   7.103  15.046   5.532 -0.1072 -0.1521 -0.0041
  999YOPC   C1A14819   6.776  15.355   5.839 -0.0586 -0.0816 -0.3485
  999YOPC   D2A14820   6.859  15.339   6.159 -0.0788  0.1813 -0.2190
  999YOPC   C3A14821   7.043  14.974   6.401 -0.1308  0.1100 -0.2618
  999YOPC   C4A14822   7.072  14.761   6.812 -0.2204  0.2753 -0.1131
  999YOPC   C1B14823   6.942  14.856   5.946 -0.1063 -0.1406  0.1743
  999YOPC   C2B14824   6.581  14.940   6.244  0.0622  0.0607 -0.0539
  999YOPC   D3B14825   6.383  14.610   6.144 -0.3306 -0.2094 -0.0064
  999YOPC   C4B14826   6.177  14.452   6.409  0.1043  0.0080 -0.1683
 1000YOPC   NC314827   5.185   3.254   4.132  0.0618 -0.0824  0.0137
 1000YOPC   PO414828   5.157   3.256   4.598  0.2922 -0.0320 -0.1702
 1000YOPC   GL114829   5.313   3.199   4.884 -0.0598  0.4521 -0.3245
 1000YOPC   GL214830   5.318   3.276   5.222  0.0127  0.1374 -0.3421
 1000YOPC   C1A14831   5.183   2.756   5.053 -0.1804 -0.0524  0.1013
 1000YOPC   D2A14832   5.414   2.356   5.242 -0.1497  0.0048 -0.1895
 1000YOPC   C3A14833   5.830   2.397   5.479  0.0002  0.0736  0.0549
 1000YOPC   C4A14834   6.063   2.659   5.668 -0.4100 -0.2256  0.0215
 1000YOPC   C1B14835   4.946   3.015   5.494 -0.1261  0.0668  0.0069
 1000YOPC   C2B14836   5.220   2.660   5.631 -0.1875  0.0794 -0.0307
 1000YOPC   D3B14837   5.468   2.368   5.785  0.0190  0.0042  0.1045
 1000YOPC   C4B14838   5.475   1.979   5.979  0.0620  0.1012  0.0233
 1001YOPC   NC314839   0.186  15.128   4.820 -0.0593 -0.2850 -0.3091
 1001YOPC   PO414840  -0.101  14.831   5.099 -0.0596  0.0688  0.1860
 1001YOPC   GL114841   0.103  15.001   5.502 -0.1831  0.1330  0.2914
 1001YOPC   GL214842   0.224  14.881   5.679 -0.1125 -0.0069  0.2324
 1001YOPC   C1A14843   0.023  15.445   5.750 -0.0643 -0.0576  0.2472
 1001YOPC   D2A14844   0.006  15.535   6.182 -0.1809 -0.0001  0.0235
 1001YOPC   C3A14845   0.019  15.378   6.579 -0.0081  0.1681  0.1619
 1001YOPC   C4A14846  -0.164  15.138   6.939 -0.0800 -0.0732 -0.0818
 1001YOPC   C1B14847   0.174  14.759   6.124 -0.4316  0.1342 -0.1103
 1001YOPC   C2B14848   0.388  15.035   6.497  0.2393  0.1031  0.1436
 1001YOPC   D3B14849   0.364  14.874   6.937  0.2569  0.2299  0.2456
 1001YOPC   C4B14850   0.235  14.930   7.381 -0.0995 -0.0685  0.1319
 1002YOPC   NC314851   4.452   4.874   4.819 -0.1390  0.0230 -0.1918
 1002YOPC   PO414852   4.490   5.188   5.192 -0.1086 -0.1614 -0.1090
 1002YOPC   GL114853   4.354   5.255   5.639  0.1693 -0.0249  0.1063
 1002YOPC   GL214854   4.106   5.500   5.828 -0.3222  0.1676  0.0307
 1002YOPC   C1A14855   4.267   5.149   6.053  0.0006 -0.1944  0.2834
 1002YOPC   D2A14856   4.526   5.263   6.373  0.0876  0.0776  0.1755
 1002YOPC   C3A14857   4.549   5.011   6.718  0.1255  0.2569  0.0610
 1002YOPC   C4A14858   4.234   5.008   7.138 -0.4180 -0.2903  0.1019
 1002YOPC   C1B14859   3.904   5.439   6.198 -0.1507  0.0360 -0.5208
 1002YOPC   C2B14860   3.674   5.595   6.666 -0.0793 -0.0758  0.0208
 1002YOPC   D3B14861   3.144   5.464   6.671 -0.0286  0.3612  0.0456
 1002YOPC   C4B14862   2.763   5.180   6.726 -0.3078 -0.0445  0.1171
 1003YOPC   NC314863   7.357   3.504   4.794 -0.1081  0.0078 -0.3112
 1003YOPC   PO414864   7.291   3.599   5.222  0.1671 -0.1172 -0.1153
 1003YOPC   GL114865   7.222   3.913   5.594 -0.2731  0.0404 -0.2276
 1003YOPC   GL214866   7.015   4.132   5.505  0.0011 -0.0329 -0.1068
 1003YOPC   C1A14867   7.418   3.925   6.021  0.3521  0.0162  0.3407
 1003YOPC   D2A14868   7.748   3.978   6.356 -0.1160  0.0289  0.4191
 1003YOPC   C3A14869   7.826   4.110   6.735 -0.4505 -0.1315 -0.3423
 1003YOPC   C4A14870   7.633   4.504   7.014 -0.1204  0.1635  0.0453
 1003YOPC   C1B14871   7.229   4.352   5.861  0.2907  0.0099  0.3159
 1003YOPC   C2B14872   7.623   4.411   6.060 -0.2897 -0.2294 -0.0360
 1003YOPC   D3B14873   7.572   4.593   6.497  0.0490  0.0909  0.0794
 1003YOPC   C4B14874   7.390   4.931   6.799  0.2467  0.0884 -0.4848
 1004YOPC   NC314875   7.640   8.695   5.256 -0.4679  0.0051  0.5546
 1004YOPC   PO414876   8.174   8.634   5.214 -0.0496  0.1663 -0.3886
 1004YOPC   GL114877   8.089   8.708   5.633  0.0228 -0.1527  0.0093
 1004YOPC   GL214878   8.313   8.484   5.771 -0.0221  0.1334  0.1634
 1004YOPC   C1A14879   7.849   9.049   5.862  0.1824  0.3031 -0.2066
 1004YOPC   D2A14880   7.513   9.253   6.163  0.1254  0.0753  0.1180
 1004YOPC   C3A14881   7.527   9.659   6.297  0.1057  0.2612  0.1404
 1004YOPC   C4A14882   7.874   9.956   6.261 -0.0070 -0.0552 -0.2528
 1004YOPC   C1B14883   8.553   8.515   6.135 -0.1154  0.0423  0.1263
 1004YOPC   C2B14884   8.714   8.438   6.554  0.1438 -0.2082  0.4425
 1004YOPC   D3B14885   8.407   8.504   6.901  0.3895 -0.1034  0.0268
 1004YOPC   C4B14886   8.275   8.678   7.277  0.0913 -0.0483  0.1078
 1005YOPC   NC314887   1.675   8.709   5.182  0.1920 -0.0031  0.0924
 1005YOPC   PO414888   1.403   8.954   5.506 -0.0803 -0.1052 -0.1459
 1005YOPC   GL114889   1.358   8.811   5.886 -0.0113  0.1321 -0.0350
 1005YOPC   GL214890   1.409   8.977   6.117 -0.1590  0.0442  0.0269
 1005YOPC   C1A14891   1.171   8.554   6.152 -0.4350  0.2015 -0.1966
 1005YOPC   D2A14892   1.373   8.337   6.423  0.2912  0.2225  0.0138
 1005YOPC   C3A14893   1.369   7.915   6.397  0.0604 -0.2169 -0.0026
 1005YOPC   C4A14894   1.460   7.520   6.674 -0.1165 -0.3471  0.2391
 1005YOPC   C1B14895   1.753   9.224   6.287  0.2616  0.1492 -0.0901
 1005YOPC   C2B14896   1.869   9.613   6.308  0.2255 -0.2026 -0.0740
 1005YOPC   D3B14897   2.115   9.859   6.610  0.1599  0.0910 -0.1204
 1005YOPC   C4B14898   2.498   9.876   6.984  0.2238 -0.0968  0.2847
 1006YOPC   NC314899  12.606   1.120   5.322  0.3361  0.3225 -0.0872
 1006YOPC   PO414900  13.118   1.015   5.233  0.0832 -0.3506  0.0030
 1006YOPC   GL114901  13.133   1.292   5.557  0.0687 -0.0715 -0.0538
 1006YOPC   GL214902  12.793   1.457   5.661 -0.2516  0.0306 -0.0182
 1006YOPC   C1A14903  13.323   1.412   5.889 -0.0965 -0.0336  0.1159
 1006YOPC   D2A14904  13.474   1.081   6.147  0.1948  0.0438 -0.2519
 1006YOPC   C3A14905  13.220   1.198   6.526  0.3617 -0.5598  0.2545
 1006YOPC   C4A14906  12.930   1.025   6.843 -0.2241 -0.0517 -0.0736
 1006YOPC   C1B14907  12.897   1.251   6.081 -0.0473  0.1144  0.1255
 1006YOPC   C2B14908  13.011   0.878   6.212  0.0322  0.1800  0.2045
 1006YOPC   D3B14909  13.319   0.697   6.558  0.2477 -0.2556  0.2241
 1006YOPC   C4B14910  13.727   0.773   6.612 -0.0737  0.3215 -0.0576
 1007YOPC   NC314911  17.849   4.425   4.830  0.2992  0.3575 -0.0986
 1007YOPC   PO414912  17.972   4.769   4.960  0.0341  0.0723  0.0065
 1007YOPC   GL114913  17.918   4.680   5.297  0.1885  0.1517  0.4533
 1007YOPC   GL214914  17.769   4.598   5.576 -0.0170 -0.1575  0.1326
 1007YOPC   C1A14915  18.306   4.513   5.565 -0.1108  0.5795 -0.0773
 1007YOPC   D2A14916  18.492   4.278   5.832 -0.3448 -0.1459  0.0598
 1007YOPC   C3A14917  18.864   4.435   6.067  0.0244  0.0283 -0.0020
 1007YOPC   C4A14918  18.889   4.295   6.480  0.0041 -0.0984 -0.0810
 1007YOPC   C1B14919  17.996   4.735   5.859 -0.2147  0.0461 -0.1002
 1007YOPC   C2B14920  18.434   4.726   6.140 -0.1712  0.1170 -0.3934
 1007YOPC   D3B14921  18.454   4.476   6.591 -0.1662 -0.1460  0.2854
 1007YOPC   C4B14922  18.405   4.487   7.029  0.0222  0.0529 -0.1277
 1008YOPC   NC314923   3.503  17.000   5.031 -0.1007  0.0131  0.0202
 1008YOPC   PO414924   3.022  16.816   4.981 -0.0617  0.2117 -0.3806
 1008YOPC   GL114925   3.063  16.868   5.412  0.2046  0.0357 -0.1642
 1008YOPC   GL214926   2.856  16.695   5.587  0.0722 -0.0437  0.3217
 1008YOPC   C1A14927   3.003  17.134   5.820  0.0642 -0.0494  0.2459
 1008YOPC   D2A14928   2.792  17.022   6.214  0.0995 -0.1784 -0.1963
 1008YOPC   C3A14929   2.869  17.003   6.633  0.2694  0.0692 -0.6286
 1008YOPC   C4A14930   2.695  17.221   6.999  0.2702 -0.1617 -0.0986
 1008YOPC   C1B14931   2.571  16.617   5.940  0.0586 -0.0521  0.1380
 1008YOPC   C2B14932   2.346  16.614   6.340 -0.0463  0.0930  0.3022
 1008YOPC   D3B14933   2.385  16.732   6.652  0.0045  0.1679  0.0355
 1008YOPC   C4B14934   2.512  16.757   6.998  0.0476 -0.2998  0.0099
 1009YOPC   NC314935   7.518  16.880   4.970  0.1446  0.0182  0.0508
 1009YOPC   PO414936   7.858  17.245   5.183  0.3673  0.0315  0.0530
 1009YOPC   GL114937   7.775  16.849   5.423  0.3868 -0.1372  0.1117
 1009YOPC   GL214938   7.676  16.605   5.374  0.0796  0.0657  0.1927
 1009YOPC   C1A14939   7.766  16.777   5.862 -0.4521  0.1143  0.1540
 1009YOPC   D2A14940   7.743  16.857   6.261  0.0695 -0.2472  0.2063
 1009YOPC   C3A14941   8.202  16.920   6.469 -0.4071  0.0038 -0.1741
 1009YOPC   C4A14942   8.413  16.859   6.803  0.0514 -0.0494 -0.0710
 1009YOPC   C1B14943   7.303  16.762   5.686  0.0272  0.0917  0.1125
 1009YOPC   C2B14944   7.179  16.874   6.133 -0.2538 -0.2241  0.2866
 1009YOPC   D3B14945   6.990  17.233   6.215  0.0356  0.0754  0.0221
 1009YOPC   C4B14946   6.659  17.402   6.472  0.1926 -0.2402 -0.0136
 1010YOPC   NC314947   8.998  13.832   4.923 -0.1102  0.1570  0.0113
 1010YOPC   PO414948   8.718  13.979   5.175 -0.1265  0.3945  0.2528
 1010YOPC   GL114949   8.611  13.883   5.613  0.1173 -0.0401  0.0822
 1010YOPC   GL214950   8.832  13.747   5.750  0.3184  0.4222 -0.0275
 1010YOPC   C1A14951   8.496  13.802   6.079 -0.1086  0.0587  0.5965
 1010YOPC   D2A14952   8.082  13.726   6.267  0.0214 -0.0720  0.0877
 1010YOPC   C3A14953   7.882  13.345   6.061  0.0316  0.1041 -0.1195
 1010YOPC   C4A14954   7.789  13.101   5.794  0.1661  0.0814 -0.1822
 1010YOPC   C1B14955   8.765  13.373   6.118  0.2092 -0.0959  0.1576
 1010YOPC   C2B14956   8.755  13.319   6.556  0.2782 -0.1184 -0.1970
 1010YOPC   D3B14957   9.213  13.425   6.711 -0.0059  0.3036  0.2913
 1010YOPC   C4B14958   9.606  13.501   6.716  0.0150  0.2100 -0.0208
 1011YOPC   NC314959   4.460  19.574   4.857 -0.3458 -0.0312 -0.0733
 1011YOPC   PO414960   4.678  19.177   4.816  0.0206 -0.1809 -0.2873
 1011YOPC   GL114961   4.492  19.268   5.243  0.2510 -0.0026 -0.0104
 1011YOPC   GL214962   4.494  19.605   5.363 -0.1261  0.0881  0.3045
 1011YOPC   C1A14963   4.131  19.311   5.534 -0.0744 -0.0567  0.0651
 1011YOPC   D2A14964   4.096  19.307   5.991  0.1885 -0.1519  0.0125
 1011YOPC   C3A14965   3.933  19.412   6.314 -0.1959  0.1079  0.5549
 1011YOPC   C4A14966   4.082  19.386   6.730  0.2272  0.0445  0.1276
 1011YOPC   C1B14967   4.508  19.495   5.783  0.0920  0.1694  0.0635
 1011YOPC   C2B14968   4.752  19.351   6.076  0.2654 -0.0222  0.1235
 1011YOPC   D3B14969   4.633  19.011   6.233  0.2780 -0.0125 -0.2531
 1011YOPC   C4B14970   4.659  18.417   6.350 -0.1293 -0.0986  0.0984
 1012YOPC   NC314971   4.036   1.306   5.206 -0.1234  0.0518  0.1252
 1012YOPC   PO414972   4.177   0.865   5.300 -0.3326 -0.0223  0.1255
 1012YOPC   GL114973   4.364   0.971   5.706 -0.2426  0.0089 -0.0258
 1012YOPC   GL214974   3.991   0.928   5.800  0.1991 -0.0091  0.0851
 1012YOPC   C1A14975   4.361   0.831   6.115  0.0126 -0.0034  0.0830
 1012YOPC   D2A14976   4.417   0.943   6.609 -0.1663 -0.1352 -0.0410
 1012YOPC   C3A14977   3.926   1.128   6.703 -0.4265  0.1140  0.1108
 1012YOPC   C4A14978   3.816   1.333   7.155 -0.1308  0.2848 -0.0548
 1012YOPC   C1B14979   3.847   0.851   6.224  0.1625  0.0068 -0.2741
 1012YOPC   C2B14980   4.029   0.618   6.563 -0.0477  0.0550 -0.2279
 1012YOPC   D3B14981   3.868   0.551   6.979 -0.0132  0.0278  0.3190
 1012YOPC   C4B14982   3.866   0.408   7.385  0.0877 -0.2319 -0.0711
 1013YOPC   NC314983   5.881   3.908   4.620  0.1490 -0.2947  0.2004
 1013YOPC   PO414984   5.975   3.854   5.127  0.0856  0.2966 -0.1657
 1013YOPC   GL114985   5.932   3.560   5.527  0.0695  0.1623  0.1476
 1013YOPC   GL214986   5.553   3.573   5.544 -0.1364  0.0135  0.1829
 1013YOPC   C1A14987   5.919   3.525   6.007  0.5492 -0.1682  0.2201
 1013YOPC   D2A14988   5.874   3.413   6.343 -0.0490  0.1073  0.2558
 1013YOPC   C3A14989   6.165   3.642   6.646 -0.0813 -0.2540  0.0354
 1013YOPC   C4A14990   6.223   4.102   6.724 -0.2405  0.0797 -0.0074
 1013YOPC   C1B14991   5.408   3.542   6.077  0.0149 -0.0478 -0.3488
 1013YOPC   C2B14992   5.389   3.409   6.494  0.1819 -0.2197 -0.2228
 1013YOPC   D3B14993   5.260   3.389   6.964 -0.3632  0.1608  0.0769
 1013YOPC   C4B14994   5.021   3.680   7.163 -0.0544  0.3072 -0.0335
 1014YOPC   NC314995   3.359  19.095   4.978 -0.1383 -0.1804  0.0217
 1014YOPC   PO414996   3.705  18.987   4.748  0.1882  0.0600  0.1154
 1014YOPC   GL114997   3.941  18.957   5.292  0.0770  0.2637 -0.0110
 1014YOPC   GL214998   3.703  19.158   5.384 -0.0979  0.3180 -0.0747
 1014YOPC   C1A14999   3.986  18.829   5.725  0.3001  0.1140 -0.0615
 1014YOPC   D2A15000   4.190  18.494   6.034 -0.2200  0.0320  0.1353
 1014YOPC   C3A15001   3.891  18.140   6.079  0.0928  0.3236  0.2300
 1014YOPC   C4A15002   3.530  18.100   5.930  0.0834 -0.0597  0.0678
 1014YOPC   C1B15003   3.618  19.303   5.697 -0.0665  0.0259 -0.1843
 1014YOPC   C2B15004   3.622  19.085   6.150  0.1443  0.5060  0.0704
 1014YOPC   D3B15005   4.008  18.923   6.288  0.1413 -0.0461 -0.1367
 1014YOPC   C4B15006   4.226  18.557   6.549  0.0374 -0.4161 -0.2322
 1015YOPC   NC315007   9.909   7.069   5.135 -0.0758  0.0732 -0.0629
 1015YOPC   PO415008   9.772   7.256   5.545 -0.1696  0.1989 -0.1052
 1015YOPC   GL115009  10.100   7.394   5.844 -0.2583  0.0806  0.0865
 1015YOPC   GL215010  10.337   7.372   5.831 -0.0020 -0.2003 -0.2169
 1015YOPC   C1A15011  10.077   7.493   6.223  0.0556  0.1231  0.1135
 1015YOPC   D2A15012  10.111   7.430   6.588 -0.0810 -0.2645  0.1272
 1015YOPC   C3A15013   9.949   7.739   6.965  0.1308  0.0047 -0.1051
 1015YOPC   C4A15014   9.550   7.568   7.165  0.1855  0.2755 -0.0709
 1015YOPC   C1B15015  10.104   7.013   6.128  0.3405 -0.4047 -0.2740
 1015YOPC   C2B15016  10.129   6.901   6.545 -0.3174  0.1728  0.2331
 1015YOPC   D3B15017  10.255   7.118   6.912  0.0904  0.1952 -0.2884
 1015YOPC   C4B15018  10.240   7.374   7.227 -0.0323 -0.0668  0.0383
 1016YOPC   NC315019   8.197   3.095   5.119 -0.1410  0.0255 -0.2665
 1016YOPC   PO415020   7.867   2.793   5.183 -0.2327 -0.2237 -0.2438
 1016YOPC   GL115021   7.881   2.661   5.569 -0.1951 -0.1167 -0.3518
 1016YOPC   GL215022   8.088   2.941   5.632 -0.3965 -0.1696  0.0079
 1016YOPC   C1A15023   7.865   2.285   5.655  0.2342 -0.4155 -0.0647
 1016YOPC   D2A15024   7.871   1.834   5.738  0.2811  0.0973 -0.1850
 1016YOPC   C3A15025   7.951   1.820   6.093  0.1042 -0.0029  0.0338
 1016YOPC   C4A15026   7.695   1.820   6.377  0.3523 -0.1525  0.0631
 1016YOPC   C1B15027   8.028   3.310   5.828 -0.1590 -0.0416  0.2185
 1016YOPC   C2B15028   7.889   3.454   6.110  0.2026  0.2247  0.1464
 1016YOPC   D3B15029   7.477   3.410   6.227 -0.1923  0.2633  0.0882
 1016YOPC   C4B15030   7.101   3.607   6.393 -0.2089 -0.1424 -0.1406
 1017YOPC   NC315031   7.806   0.415   5.197  0.1112 -0.2278 -0.0648
 1017YOPC   PO415032   7.488   0.076   5.242 -0.2161  0.1751 -0.1700
 1017YOPC   GL115033   7.520   0.146   5.604  0.1740  0.2668 -0.1155
 1017YOPC   GL215034   7.593   0.480   5.672 -0.1121  0.1914  0.2816
 1017YOPC   C1A15035   7.334   0.049   5.936 -0.2047 -0.1886 -0.0884
 1017YOPC   D2A15036   7.176   0.126   6.349 -0.0015 -0.0805  0.2074
 1017YOPC   C3A15037   6.947   0.483   6.457 -0.2647 -0.0487 -0.1535
 1017YOPC   C4A15038   6.995   0.851   6.748  0.1744 -0.0146 -0.2077
 1017YOPC   C1B15039   7.677   0.423   6.128  0.1832  0.3957  0.1516
 1017YOPC   C2B15040   7.764   0.386   6.480  0.0862  0.2060  0.1291
 1017YOPC   D3B15041   7.509  -0.050   6.715  0.0524 -0.2694  0.0089
 1017YOPC   C4B15042   7.361  -0.280   7.106  0.2574  0.0050  0.1034
 1018YOPC   NC315043   3.406   3.388   4.697  0.0719 -0.0967  0.1926
 1018YOPC   PO415044   3.659   3.647   4.924  0.0984 -0.1941 -0.0057
 1018YOPC   GL115045   3.877   3.506   5.254 -0.0368  0.0432 -0.0393
 1018YOPC   GL215046   3.865   3.685   5.383 -0.1406  0.1360 -0.1289
 1018YOPC   C1A15047   3.918   3.270   5.628 -0.0366  0.3286  0.2139
 1018YOPC   D2A15048   3.903   2.996   5.993 -0.1155 -0.1099  0.0113
 1018YOPC   C3A15049   4.124   2.929   6.258  0.2163  0.1331 -0.0036
 1018YOPC   C4A15050   4.249   3.164   6.499 -0.0704  0.1479 -0.4615
 1018YOPC   C1B15051   3.756   3.795   5.845 -0.3829  0.2099 -0.1839
 1018YOPC   C2B15052   3.579   3.989   6.105  0.0211 -0.5375 -0.0458
 1018YOPC   D3B15053   3.603   3.783   6.435 -0.0139 -0.1466 -0.1097
 1018YOPC   C4B15054   3.162   3.825   6.567 -0.1155  0.3750  0.1405
 1019YOPC   NC315055   7.439   2.495   5.140  0.2794 -0.0569  0.1875
 1019YOPC   PO415056   7.449   2.042   5.147 -0.0874 -0.1125  0.0831
 1019YOPC   GL115057   7.402   1.967   5.597 -0.3607 -0.0769 -0.0401
 1019YOPC   GL215058   7.064   1.803   5.609  0.1021 -0.0832 -0.2456
 1019YOPC   C1A15059   7.538   2.090   5.985  0.0703  0.2753 -0.2047
 1019YOPC   D2A15060   7.794   2.251   6.136 -0.1647  0.3683 -0.3452
 1019YOPC   C3A15061   8.056   2.453   6.167 -0.1527  0.2396 -0.1141
 1019YOPC   C4A15062   8.151   2.886   6.207  0.0756  0.0339 -0.1959
 1019YOPC   C1B15063   6.961   1.743   6.028  0.2708  0.0330  0.1527
 1019YOPC   C2B15064   6.858   1.607   6.411 -0.1842 -0.3094 -0.4058
 1019YOPC   D3B15065   7.087   1.351   6.709 -0.1289 -0.3561  0.1291
 1019YOPC   C4B15066   7.131   1.355   7.197  0.2091 -0.1763 -0.3082
 1020YOPC   NC315067  13.491  15.939   4.739 -0.0975 -0.0144 -0.0481
 1020YOPC   PO415068  13.383  16.417   4.658  0.1680  0.2947 -0.0190
 1020YOPC   GL115069  13.478  16.179   5.163  0.0562  0.3422  0.4983
 1020YOPC   GL215070  13.298  15.954   5.323 -0.0522  0.1795 -0.0024
 1020YOPC   C1A15071  13.616  16.117   5.654  0.2028  0.0951 -0.2802
 1020YOPC   D2A15072  13.851  16.349   5.809  0.2760  0.0759 -0.2891
 1020YOPC   C3A15073  14.059  16.310   6.219 -0.0662 -0.2347  0.0076
 1020YOPC   C4A15074  14.051  16.055   6.594  0.0845  0.3416 -0.2914
 1020YOPC   C1B15075  13.220  15.899   5.848 -0.2141  0.0082 -0.1684
 1020YOPC   C2B15076  13.023  16.142   6.171  0.1351  0.1331  0.0185
 1020YOPC   D3B15077  13.172  16.208   6.565 -0.1721 -0.2567 -0.2332
 1020YOPC   C4B15078  13.311  16.246   6.907  0.2248 -0.2117 -0.0575
 1021YOPC   NC315079   8.957  11.006   4.936  0.0129  0.0490  0.1460
 1021YOPC   PO415080   9.425  10.732   4.999 -0.3925  0.3275  0.3300
 1021YOPC   GL115081   9.515  10.832   5.380  0.0173 -0.2952 -0.1047
 1021YOPC   GL215082   9.780  11.172   5.485 -0.2141 -0.0949 -0.1164
 1021YOPC   C1A15083   9.310  10.769   5.808 -0.0072  0.0604 -0.2078
 1021YOPC   D2A15084   9.345  10.518   6.151  0.2850  0.0320  0.1562
 1021YOPC   C3A15085   9.637  10.558   6.533 -0.0242 -0.2686 -0.0866
 1021YOPC   C4A15086   9.953  10.648   6.899  0.2914 -0.2525 -0.0925
 1021YOPC   C1B15087  10.011  11.193   5.892 -0.2087  0.1058  0.1428
 1021YOPC   C2B15088  10.253  11.432   5.907 -0.3436  0.0200  0.0620
 1021YOPC   D3B15089  10.597  11.430   6.251 -0.1355  0.0225 -0.0816
 1021YOPC   C4B15090  10.891  11.192   6.500  0.2331 -0.3820 -0.2447
 1022YOPC   NC315091  14.322   4.735   5.024 -0.0153 -0.0173  0.1153
 1022YOPC   PO415092  14.664   4.826   5.342 -0.0821 -0.1355  0.1340
 1022YOPC   GL115093  14.738   4.614   5.760 -0.1123  0.1329  0.1437
 1022YOPC   GL215094  14.803   4.310   5.652 -0.2756 -0.0002  0.0305
 1022YOPC   C1A15095  14.753   4.825   6.154  0.1929 -0.0993 -0.3347
 1022YOPC   D2A15096  15.267   4.783   6.286 -0.1382 -0.0676  0.0387
 1022YOPC   C3A15097  15.578   4.450   6.316  0.0621  0.0004  0.3799
 1022YOPC   C4A15098  15.793   4.308   6.605 -0.0879  0.0979  0.4550
 1022YOPC   C1B15099  14.768   3.965   5.758 -0.2080  0.1557  0.1505
 1022YOPC   C2B15100  14.422   3.654   5.826 -0.0661  0.0794 -0.1536
 1022YOPC   D3B15101  14.376   3.556   6.231  0.0207  0.1031 -0.0183
 1022YOPC   C4B15102  14.523   3.469   6.692 -0.0241 -0.1973  0.1805
 1023YOPC   NC315103  11.234  15.215   5.235  0.0309 -0.3443  0.1124
 1023YOPC   PO415104  11.533  15.107   5.258  0.2989  0.1192 -0.1893
 1023YOPC   GL115105  11.700  15.208   5.698 -0.1660  0.1361 -0.0801
 1023YOPC   GL215106  11.868  14.940   5.664 -0.0671  0.0106 -0.1682
 1023YOPC   C1A15107  11.712  15.483   6.105  0.0221  0.0911  0.1288
 1023YOPC   D2A15108  11.703  15.609   6.576  0.0098  0.1279 -0.0392
 1023YOPC   C3A15109  11.875  15.875   6.816  0.3825 -0.1672  0.3215
 1023YOPC   C4A15110  12.167  16.177   6.656 -0.0618 -0.1666  0.1988
 1023YOPC   C1B15111  12.028  14.980   6.139 -0.1054  0.2596 -0.0790
 1023YOPC   C2B15112  12.057  15.236   6.466  0.0796  0.1031  0.0410
 1023YOPC   D3B15113  12.319  15.042   6.839  0.1550 -0.1511 -0.1910
 1023YOPC   C4B15114  12.708  15.146   7.196 -0.2241 -0.0902 -0.1806
 1024YOPC   NC315115  15.406   2.743   4.929 -0.0422  0.1394  0.0628
 1024YOPC   PO415116  15.112   2.356   4.820 -0.1614  0.1800  0.3003
 1024YOPC   GL115117  14.949   2.441   5.252  0.0701 -0.0475  0.0022
 1024YOPC   GL215118  14.787   2.656   5.224 -0.3193  0.0237  0.3913
 1024YOPC   C1A15119  14.842   2.402   5.668 -0.2009 -0.2280  0.0161
 1024YOPC   D2A15120  14.735   2.736   5.936  0.3919 -0.0627  0.2436
 1024YOPC   C3A15121  14.961   2.758   6.343  0.1980 -0.1333 -0.3053
 1024YOPC   C4A15122  15.305   2.691   6.459 -0.0592  0.1959 -0.3910
 1024YOPC   C1B15123  14.645   3.061   5.434 -0.1418  0.1281  0.2628
 1024YOPC   C2B15124  14.410   3.159   5.796  0.2133  0.1832 -0.1591
 1024YOPC   D3B15125  14.477   3.070   6.248 -0.0437  0.0886 -0.1161
 1024YOPC   C4B15126  14.636   3.039   6.633  0.0116 -0.1305  0.1242
 1025YOPC   NC315127  16.553  15.904   4.791  0.0563  0.5183 -0.1636
 1025YOPC   PO415128  16.165  15.952   4.673 -0.0894  0.0967 -0.1015
 1025YOPC   GL115129  16.166  15.926   5.167 -0.1607  0.0957 -0.5022
 1025YOPC   GL215130  16.092  16.216   5.239 -0.0761 -0.0560 -0.3240
 1025YOPC   C1A15131  16.430  15.691   5.433 -0.0909 -0.0862 -0.0960
 1025YOPC   D2A15132  16.470  15.795   5.954 -0.1127  0.1173 -0.1860
 1025YOPC   C3A15133  16.117  15.548   6.210  0.1236  0.0889 -0.2171
 1025YOPC   C4A15134  16.047  15.467   6.756 -0.0554 -0.0527 -0.1054
 1025YOPC   C1B15135  15.937  15.958   5.682 -0.0316  0.0250  0.0455
 1025YOPC   C2B15136  15.780  15.923   6.150 -0.3610 -0.0792 -0.2633
 1025YOPC   D3B15137  16.201  16.006   6.494  0.2557 -0.0602  0.1861
 1025YOPC   C4B15138  16.162  16.331   6.878  0.3718 -0.0818 -0.1924
 1026YOPC   NC315139   1.899   2.310   4.796 -0.4289 -0.0616 -0.0395
 1026YOPC   PO415140   2.166   2.409   5.148  0.0845 -0.3727  0.0323
 1026YOPC   GL115141   2.275   2.707   5.526 -0.2167 -0.0890  0.2417
 1026YOPC   GL215142   2.482   2.427   5.669 -0.1419 -0.4409 -0.2854
 1026YOPC   C1A15143   2.040   2.785   5.879  0.1157  0.0872 -0.3787
 1026YOPC   D2A15144   1.786   2.774   6.283  0.2654  0.2414 -0.1025
 1026YOPC   C3A15145   1.751   2.464   6.527  0.0121  0.0409  0.2229
 1026YOPC   C4A15146   2.074   2.306   6.723 -0.0111 -0.4190  0.3340
 1026YOPC   C1B15147   2.806   2.250   5.971 -0.0366  0.2122 -0.2110
 1026YOPC   C2B15148   3.148   2.463   6.187  0.0672  0.0534 -0.0212
 1026YOPC   D3B15149   3.397   2.156   6.412  0.3204  0.2310  0.0463
 1026YOPC   C4B15150   3.522   1.995   6.802  0.0857  0.0195 -0.1786
 1027YOPC   NC315151   2.749   4.170   4.523  0.0347 -0.0080  0.0304
 1027YOPC   PO415152   2.720   4.017   4.892 -0.2808  0.0673 -0.2210
 1027YOPC   GL115153   2.803   4.161   5.333  0.2205 -0.1633  0.1739
 1027YOPC   GL215154   3.077   4.171   5.450  0.1845  0.2627 -0.1791
 1027YOPC   C1A15155   2.638   4.227   5.622 -0.2321 -0.1402 -0.2502
 1027YOPC   D2A15156   2.753   4.399   5.953 -0.0947 -0.0145  0.1499
 1027YOPC   C3A15157   2.746   4.540   6.368 -0.3076 -0.0075 -0.0004
 1027YOPC   C4A15158   2.669   4.710   6.700  0.0523  0.3364  0.1021
 1027YOPC   C1B15159   3.250   4.327   5.813 -0.0431  0.1587 -0.1639
 1027YOPC   C2B15160   3.091   4.202   6.210  0.3960  0.0448 -0.1611
 1027YOPC   D3B15161   3.474   4.291   6.542 -0.0937  0.3436 -0.2599
 1027YOPC   C4B15162   3.838   4.296   6.758  0.1448 -0.2484  0.0400
 1028YOPC   NC315163  17.922  10.050   5.463  0.0032  0.1042 -0.3903
 1028YOPC   PO415164  17.869   9.712   5.593  0.0496 -0.1776 -0.1328
 1028YOPC   GL115165  17.572   9.794   5.798 -0.3469 -0.1323 -0.0540
 1028YOPC   GL215166  17.552  10.207   5.797  0.1837  0.1656 -0.1572
 1028YOPC   C1A15167  17.299   9.893   6.149 -0.3999  0.0719  0.1269
 1028YOPC   D2A15168  17.005   9.885   6.484 -0.4031  0.1310  0.0693
 1028YOPC   C3A15169  16.637   9.826   6.527 -0.0895 -0.1473  0.2953
 1028YOPC   C4A15170  16.274   9.753   6.408 -0.2168 -0.1200 -0.1685
 1028YOPC   C1B15171  17.251  10.393   6.115  0.5109  0.2085  0.0271
 1028YOPC   C2B15172  16.809  10.705   6.278  0.0259 -0.2006  0.1368
 1028YOPC   D3B15173  16.786  10.834   6.706 -0.1184  0.0080  0.0164
 1028YOPC   C4B15174  16.976  10.796   7.129  0.1132 -0.2971 -0.1546
 1029YOPC   NC315175   2.690  18.264   5.196  0.0841 -0.1109 -0.2373
 1029YOPC   PO415176   3.180  18.367   5.330  0.0993  0.2216  0.0111
 1029YOPC   GL115177   3.038  18.317   5.673 -0.3360 -0.1307  0.0929
 1029YOPC   GL215178   2.797  18.497   5.622 -0.0650  0.2019 -0.0236
 1029YOPC   C1A15179   3.092  18.372   6.019 -0.1831  0.3154 -0.3019
 1029YOPC   D2A15180   2.895  18.514   6.387 -0.0474 -0.0417 -0.1552
 1029YOPC   C3A15181   3.005  18.691   6.825  0.3201 -0.2278 -0.0917
 1029YOPC   C4A15182   3.255  19.034   7.014 -0.0896  0.2660 -0.2422
 1029YOPC   C1B15183   2.924  18.903   5.844 -0.2251 -0.0547 -0.1256
 1029YOPC   C2B15184   2.998  18.945   6.278 -0.1105 -0.0743  0.0970
 1029YOPC   D3B15185   3.306  18.956   6.530 -0.3022 -0.1317  0.1933
 1029YOPC   C4B15186   3.688  19.070   6.743  0.1189  0.0870 -0.0147
 1030YOPC   NC315187  12.790  10.716   5.046 -0.0120 -0.0436 -0.0344
 1030YOPC   PO415188  12.943  10.309   5.295  0.1876  0.2749 -0.4464
 1030YOPC   GL115189  12.875  10.434   5.757 -0.0112  0.1386 -0.3627
 1030YOPC   GL215190  12.945  10.136   5.852 -0.0293 -0.2424 -0.0128
 1030YOPC   C1A15191  13.014  10.790   6.013 -0.5659  0.0661  0.2242
 1030YOPC   D2A15192  13.412  10.750   6.363 -0.6391 -0.0523 -0.0093
 1030YOPC   C3A15193  13.328  11.027   6.654  0.0476 -0.3447 -0.1260
 1030YOPC   C4A15194  13.397  11.430   6.774  0.1204  0.2122 -0.1567
 1030YOPC   C1B15195  13.017  10.323   6.229 -0.0504 -0.1753 -0.1116
 1030YOPC   C2B15196  12.929  10.712   6.555 -0.1034 -0.2063 -0.0095
 1030YOPC   D3B15197  12.705  10.969   6.402 -0.3012 -0.1613  0.3272
 1030YOPC   C4B15198  12.589  11.405   6.149  0.0168  0.0933  0.0795
 1031YOPC   NC315199  12.675   9.229   5.047 -0.2188  0.1153  0.0808
 1031YOPC   PO415200  12.748   8.822   5.204 -0.2951  0.0348 -0.0096
 1031YOPC   GL115201  12.667   8.708   5.532 -0.0671  0.3293  0.1286
 1031YOPC   GL215202  12.748   8.873   5.746 -0.0824  0.2621  0.0885
 1031YOPC   C1A15203  12.412   8.413   5.960 -0.1365 -0.0042 -0.1243
 1031YOPC   D2A15204  12.060   8.310   6.061 -0.1416  0.0817 -0.1132
 1031YOPC   C3A15205  11.660   8.123   6.380 -0.0550 -0.5639 -0.4354
 1031YOPC   C4A15206  11.171   8.031   6.502  0.0328  0.1773 -0.1525
 1031YOPC   C1B15207  12.645   8.805   6.274 -0.2233 -0.1694  0.1667
 1031YOPC   C2B15208  12.533   8.778   6.725 -0.0620 -0.0119  0.0828
 1031YOPC   D3B15209  12.510   8.224   6.879  0.1359 -0.1914  0.3179
 1031YOPC   C4B15210  12.335   8.036   7.107 -0.0877  0.2562 -0.4351
 1032YOPC   NC315211   0.993   6.755   5.193 -0.1254 -0.1172 -0.1628
 1032YOPC   PO415212   0.770   7.028   5.355 -0.2085  0.3224  0.1756
 1032YOPC   GL115213   0.681   7.121   5.634 -0.0458  0.0673  0.0875
 1032YOPC   GL215214   0.295   7.010   5.538 -0.3243  0.0055 -0.1318
 1032YOPC   C1A15215   0.566   7.153   6.048 -0.1698 -0.0639  0.1778
 1032YOPC   D2A15216   0.526   7.149   6.520 -0.0159  0.1712 -0.2534
 1032YOPC   C3A15217   0.216   7.219   6.848 -0.1931  0.1832 -0.1571
 1032YOPC   C4A15218  -0.132   7.255   7.129 -0.0479  0.0258  0.2417
 1032YOPC   C1B15219   0.098   7.241   5.944 -0.1354 -0.0675  0.0330
 1032YOPC   C2B15220   0.005   7.288   6.394 -0.1958  0.0568  0.0688
 1032YOPC   D3B15221  -0.344   7.289   6.610 -0.0444  0.1427  0.1518
 1032YOPC   C4B15222  -0.625   7.335   6.881 -0.1325 -0.1410  0.0664
 1033YOPC   NC315223   9.817   0.192   5.140  0.0178 -0.1569  0.4817
 1033YOPC   PO415224   9.935   0.591   4.850  0.1909  0.1007 -0.5230
 1033YOPC   GL115225  10.266   0.513   5.160 -0.1663  0.1729 -0.3145
 1033YOPC   GL215226  10.524   0.340   5.058 -0.0741  0.0501  0.1642
 1033YOPC   C1A15227  10.339   0.413   5.587  0.0578  0.0916 -0.0176
 1033YOPC   D2A15228  10.434   0.153   5.946 -0.1659 -0.2946 -0.3539
 1033YOPC   C3A15229  10.276   0.161   6.300  0.1238 -0.0846 -0.0636
 1033YOPC   C4A15230   9.978   0.354   6.656  0.3071 -0.1146  0.1193
 1033YOPC   C1B15231  10.793   0.635   5.296  0.2975  0.2964 -0.0847
 1033YOPC   C2B15232  11.097   0.698   5.556  0.0351  0.0882 -0.3459
 1033YOPC   D3B15233  11.070   0.895   5.994 -0.1080  0.3195 -0.0507
 1033YOPC   C4B15234  10.987   0.891   6.390  0.0926 -0.0602 -0.1521
 1034YOPC   NC315235   3.739   6.315   5.228 -0.1955  0.1325 -0.2908
 1034YOPC   PO415236   3.774   5.869   5.189  0.2232 -0.1957  0.1514
 1034YOPC   GL115237   3.993   5.976   5.663 -0.0707  0.1342  0.1016
 1034YOPC   GL215238   3.746   6.147   5.824  0.2573  0.3036 -0.2510
 1034YOPC   C1A15239   4.154   6.205   6.115  0.0484 -0.1669 -0.4501
 1034YOPC   D2A15240   4.218   6.220   6.593  0.0162 -0.3283 -0.2593
 1034YOPC   C3A15241   4.250   5.934   6.871  0.0176  0.1001 -0.0120
 1034YOPC   C4A15242   4.424   5.861   7.263 -0.0037 -0.1805  0.0227
 1034YOPC   C1B15243   3.942   6.606   5.910 -0.2351  0.1361  0.1480
 1034YOPC   C2B15244   3.849   7.010   5.785 -0.3206  0.1266  0.2018
 1034YOPC   D3B15245   3.992   7.344   6.166  0.2699 -0.6710 -0.2087
 1034YOPC   C4B15246   4.270   7.254   6.391  0.1686 -0.0546 -0.2392
 1035YOPC   NC315247  17.269   8.211   5.244  0.2852  0.0089  0.2186
 1035YOPC   PO415248  16.930   8.142   5.550 -0.2688  0.3870  0.0122
 1035YOPC   GL115249  17.030   8.292   5.895  0.2992  0.1382  0.0918
 1035YOPC   GL215250  17.358   8.439   5.962 -0.2090  0.1063 -0.1420
 1035YOPC   C1A15251  17.009   8.140   6.247  0.1486 -0.0008  0.1062
 1035YOPC   D2A15252  16.763   8.187   6.614  0.1575 -0.2885 -0.0265
 1035YOPC   C3A15253  17.005   8.322   6.938 -0.2643 -0.0248  0.1374
 1035YOPC   C4A15254  17.070   8.513   7.295  0.3368  0.0912  0.0632
 1035YOPC   C1B15255  17.567   8.374   6.342  0.0555  0.1225 -0.1755
 1035YOPC   C2B15256  17.778   8.340   6.696 -0.2300 -0.0217 -0.1687
 1035YOPC   D3B15257  18.270   8.353   6.824  0.2869 -0.1420 -0.1322
 1035YOPC   C4B15258  18.478   8.741   6.802  0.1868 -0.0076 -0.1211
 1036YOPC   NC315259   8.035   8.168   5.056 -0.0249 -0.2346  0.3246
 1036YOPC   PO415260   7.858   7.813   5.182 -0.3366  0.1227 -0.2119
 1036YOPC   GL115261   7.947   7.590   5.529  0.0368 -0.0170 -0.2065
 1036YOPC   GL215262   7.770   7.364   5.633  0.3972 -0.2487 -0.4974
 1036YOPC   C1A15263   8.010   7.704   5.912 -0.3455 -0.1539 -0.1189
 1036YOPC   D2A15264   8.142   7.627   6.308 -0.0961 -0.0359  0.2971
 1036YOPC   C3A15265   8.200   7.989   6.626  0.0826 -0.0442 -0.0117
 1036YOPC   C4A15266   8.166   8.391   6.490  0.0003  0.1553 -0.0618
 1036YOPC   C1B15267   7.753   7.343   6.126  0.0367  0.0725  0.2344
 1036YOPC   C2B15268   7.673   7.537   6.449 -0.0529 -0.0032  0.2420
 1036YOPC   D3B15269   7.281   7.563   6.727  0.1711 -0.1474  0.0699
 1036YOPC   C4B15270   7.060   7.753   7.127  0.1799 -0.3475 -0.5135
 1037YOPC   NC315271   9.879   9.516   4.971  0.0106  0.1661  0.2986
 1037YOPC   PO415272   9.948   9.054   5.172  0.1417 -0.1096 -0.2808
 1037YOPC   GL115273  10.168   9.061   5.605 -0.0027 -0.2439 -0.1368
 1037YOPC   GL215274  10.420   8.785   5.571 -0.2760  0.0925 -0.3193
 1037YOPC   C1A15275  10.212   8.950   5.959  0.1382  0.0842 -0.0323
 1037YOPC   D2A15276  10.340   8.756   6.398  0.3870 -0.1946  0.2471
 1037YOPC   C3A15277  10.556   8.941   6.729 -0.0233 -0.1462  0.3290
 1037YOPC   C4A15278  10.404   9.087   7.124 -0.1240  0.2556  0.2703
 1037YOPC   C1B15279  10.748   8.790   5.975  0.1426 -0.0186  0.0632
 1037YOPC   C2B15280  11.030   8.861   6.310  0.0378 -0.0593  0.0505
 1037YOPC   D3B15281  11.300   8.546   6.464  0.1844  0.0151  0.1715
 1037YOPC   C4B15282  11.695   8.629   6.625 -0.0956  0.1152 -0.2920
 1038YOPC   NC315283   8.504   8.995   4.984  0.0979  0.2072  0.3287
 1038YOPC   PO415284   8.948   8.937   5.231 -0.0544 -0.1517  0.0585
 1038YOPC   GL115285   9.013   8.756   5.633  0.0681  0.1188  0.2204
 1038YOPC   GL215286   9.265   8.699   5.873 -0.0118  0.0699  0.0888
 1038YOPC   C1A15287   8.839   8.904   6.097 -0.1628  0.1489  0.1152
 1038YOPC   D2A15288   8.643   9.003   6.382 -0.0553 -0.2358 -0.0166
 1038YOPC   C3A15289   8.595   8.963   6.910 -0.2176 -0.0925  0.1006
 1038YOPC   C4A15290   8.708   8.889   7.370  0.1104 -0.6523  0.3559
 1038YOPC   C1B15291   9.287   8.731   6.358 -0.0762  0.0273  0.0904
 1038YOPC   C2B15292   9.034   8.804   6.663 -0.4889 -0.0776  0.0588
 1038YOPC   D3B15293   9.173   8.854   7.101  0.3025  0.0672  0.0873
 1038YOPC   C4B15294   9.462   9.127   7.212  0.0072  0.0330  0.0932
 1039YOPC   NC315295  11.083   5.591   5.705 -0.6370  0.1150 -0.2443
 1039YOPC   PO415296  10.852   5.162   5.719  0.2324 -0.0641  0.1492
 1039YOPC   GL115297  10.556   5.179   6.052  0.1397  0.0548 -0.2511
 1039YOPC   GL215298  10.439   4.935   5.881 -0.0267 -0.0948 -0.0308
 1039YOPC   C1A15299  10.335   5.219   6.562  0.0334  0.2369 -0.0495
 1039YOPC   D2A15300  10.494   5.106   6.840 -0.0179  0.2838  0.3252
 1039YOPC   C3A15301  10.650   5.425   7.061  0.1963 -0.3428 -0.1596
 1039YOPC   C4A15302  10.490   5.752   7.412  0.1031  0.1274 -0.0457
 1039YOPC   C1B15303  10.369   4.802   6.287 -0.0247 -0.2760 -0.0458
 1039YOPC   C2B15304  10.299   4.635   6.719  0.1873 -0.1589 -0.1711
 1039YOPC   D3B15305  10.014   4.835   6.933 -0.3891 -0.1279  0.1474
 1039YOPC   C4B15306   9.665   5.036   7.140  0.3441  0.2837 -0.3360
 1040YOPC   NC315307  14.729  11.475   5.098 -0.1566  0.3617 -0.1309
 1040YOPC   PO415308  14.683  11.019   5.128 -0.1609  0.3143 -0.0530
 1040YOPC   GL115309  14.764  11.258   5.615  0.0108  0.1125 -0.0799
 1040YOPC   GL215310  14.892  11.012   5.847 -0.4141 -0.0040  0.0466
 1040YOPC   C1A15311  14.808  11.454   6.018  0.0381  0.0766 -0.3512
 1040YOPC   D2A15312  14.534  11.380   6.285 -0.2051 -0.1339  0.0893
 1040YOPC   C3A15313  14.762  11.131   6.621  0.1354  0.0377  0.1999
 1040YOPC   C4A15314  14.772  10.951   7.012  0.1868 -0.1236  0.0634
 1040YOPC   C1B15315  14.652  10.921   6.134 -0.3685 -0.5501  0.0823
 1040YOPC   C2B15316  14.310  10.938   6.379 -0.2105 -0.2088  0.3297
 1040YOPC   D3B15317  14.412  10.595   6.701 -0.1075  0.2684 -0.1334
 1040YOPC   C4B15318  14.702  10.351   6.804 -0.0563 -0.1219 -0.0860
 1041YOPC   NC315319  15.818   4.783   4.626 -0.2207  0.2207 -0.0394
 1041YOPC   PO415320  15.894   4.842   5.023  0.2584 -0.2354  0.2334
 1041YOPC   GL115321  16.009   4.761   5.528 -0.1964  0.0554  0.0541
 1041YOPC   GL215322  16.132   4.476   5.454  0.0973  0.0107  0.0603
 1041YOPC   C1A15323  16.046   4.756   5.962  0.1549  0.0663  0.2661
 1041YOPC   D2A15324  15.987   4.943   6.319 -0.0697  0.0954 -0.1410
 1041YOPC   C3A15325  15.788   4.832   6.656 -0.0496 -0.1065 -0.1834
 1041YOPC   C4A15326  15.969   4.569   7.031  0.1101 -0.1348 -0.0376
 1041YOPC   C1B15327  16.351   4.382   5.847  0.3098  0.1135  0.2970
 1041YOPC   C2B15328  16.047   4.306   6.154 -0.1399  0.2901  0.0432
 1041YOPC   D3B15329  15.782   3.976   6.231 -0.2724 -0.0805  0.0095
 1041YOPC   C4B15330  15.478   3.716   6.260  0.0739  0.1798 -0.1085
 1042YOPC   NC315331  10.536  14.464   5.533 -0.2427 -0.1517 -0.0858
 1042YOPC   PO415332  10.212  14.762   5.289  0.4686  0.1147  0.2643
 1042YOPC   GL115333  10.268  14.777   5.784 -0.0369  0.1667 -0.1091
 1042YOPC   GL215334  10.445  14.808   6.069 -0.1715  0.0474 -0.0138
 1042YOPC   C1A15335   9.955  14.594   6.136 -0.0021  0.2166 -0.4489
 1042YOPC   D2A15336   9.583  14.453   6.127 -0.0848 -0.2105  0.1329
 1042YOPC   C3A15337   9.342  14.328   6.362  0.2583  0.3449  0.0454
 1042YOPC   C4A15338   9.360  14.425   6.761 -0.0611 -0.1312 -0.0039
 1042YOPC   C1B15339  10.817  14.677   6.374  0.4187 -0.1947 -0.1943
 1042YOPC   C2B15340  11.196  14.792   6.492 -0.1104  0.0581 -0.2305
 1042YOPC   D3B15341  11.523  14.560   6.478 -0.2109  0.1028  0.1061
 1042YOPC   C4B15342  12.040  14.464   6.636 -0.1125  0.2335 -0.0010
 1043YOPC   NC315343   8.670   7.283   5.030 -0.1230  0.2908 -0.2141
 1043YOPC   PO415344   8.976   7.558   5.163 -0.0967  0.1151 -0.1098
 1043YOPC   GL115345   8.821   7.732   5.475 -0.2274  0.1121  0.1532
 1043YOPC   GL215346   8.466   7.546   5.622 -0.3004 -0.2208 -0.0200
 1043YOPC   C1A15347   8.897   7.730   5.874 -0.1742 -0.0507  0.0469
 1043YOPC   D2A15348   9.170   7.784   6.256  0.2751 -0.0206  0.2564
 1043YOPC   C3A15349   8.775   7.966   6.367  0.1051  0.2707  0.1207
 1043YOPC   C4A15350   8.405   7.969   6.103 -0.0764  0.1070 -0.1160
 1043YOPC   C1B15351   8.246   7.264   5.811 -0.0778 -0.1566 -0.0048
 1043YOPC   C2B15352   8.181   7.135   6.151  0.3134  0.2650 -0.0286
 1043YOPC   D3B15353   8.443   7.107   6.539 -0.5633 -0.0380  0.2227
 1043YOPC   C4B15354   8.426   7.170   6.927 -0.0397 -0.0937 -0.3344
 1044YOPC   NC315355   6.588   2.493   5.148  0.0814 -0.0230  0.2761
 1044YOPC   PO415356   7.016   2.771   5.174  0.0935  0.2271 -0.1982
 1044YOPC   GL115357   7.092   2.949   5.529 -0.1219 -0.1446  0.2175
 1044YOPC   GL215358   7.107   3.329   5.619  0.0601  0.0722  0.2278
 1044YOPC   C1A15359   7.108   3.027   6.021  0.1198  0.2948 -0.0811
 1044YOPC   D2A15360   7.099   2.969   6.411 -0.0959 -0.0623  0.2221
 1044YOPC   C3A15361   7.338   3.215   6.658  0.0456  0.0082 -0.1142
 1044YOPC   C4A15362   7.499   3.663   6.650  0.1311 -0.2001  0.1132
 1044YOPC   C1B15363   7.158   3.492   5.870  0.1635 -0.0032 -0.0068
 1044YOPC   C2B15364   6.907   3.910   5.986 -0.2982  0.2836 -0.1429
 1044YOPC   D3B15365   6.706   4.260   5.995 -0.0346  0.1490 -0.3020
 1044YOPC   C4B15366   6.552   4.489   6.380  0.0998 -0.1232 -0.2422
 1045YOPC   NC315367  11.287   4.334   4.972 -0.1206 -0.0481 -0.1115
 1045YOPC   PO415368  11.662   4.334   5.190  0.0391  0.1486  0.3972
 1045YOPC   GL115369  11.706   4.317   5.639  0.1404  0.1138  0.1365
 1045YOPC   GL215370  11.621   4.635   5.784  0.2039  0.1327 -0.0980
 1045YOPC   C1A15371  11.459   4.178   5.953  0.0013 -0.0594  0.0820
 1045YOPC   D2A15372  11.423   4.146   6.457  0.0744 -0.4582  0.0923
 1045YOPC   C3A15373  11.375   4.483   6.595 -0.1658 -0.0136 -0.0996
 1045YOPC   C4A15374  11.240   4.673   7.020  0.2551  0.2488  0.0170
 1045YOPC   C1B15375  11.829   4.452   6.210  0.0601  0.0518  0.1482
 1045YOPC   C2B15376  12.001   4.587   6.647 -0.0726  0.1060  0.1227
 1045YOPC   D3B15377  11.743   4.821   6.943 -0.1942 -0.1175  0.4117
 1045YOPC   C4B15378  11.509   4.994   7.263  0.1768  0.2296  0.1997
 1046YOPC   NC315379  18.788  16.315   4.424  0.0684 -0.0416  0.2000
 1046YOPC   PO415380  18.687  16.365   4.775  0.0358  0.0403 -0.1816
 1046YOPC   GL115381  18.619  16.500   5.195  0.0899  0.1436  0.0291
 1046YOPC   GL215382  18.322  16.691   5.355 -0.0603 -0.1531  0.0101
 1046YOPC   C1A15383  18.796  16.414   5.529  0.3226  0.2678  0.0697
 1046YOPC   D2A15384  19.140  16.403   5.799  0.3480  0.2437 -0.3274
 1046YOPC   C3A15385  19.240  16.627   6.176  0.1057  0.1570 -0.0369
 1046YOPC   C4A15386  19.385  16.466   6.565 -0.0027 -0.0030  0.1230
 1046YOPC   C1B15387  18.414  16.638   5.779  0.0833  0.1069  0.0001
 1046YOPC   C2B15388  18.653  16.483   6.062  0.0537 -0.2100  0.3257
 1046YOPC   D3B15389  18.762  16.691   6.477 -0.0864  0.0415 -0.2914
 1046YOPC   C4B15390  18.390  16.819   6.767  0.1337  0.1767 -0.3380
 1047YOPC   NC315391   5.343   0.017   4.916  0.2614 -0.0275  0.0597
 1047YOPC   PO415392   4.961   0.066   5.126 -0.0582 -0.2627 -0.0684
 1047YOPC   GL115393   4.950   0.123   5.540  0.1893 -0.1339  0.1019
 1047YOPC   GL215394   5.159  -0.192   5.498 -0.1359  0.1545  0.0748
 1047YOPC   C1A15395   5.230   0.053   5.936  0.1177 -0.1375  0.3064
 1047YOPC   D2A15396   5.220  -0.038   6.362  0.1787 -0.1221 -0.0753
 1047YOPC   C3A15397   4.897  -0.038   6.503 -0.0193 -0.0937 -0.1200
 1047YOPC   C4A15398   4.840  -0.381   6.589  0.1445  0.0065  0.0654
 1047YOPC   C1B15399   4.897  -0.516   5.685  0.1566  0.1955  0.3423
 1047YOPC   C2B15400   4.498  -0.754   5.749  0.1737 -0.1802  0.0403
 1047YOPC   D3B15401   4.381  -1.123   5.562  0.2825  0.2885 -0.0737
 1047YOPC   C4B15402   4.170  -1.516   5.454 -0.1904  0.1343  0.1883
 1048YOPC   NC315403  10.260  10.419   5.014  0.0583  0.1323 -0.2096
 1048YOPC   PO415404  10.520  10.258   5.300 -0.0488  0.2212 -0.1317
 1048YOPC   GL115405  10.642  10.369   5.739 -0.0380 -0.1671  0.0801
 1048YOPC   GL215406  10.340  10.471   5.874  0.0590 -0.1272  0.1422
 1048YOPC   C1A15407  10.807  10.203   6.019  0.0246 -0.0214 -0.2007
 1048YOPC   D2A15408  10.729   9.843   6.161  0.2645 -0.3013  0.1599
 1048YOPC   C3A15409  10.460   9.770   6.458 -0.0286  0.0285  0.2327
 1048YOPC   C4A15410  10.017   9.722   6.439 -0.0945  0.3726  0.1585
 1048YOPC   C1B15411  10.369  10.288   6.201  0.1765 -0.1474  0.4910
 1048YOPC   C2B15412  10.157  10.229   6.641  0.3693  0.2787  0.1426
 1048YOPC   D3B15413  10.273   9.931   6.891  0.0245 -0.1885  0.0475
 1048YOPC   C4B15414  10.575   9.543   7.036 -0.1042  0.0584 -0.0874
 1049YOPC   NC315415   3.238   8.349   5.285  0.2117  0.1944 -0.0154
 1049YOPC   PO415416   3.623   8.309   5.200  0.2946  0.1897  0.1591
 1049YOPC   GL115417   3.687   8.576   5.466  0.4597 -0.1821 -0.1222
 1049YOPC   GL215418   3.936   8.502   5.582  0.1414 -0.1909 -0.0571
 1049YOPC   C1A15419   3.592   8.677   5.865  0.2662 -0.1155  0.0434
 1049YOPC   D2A15420   3.770   9.029   5.935  0.3008 -0.0603 -0.4685
 1049YOPC   C3A15421   3.878   9.163   6.409  0.0615  0.1268  0.0954
 1049YOPC   C4A15422   4.090   9.013   6.716 -0.0180  0.2293  0.3893
 1049YOPC   C1B15423   3.976   8.337   5.938  0.0314 -0.1875  0.0369
 1049YOPC   C2B15424   4.343   8.134   6.121  0.0056 -0.2520 -0.2998
 1049YOPC   D3B15425   4.388   7.780   5.894 -0.0115  0.2199  0.0141
 1049YOPC   C4B15426   4.495   7.403   5.942  0.1139  0.1707  0.0739
 1050YOPC   NC315427  18.407   1.900   4.994  0.0933 -0.3290 -0.1513
 1050YOPC   PO415428  17.984   1.738   4.884  0.1634 -0.1508 -0.1014
 1050YOPC   GL115429  17.989   1.906   5.381  0.1940  0.3360  0.1902
 1050YOPC   GL215430  17.759   2.025   5.346 -0.4887  0.4292  0.3102
 1050YOPC   C1A15431  17.865   1.850   5.975 -0.4083  0.4269  0.1386
 1050YOPC   D2A15432  18.072   1.697   6.280 -0.1208  0.0146 -0.1416
 1050YOPC   C3A15433  18.151   1.227   6.292  0.2047 -0.0193  0.0991
 1050YOPC   C4A15434  18.199   0.958   5.827  0.1669  0.3971  0.1697
 1050YOPC   C1B15435  17.547   1.649   5.694  0.3591  0.2796  0.2378
 1050YOPC   C2B15436  17.422   1.562   6.074 -0.1203 -0.0827  0.1757
 1050YOPC   D3B15437  17.658   1.488   6.486  0.0215  0.1341 -0.0950
 1050YOPC   C4B15438  17.621   1.162   6.869 -0.1637  0.1587 -0.2446
 1051YOPC   NC315439   5.933   1.344   4.655  0.2756  0.0558 -0.0784
 1051YOPC   PO415440   6.021   1.269   5.059 -0.2843 -0.1150  0.1956
 1051YOPC   GL115441   6.054   0.868   5.274  0.3574  0.0537 -0.2238
 1051YOPC   GL215442   5.913   0.912   5.501  0.2698 -0.1978 -0.4052
 1051YOPC   C1A15443   5.985   0.407   5.427  0.0954  0.2199 -0.1379
 1051YOPC   D2A15444   5.717   0.055   5.665  0.0855  0.0189 -0.1912
 1051YOPC   C3A15445   5.977  -0.254   5.648  0.0204 -0.0512  0.0685
 1051YOPC   C4A15446   6.382  -0.372   5.717  0.0073  0.1122 -0.3130
 1051YOPC   C1B15447   5.623   0.932   5.776 -0.0257  0.2237 -0.1956
 1051YOPC   C2B15448   5.464   0.782   6.195  0.1023  0.0246 -0.2249
 1051YOPC   D3B15449   5.160   0.442   6.232  0.1951 -0.1416  0.0712
 1051YOPC   C4B15450   4.769   0.190   6.085  0.4163 -0.0427  0.0911
 1052YOPC   NC315451  18.567  18.380   4.564 -0.0268 -0.0344 -0.1521
 1052YOPC   PO415452  18.345  18.725   4.562  0.0449  0.1037 -0.0890
 1052YOPC   GL115453  18.418  18.593   5.000  0.1386  0.1613 -0.0045
 1052YOPC   GL215454  18.559  18.664   5.228 -0.1465  0.0178  0.1753
 1052YOPC   C1A15455  18.217  18.295   5.319 -0.1145  0.2808  0.1341
 1052YOPC   D2A15456  18.157  18.140   5.741 -0.2534  0.1736 -0.1632
 1052YOPC   C3A15457  18.417  17.894   5.947  0.1271 -0.0515  0.1801
 1052YOPC   C4A15458  18.484  17.502   5.967 -0.2037 -0.2667 -0.1294
 1052YOPC   C1B15459  18.551  18.449   5.650  0.0108 -0.1467  0.0197
 1052YOPC   C2B15460  18.564  18.381   6.087 -0.1713  0.0859 -0.0207
 1052YOPC   D3B15461  18.520  18.127   6.395  0.2275  0.2838  0.1300
 1052YOPC   C4B15462  18.716  17.900   6.660  0.1306 -0.2363 -0.0148
 1053YOPC   NC315463  14.704   9.163   5.399  0.0403 -0.1314  0.1598
 1053YOPC   PO415464  14.654   8.782   5.281 -0.1534 -0.0255 -0.2891
 1053YOPC   GL115465  14.667   8.852   5.779  0.3300  0.3278  0.0501
 1053YOPC   GL215466  14.376   9.148   5.875  0.2182  0.1150  0.1377
 1053YOPC   C1A15467  14.611   9.014   6.260  0.0815 -0.0167 -0.0440
 1053YOPC   D2A15468  14.357   8.882   6.679 -0.1028  0.0030 -0.1430
 1053YOPC   C3A15469  14.163   9.231   6.954  0.2864  0.0142  0.3325
 1053YOPC   C4A15470  14.046   9.659   6.965  0.1129  0.2420  0.1127
 1053YOPC   C1B15471  14.318   9.476   6.086 -0.0799 -0.0041 -0.1938
 1053YOPC   C2B15472  14.387   9.488   6.509 -0.1612  0.1873 -0.0515
 1053YOPC   D3B15473  14.675   9.292   6.725 -0.0891  0.0021 -0.1141
 1053YOPC   C4B15474  14.660   9.177   7.191 -0.2108  0.3117  0.3292
 1054YOPC   NC315475  15.121  10.575   4.874  0.0146 -0.1071 -0.1268
 1054YOPC   PO415476  15.279  10.536   5.218  0.2485 -0.1121 -0.1184
 1054YOPC   GL115477  15.061  10.519   5.633 -0.2935  0.1979 -0.0601
 1054YOPC   GL215478  14.774  10.511   5.839  0.0905  0.1832 -0.1449
 1054YOPC   C1A15479  15.360  10.751   5.925 -0.0787  0.1750 -0.2286
 1054YOPC   D2A15480  15.370  10.722   6.397  0.0756 -0.1658 -0.1247
 1054YOPC   C3A15481  15.251  10.400   6.773  0.2753 -0.3612 -0.1280
 1054YOPC   C4A15482  15.059  10.046   6.979  0.0417 -0.0063 -0.0664
 1054YOPC   C1B15483  14.354  10.516   5.927  0.1220  0.2137 -0.1752
 1054YOPC   C2B15484  14.004  10.540   6.301 -0.1166 -0.2830 -0.1335
 1054YOPC   D3B15485  13.902  10.223   6.520  0.0387 -0.1192  0.1074
 1054YOPC   C4B15486  13.688  10.143   7.030  0.1757 -0.1348  0.1082
 1055YOPC   NC315487  11.584  18.448   5.518  0.0743  0.1543 -0.2074
 1055YOPC   PO415488  11.193  18.705   5.374  0.2186 -0.3437  0.2001
 1055YOPC   GL115489  11.009  18.701   5.736  0.0400 -0.1208  0.2790
 1055YOPC   GL215490  11.226  18.465   5.866  0.1577 -0.0448  0.0188
 1055YOPC   C1A15491  10.812  18.659   6.140  0.0822  0.4953 -0.3403
 1055YOPC   D2A15492  10.633  18.736   6.584 -0.1446  0.2281 -0.1824
 1055YOPC   C3A15493  10.919  18.978   6.813 -0.1163 -0.0650  0.1038
 1055YOPC   C4A15494  10.984  19.004   7.358 -0.4943 -0.3928  0.4986
 1055YOPC   C1B15495  11.248  18.496   6.381 -0.0871  0.0679 -0.1102
 1055YOPC   C2B15496  11.210  18.358   6.869  0.0559  0.1461 -0.0616
 1055YOPC   D3B15497  11.273  18.695   7.142 -0.0396 -0.1171 -0.0936
 1055YOPC   C4B15498  11.483  18.901   6.811  0.2269  0.0747 -0.1056
 1056YOPC   NC315499   4.499   1.668   5.195  0.2514  0.0406 -0.1111
 1056YOPC   PO415500   4.155   1.808   5.241  0.2993  0.1988  0.0235
 1056YOPC   GL115501   3.938   1.810   5.636 -0.0216 -0.0050  0.1207
 1056YOPC   GL215502   4.075   1.989   5.805 -0.0794 -0.0931  0.0437
 1056YOPC   C1A15503   3.675   1.754   5.933 -0.0352 -0.0816  0.4483
 1056YOPC   D2A15504   3.744   1.752   6.443 -0.0725 -0.0506 -0.1248
 1056YOPC   C3A15505   3.908   1.694   6.801 -0.0807  0.1103 -0.1034
 1056YOPC   C4A15506   4.001   1.820   7.238 -0.0509 -0.1641  0.1198
 1056YOPC   C1B15507   4.103   2.006   6.179 -0.3212 -0.4395 -0.0211
 1056YOPC   C2B15508   4.220   2.030   6.605  0.1613 -0.1966  0.1540
 1056YOPC   D3B15509   3.912   2.249   6.928  0.1080 -0.1673  0.1499
 1056YOPC   C4B15510   3.544   2.508   6.931  0.0109  0.2905  0.0153
 1057YOPC   NC315511   0.992   1.704   4.810 -0.1281  0.2736 -0.1736
 1057YOPC   PO415512   1.371   1.568   4.926  0.2013 -0.0801  0.1081
 1057YOPC   GL115513   1.409   1.508   5.282 -0.0549 -0.2037 -0.2695
 1057YOPC   GL215514   1.055   1.655   5.373  0.0434  0.1056 -0.1924
 1057YOPC   C1A15515   1.240   1.388   5.770 -0.0193 -0.1594  0.0530
 1057YOPC   D2A15516   0.923   1.238   6.033  0.1625  0.1513 -0.0725
 1057YOPC   C3A15517   0.930   1.424   6.402 -0.1003 -0.0545  0.1668
 1057YOPC   C4A15518   0.884   1.404   6.818 -0.2009  0.0573 -0.0678
 1057YOPC   C1B15519   0.786   1.412   5.608  0.3322  0.1762 -0.1701
 1057YOPC   C2B15520   0.439   1.176   5.936  0.0017 -0.2549  0.0429
 1057YOPC   D3B15521   0.543   0.853   6.109 -0.1714  0.1576 -0.3828
 1057YOPC   C4B15522   0.670   0.948   6.568 -0.0992  0.2074 -0.0565
 1058YOPC   NC315523   1.115  19.296   4.635 -0.1460  0.1489  0.2756
 1058YOPC   PO415524   0.712  19.145   4.741  0.2443 -0.2435  0.0674
 1058YOPC   GL115525   0.628  19.188   5.188  0.3507  0.0433  0.1702
 1058YOPC   GL215526   0.336  19.129   5.399 -0.1830 -0.2661  0.1651
 1058YOPC   C1A15527   0.781  19.383   5.622 -0.0535 -0.0637  0.4591
 1058YOPC   D2A15528   0.561  19.764   5.845 -0.1096 -0.1895 -0.1016
 1058YOPC   C3A15529   0.625  19.747   6.327 -0.0837 -0.2306  0.0046
 1058YOPC   C4A15530   0.859  19.618   6.764  0.0756 -0.1104  0.0068
 1058YOPC   C1B15531   0.016  19.290   5.610  0.4260  0.0203 -0.2773
 1058YOPC   C2B15532  -0.131  19.171   6.078  0.2231 -0.1171 -0.3116
 1058YOPC   D3B15533  -0.435  19.480   6.054  0.0072  0.1292  0.1304
 1058YOPC   C4B15534  -0.775  19.375   5.838 -0.3104 -0.2149  0.0493
 1059YOPC   NC315535  14.063  11.150   4.913 -0.1634  0.0819  0.0685
 1059YOPC   PO415536  14.213  11.541   4.904 -0.1666 -0.0668 -0.1570
 1059YOPC   GL115537  14.062  11.896   5.251  0.0743  0.1245 -0.4770
 1059YOPC   GL215538  14.050  11.717   5.614  0.2736  0.0753 -0.1563
 1059YOPC   C1A15539  13.838  12.186   5.564  0.0944  0.0772  0.2413
 1059YOPC   D2A15540  13.850  12.503   5.803 -0.0520 -0.0151  0.0858
 1059YOPC   C3A15541  13.994  12.530   6.166 -0.0625  0.2928  0.0643
 1059YOPC   C4A15542  14.010  12.442   6.583  0.1437 -0.1054 -0.1071
 1059YOPC   C1B15543  13.723  11.454   5.735 -0.3484 -0.1631 -0.1017
 1059YOPC   C2B15544  13.316  11.256   5.726  0.1140 -0.0178  0.0670
 1059YOPC   D3B15545  13.093  11.268   6.155 -0.1694 -0.1691  0.0967
 1059YOPC   C4B15546  12.876  11.391   6.578 -0.1848 -0.1664 -0.4378
 1060YOPC   NC315547  17.739   2.126   4.860 -0.0129 -0.0922  0.1618
 1060YOPC   PO415548  18.053   2.333   5.045  0.1679 -0.2014  0.1630
 1060YOPC   GL115549  18.213   2.316   5.422 -0.2942  0.0555  0.2105
 1060YOPC   GL215550  18.420   2.165   5.513  0.1927 -0.0686 -0.3607
 1060YOPC   C1A15551  18.227   2.347   5.936  0.3621 -0.2334 -0.1645
 1060YOPC   D2A15552  17.933   2.217   6.286 -0.1487 -0.1271  0.1039
 1060YOPC   C3A15553  17.559   2.008   6.414 -0.1533  0.0007 -0.1423
 1060YOPC   C4A15554  17.282   1.778   6.688  0.2060  0.2325  0.0892
 1060YOPC   C1B15555  18.286   1.740   5.682 -0.1078  0.0080 -0.2121
 1060YOPC   C2B15556  17.971   1.445   5.610 -0.0008 -0.0076  0.1936
 1060YOPC   D3B15557  17.703   1.192   5.920  0.1203 -0.2980  0.1550
 1060YOPC   C4B15558  17.735   0.921   6.269  0.3060  0.0669  0.2847
 1061YOPC   NC315559  12.581  14.247   4.676  0.4170 -0.3207  0.0316
 1061YOPC   PO415560  12.916  14.346   4.974  0.1226  0.0808 -0.1647
 1061YOPC   GL115561  12.937  14.334   5.447 -0.1484 -0.0061  0.0333
 1061YOPC   GL215562  13.173  14.125   5.585  0.2735  0.0891  0.1663
 1061YOPC   C1A15563  12.848  14.487   5.752  0.0056 -0.3725  0.0581
 1061YOPC   D2A15564  12.926  14.368   6.142 -0.1828 -0.0666 -0.2854
 1061YOPC   C3A15565  13.224  14.160   6.396  0.4020  0.1443 -0.2786
 1061YOPC   C4A15566  13.638  13.970   6.632 -0.1401  0.1615  0.1463
 1061YOPC   C1B15567  13.216  13.945   5.931  0.0776  0.0019 -0.3345
 1061YOPC   C2B15568  13.362  13.708   6.304 -0.1394  0.1457  0.1979
 1061YOPC   D3B15569  13.257  13.690   6.746 -0.1270  0.0240 -0.4095
 1061YOPC   C4B15570  12.886  13.898   6.944  0.2874 -0.2429  0.0489
 1062YOPC   NC315571  18.799   4.133   4.796 -0.3587 -0.2513 -0.1052
 1062YOPC   PO415572  19.189   4.422   4.979 -0.2415  0.1528  0.0090
 1062YOPC   GL115573  19.231   4.310   5.358 -0.0163 -0.2470  0.2889
 1062YOPC   GL215574  18.924   4.160   5.362  0.3065  0.2035 -0.3122
 1062YOPC   C1A15575  19.277   4.618   5.689 -0.0144 -0.3394 -0.1732
 1062YOPC   D2A15576  19.455   4.955   5.962  0.2994 -0.1268  0.2066
 1062YOPC   C3A15577  19.334   5.271   6.087  0.2397  0.1627 -0.0611
 1062YOPC   C4A15578  19.487   5.616   6.357 -0.0547 -0.3924  0.2122
 1062YOPC   C1B15579  19.005   4.030   5.828  0.2458  0.0513  0.0218
 1062YOPC   C2B15580  19.249   4.062   6.252 -0.2022 -0.1351  0.1432
 1062YOPC   D3B15581  19.185   4.042   6.722  0.4265 -0.0413  0.2833
 1062YOPC   C4B15582  18.940   4.116   6.991  0.2401 -0.2633 -0.0375
 1063YOPC   NC315583  18.558  17.470   4.702  0.1486  0.0549 -0.2009
 1063YOPC   PO415584  18.488  17.828   4.646  0.1042 -0.1232  0.0886
 1063YOPC   GL115585  18.561  18.030   4.990  0.0836 -0.2058  0.0462
 1063YOPC   GL215586  18.886  17.788   5.039  0.2788 -0.0336 -0.0785
 1063YOPC   C1A15587  18.594  17.863   5.428  0.1156 -0.0264 -0.0332
 1063YOPC   D2A15588  18.845  17.752   5.779  0.1492  0.1946 -0.1011
 1063YOPC   C3A15589  18.811  17.658   6.249  0.1665 -0.1605  0.1376
 1063YOPC   C4A15590  18.647  17.359   6.540 -0.0919  0.1323 -0.1886
 1063YOPC   C1B15591  19.069  17.968   5.399 -0.0485  0.0999 -0.1380
 1063YOPC   C2B15592  19.368  17.960   5.826 -0.3618 -0.2183 -0.1097
 1063YOPC   D3B15593  19.549  18.241   6.097  0.0663 -0.1089 -0.0418
 1063YOPC   C4B15594  19.634  18.404   6.584  0.2956 -0.2066  0.3258
 1064YOPC   NC315595   2.317   8.133   5.276 -0.1433  0.0682 -0.2030
 1064YOPC   PO415596   1.923   8.295   5.151  0.0396 -0.3297 -0.0240
 1064YOPC   GL115597   1.759   8.234   5.531 -0.0826 -0.1245 -0.1988
 1064YOPC   GL215598   1.745   8.516   5.694  0.1192 -0.0071  0.0983
 1064YOPC   C1A15599   1.438   8.252   5.888  0.1591 -0.0266 -0.2382
 1064YOPC   D2A15600   1.040   8.082   6.004  0.0913 -0.2179 -0.0862
 1064YOPC   C3A15601   0.859   8.037   6.432 -0.1562  0.3431  0.5419
 1064YOPC   C4A15602   1.083   7.969   6.811  0.1561  0.3994 -0.2165
 1064YOPC   C1B15603   1.711   8.584   6.088  0.2073 -0.1757  0.1732
 1064YOPC   C2B15604   1.778   8.769   6.502 -0.1023 -0.1656 -0.0839
 1064YOPC   D3B15605   1.937   9.052   6.851  0.1367 -0.0188 -0.1718
 1064YOPC   C4B15606   2.118   9.117   7.264  0.1599  0.1082 -0.0710
 1065YOPC   NC315607  17.966   7.804   5.361 -0.0874 -0.2983  0.2142
 1065YOPC   PO415608  17.640   7.933   5.315 -0.3457 -0.0204  0.0210
 1065YOPC   GL115609  17.442   7.996   5.737 -0.1822  0.0316  0.2213
 1065YOPC   GL215610  17.203   7.768   5.807  0.1008  0.1541  0.0505
 1065YOPC   C1A15611  17.594   7.942   6.167  0.2711  0.1713  0.1217
 1065YOPC   D2A15612  17.290   7.960   6.597 -0.0131  0.0443  0.0280
 1065YOPC   C3A15613  17.486   8.087   6.949 -0.0691  0.0525  0.1301
 1065YOPC   C4A15614  17.904   8.125   7.232 -0.0853  0.0221 -0.1362
 1065YOPC   C1B15615  17.119   7.637   6.265  0.5104 -0.2510 -0.1263
 1065YOPC   C2B15616  17.099   7.359   6.693  0.2542 -0.0606  0.0738
 1065YOPC   D3B15617  16.848   7.127   6.929  0.0376 -0.1037 -0.0084
 1065YOPC   C4B15618  16.505   6.942   7.172  0.5182  0.0063 -0.0471
 1066YOPC   NC315619  16.157   5.194   5.412 -0.0638  0.1827  0.0058
 1066YOPC   PO415620  16.395   4.784   5.193 -0.1400  0.2986  0.4793
 1066YOPC   GL115621  16.466   4.855   5.716  0.1984 -0.3943  0.1205
 1066YOPC   GL215622  16.698   4.846   5.673  0.2020 -0.4562  0.1196
 1066YOPC   C1A15623  16.618   5.120   6.141 -0.0216  0.0623 -0.1528
 1066YOPC   D2A15624  16.731   4.972   6.525 -0.1361  0.3127  0.0244
 1066YOPC   C3A15625  17.059   5.054   6.803 -0.0694 -0.2250  0.0654
 1066YOPC   C4A15626  17.188   5.473   6.890  0.1366  0.1970  0.1415
 1066YOPC   C1B15627  16.772   4.672   6.074  0.0572 -0.0009  0.1893
 1066YOPC   C2B15628  17.116   4.624   6.420 -0.2232  0.0748 -0.1847
 1066YOPC   D3B15629  17.459   4.747   6.543 -0.1926  0.1293 -0.1262
 1066YOPC   C4B15630  17.737   4.674   6.804  0.1097 -0.4276  0.1582
 1067YOPC   NC315631   8.929   2.421   4.874  0.1109 -0.3298  0.0356
 1067YOPC   PO415632   8.952   2.033   5.025 -0.1280  0.0160 -0.1527
 1067YOPC   GL115633   9.106   2.140   5.390 -0.0004 -0.3518  0.0073
 1067YOPC   GL215634   8.916   2.098   5.597 -0.1055 -0.0330  0.2648
 1067YOPC   C1A15635   9.408   2.019   5.755  0.0758  0.1882 -0.1449
 1067YOPC   D2A15636   9.534   2.128   6.158 -0.0378  0.0265  0.1690
 1067YOPC   C3A15637   9.683   2.517   6.155 -0.3005 -0.0662 -0.0764
 1067YOPC   C4A15638   9.965   2.637   6.457  0.1254 -0.3289  0.3970
 1067YOPC   C1B15639   9.077   2.238   6.077  0.1288  0.3387 -0.1031
 1067YOPC   C2B15640   9.217   2.504   6.446 -0.1346 -0.0304  0.2253
 1067YOPC   D3B15641   9.386   2.847   6.423  0.0276 -0.4229  0.1382
 1067YOPC   C4B15642   9.631   3.192   6.379 -0.0382  0.2332  0.1530
 1068YOPC   NC315643   9.597  11.587   5.236  0.0501  0.2972 -0.4374
 1068YOPC   PO415644   9.270  11.287   5.177 -0.0351  0.4651 -0.3454
 1068YOPC   GL115645   8.947  11.181   5.461  0.1095 -0.1941 -0.1575
 1068YOPC   GL215646   9.043  11.369   5.751 -0.1025  0.0497 -0.0454
 1068YOPC   C1A15647   8.729  10.705   5.619  0.0745 -0.0859 -0.2909
 1068YOPC   D2A15648   8.373  10.699   5.914 -0.0981 -0.1501 -0.3930
 1068YOPC   C3A15649   8.430  11.078   6.159 -0.0035  0.0340  0.1063
 1068YOPC   C4A15650   8.339  11.279   6.465 -0.1940 -0.2243 -0.0102
 1068YOPC   C1B15651   8.989  11.062   6.085  0.0997  0.1106  0.1420
 1068YOPC   C2B15652   8.824  11.174   6.415 -0.0571  0.0120  0.1885
 1068YOPC   D3B15653   8.739  11.108   6.844 -0.0848  0.0883 -0.1438
 1068YOPC   C4B15654   9.015  11.021   7.083  0.0153 -0.1721 -0.0144
 1069YOPC   NC315655  10.496   9.751   4.959  0.0649 -0.4847  0.2778
 1069YOPC   PO415656  10.301   9.769   5.300 -0.1299  0.2161 -0.0651
 1069YOPC   GL115657  10.086   9.585   5.566  0.3568  0.0873  0.1230
 1069YOPC   GL215658   9.792   9.392   5.483  0.1680  0.0945 -0.1531
 1069YOPC   C1A15659  10.123   9.473   5.977  0.3619 -0.0447  0.1967
 1069YOPC   D2A15660  10.070   9.238   6.389 -0.2677  0.0546  0.1693
 1069YOPC   C3A15661  10.132   9.400   6.847 -0.0064  0.1452  0.1846
 1069YOPC   C4A15662   9.923   9.493   7.112  0.2861 -0.2675  0.1969
 1069YOPC   C1B15663   9.742   9.148   5.873  0.1297 -0.0210  0.2648
 1069YOPC   C2B15664   9.668   9.025   6.158 -0.2140  0.3981 -0.1059
 1069YOPC   D3B15665   9.622   8.984   6.612 -0.3046 -0.2794 -0.3064
 1069YOPC   C4B15666   9.609   8.641   6.973 -0.0324 -0.1058  0.1917
 1070YOPC   NC315667  15.995  19.503   5.090  0.1083  0.2097 -0.1747
 1070YOPC   PO415668  16.080  20.020   5.002  0.3096 -0.2202 -0.3030
 1070YOPC   GL115669  16.193  19.959   5.367 -0.3882  0.0497 -0.1958
 1070YOPC   GL215670  16.485  19.955   5.580 -0.0299 -0.2311 -0.1572
 1070YOPC   C1A15671  15.938  19.795   5.722  0.0245 -0.2135 -0.2296
 1070YOPC   D2A15672  15.789  19.790   6.061  0.1674  0.1817  0.3553
 1070YOPC   C3A15673  15.676  19.784   6.427 -0.0711 -0.1939  0.3004
 1070YOPC   C4A15674  15.526  19.891   6.819  0.0510 -0.0050 -0.1058
 1070YOPC   C1B15675  16.358  20.037   6.028 -0.0701 -0.0966  0.1216
 1070YOPC   C2B15676  16.279  20.048   6.401  0.0321  0.0510  0.1105
 1070YOPC   D3B15677  16.557  19.837   6.593 -0.1310 -0.5332 -0.1988
 1070YOPC   C4B15678  16.766  19.688   6.856  0.0286 -0.0774  0.0287
 1071YOPC   NC315679   0.023   3.596   4.823  0.3280 -0.1706  0.0573
 1071YOPC   PO415680  -0.319   3.424   4.750  0.1754 -0.0945  0.2908
 1071YOPC   GL115681  -0.528   3.376   5.208  0.1185 -0.1120 -0.1691
 1071YOPC   GL215682  -0.717   3.664   5.390 -0.1868  0.0023 -0.0817
 1071YOPC   C1A15683  -0.374   3.294   5.550  0.2378  0.2297 -0.2295
 1071YOPC   D2A15684  -0.450   3.312   6.068 -0.3772  0.2270 -0.0605
 1071YOPC   C3A15685  -0.668   3.704   6.288 -0.0422 -0.2959  0.1187
 1071YOPC   C4A15686  -1.016   3.997   6.276 -0.0468  0.1144 -0.1037
 1071YOPC   C1B15687  -0.779   3.537   5.804 -0.1250 -0.2376 -0.2939
 1071YOPC   C2B15688  -1.012   3.360   6.105  0.0726 -0.2714 -0.1201
 1071YOPC   D3B15689  -1.141   3.517   6.475  0.3348  0.2333 -0.0834
 1071YOPC   C4B15690  -1.360   3.533   6.887 -0.0252 -0.0217  0.1128
 1072YOPC   NC315691   5.915  12.358   5.204  0.0667  0.0103  0.2356
 1072YOPC   PO415692   5.821  12.728   5.159 -0.0203  0.1797  0.2439
 1072YOPC   GL115693   6.036  12.825   5.533 -0.1770 -0.0556  0.1545
 1072YOPC   GL215694   5.954  12.552   5.677  0.0240  0.1042 -0.0507
 1072YOPC   C1A15695   6.248  12.736   5.992 -0.0381  0.0033  0.0444
 1072YOPC   D2A15696   6.333  12.551   6.198 -0.4231  0.0550  0.1928
 1072YOPC   C3A15697   6.011  12.209   6.129  0.0341  0.1478 -0.4964
 1072YOPC   C4A15698   5.893  11.808   6.064  0.1753  0.2315 -0.1851
 1072YOPC   C1B15699   5.677  12.610   6.058 -0.0372  0.2226  0.2555
 1072YOPC   C2B15700   5.722  12.496   6.551 -0.1636 -0.3213  0.2954
 1072YOPC   D3B15701   5.743  12.836   6.891 -0.0944 -0.1321 -0.0139
 1072YOPC   C4B15702   5.515  13.229   7.029 -0.3270 -0.3177  0.3041
 1073YOPC   NC315703  11.896  13.786   4.949  0.3239  0.1965 -0.1072
 1073YOPC   PO415704  11.346  13.732   5.012 -0.3099  0.1926  0.2831
 1073YOPC   GL115705  11.362  13.681   5.492  0.1546 -0.0769 -0.1310
 1073YOPC   GL215706  11.241  13.380   5.692  0.0798 -0.0635 -0.0386
 1073YOPC   C1A15707  11.189  13.815   5.884 -0.1798  0.1852 -0.0437
 1073YOPC   D2A15708  11.492  13.762   6.312 -0.1515 -0.1091  0.1632
 1073YOPC   C3A15709  11.493  13.886   6.758 -0.1657  0.0330 -0.0049
 1073YOPC   C4A15710  11.440  13.819   7.196  0.0009 -0.2689  0.2560
 1073YOPC   C1B15711  11.168  13.316   6.170 -0.1251 -0.0907  0.1309
 1073YOPC   C2B15712  11.313  13.334   6.467  0.0401  0.0070  0.0427
 1073YOPC   D3B15713  11.302  13.046   6.656 -0.0532 -0.1746  0.3846
 1073YOPC   C4B15714  11.275  12.879   7.122  0.0350 -0.0793 -0.0531
 1074YOPC   NC315715  11.566  17.600   5.283  0.1442  0.1167  0.1429
 1074YOPC   PO415716  11.285  17.576   4.995  0.1586 -0.1120  0.2886
 1074YOPC   GL115717  11.151  17.314   5.266 -0.2130 -0.1886  0.0007
 1074YOPC   GL215718  11.045  17.561   5.423  0.1453 -0.2271  0.1735
 1074YOPC   C1A15719  11.445  17.050   5.581  0.1510  0.1624 -0.0537
 1074YOPC   D2A15720  11.704  16.849   5.900 -0.0067  0.0311 -0.0637
 1074YOPC   C3A15721  11.749  16.861   6.268  0.3164 -0.1525  0.0278
 1074YOPC   C4A15722  11.570  16.670   6.537 -0.0003 -0.0099  0.1752
 1074YOPC   C1B15723  10.946  17.243   5.666 -0.0250  0.1117 -0.2353
 1074YOPC   C2B15724  10.530  17.188   5.799  0.2314 -0.1139  0.0261
 1074YOPC   D3B15725  10.314  17.133   6.252 -0.0031 -0.0199  0.3081
 1074YOPC   C4B15726  10.222  17.014   6.665  0.0325  0.0829  0.1472
 1075YOPC   NC315727  12.381   5.820   4.561 -0.0053  0.3249 -0.0875
 1075YOPC   PO415728  12.362   5.598   5.013 -0.1067  0.3588 -0.1421
 1075YOPC   GL115729  12.567   5.753   5.405  0.0973  0.1181 -0.1722
 1075YOPC   GL215730  12.982   5.738   5.413 -0.2247 -0.0727  0.1704
 1075YOPC   C1A15731  12.744   5.653   5.934  0.0621  0.0042  0.3352
 1075YOPC   D2A15732  12.556   5.731   6.431  0.1584  0.3610  0.1248
 1075YOPC   C3A15733  12.776   5.719   6.763  0.1440 -0.1830 -0.0485
 1075YOPC   C4A15734  12.781   5.566   7.152 -0.0941  0.5005  0.2721
 1075YOPC   C1B15735  13.111   6.059   5.830 -0.0814  0.1627 -0.0470
 1075YOPC   C2B15736  13.108   5.889   6.245 -0.1635 -0.0793 -0.0132
 1075YOPC   D3B15737  13.003   5.414   6.314 -0.0463 -0.1530 -0.0639
 1075YOPC   C4B15738  12.626   5.199   6.619  0.2424  0.1402  0.1008
 1076YOPC   NC315739  10.990  19.379   4.928  0.0270 -0.1698 -0.0822
 1076YOPC   PO415740  10.663  19.194   4.911  0.1973 -0.0998  0.0172
 1076YOPC   GL115741  10.501  19.205   5.317 -0.0239  0.2875 -0.2689
 1076YOPC   GL215742  10.802  19.152   5.456 -0.3685  0.1018  0.1888
 1076YOPC   C1A15743  10.462  19.131   5.766 -0.1852  0.1696  0.3089
 1076YOPC   D2A15744  10.649  19.128   6.228  0.0015  0.1926  0.1322
 1076YOPC   C3A15745  10.402  19.185   6.635 -0.1724 -0.2825 -0.1724
 1076YOPC   C4A15746  10.492  19.049   7.126 -0.1552 -0.0345 -0.1369
 1076YOPC   C1B15747  10.626  19.592   5.564  0.1090 -0.0925  0.1651
 1076YOPC   C2B15748  10.854  19.944   5.701 -0.3198  0.1880 -0.1554
 1076YOPC   D3B15749  11.214  19.984   5.958  0.0531 -0.1149  0.0684
 1076YOPC   C4B15750  11.444  20.275   6.252  0.1577 -0.0861 -0.0294
 1077YOPC   NC315751  14.247   6.451   5.365 -0.3396 -0.0944  0.1212
 1077YOPC   PO415752  14.491   6.838   5.451  0.3446  0.1698  0.1479
 1077YOPC   GL115753  14.444   7.143   5.783 -0.1830  0.1068 -0.1724
 1077YOPC   GL215754  14.773   7.374   5.847  0.3932 -0.0718  0.3291
 1077YOPC   C1A15755  14.500   6.974   6.231  0.1442 -0.0553  0.0971
 1077YOPC   D2A15756  14.712   6.671   6.357  0.1029 -0.1978  0.3339
 1077YOPC   C3A15757  15.101   6.797   6.288 -0.0927 -0.1507  0.0903
 1077YOPC   C4A15758  15.468   6.689   6.398 -0.0162 -0.0693 -0.0977
 1077YOPC   C1B15759  14.852   7.329   6.312 -0.1601  0.1044  0.0104
 1077YOPC   C2B15760  15.054   7.508   6.728  0.0269  0.2048 -0.1483
 1077YOPC   D3B15761  15.055   7.237   7.148  0.1166 -0.0814 -0.0421
 1077YOPC   C4B15762  15.385   7.137   7.431  0.0323  0.1611  0.0610
 1078YOPC   NC315763  14.176  16.141   5.179 -0.1929 -0.1016  0.1899
 1078YOPC   PO415764  14.055  15.738   5.111  0.0254 -0.3493 -0.0041
 1078YOPC   GL115765  13.937  15.744   5.516 -0.1762 -0.2156  0.1618
 1078YOPC   GL215766  13.738  15.520   5.621 -0.0951  0.0738 -0.1230
 1078YOPC   C1A15767  13.865  15.841   6.032  0.0726 -0.3254  0.2586
 1078YOPC   D2A15768  13.535  16.127   6.226 -0.1390  0.0058  0.0290
 1078YOPC   C3A15769  13.704  16.380   6.596 -0.1294  0.3501  0.3556
 1078YOPC   C4A15770  13.902  16.593   6.893  0.0214 -0.0237  0.2583
 1078YOPC   C1B15771  13.596  15.405   6.014 -0.0105  0.1315  0.0296
 1078YOPC   C2B15772  13.670  15.345   6.308 -0.3220 -0.2308 -0.0979
 1078YOPC   D3B15773  13.249  15.290   6.588 -0.1156 -0.1275 -0.3745
 1078YOPC   C4B15774  13.120  14.878   6.804 -0.0886  0.0454  0.0867
 1079YOPC   NC315775  10.499  15.511   5.360 -0.0447 -0.2090  0.2483
 1079YOPC   PO415776  10.881  15.570   5.475 -0.0929 -0.0266 -0.0766
 1079YOPC   GL115777  10.996  15.877   5.794  0.1504  0.0090  0.0937
 1079YOPC   GL215778  10.922  16.215   5.673 -0.1135 -0.2583 -0.3475
 1079YOPC   C1A15779  10.999  16.196   6.204 -0.1318  0.4945  0.2629
 1079YOPC   D2A15780  11.006  16.358   6.597 -0.1849  0.0973 -0.1007
 1079YOPC   C3A15781  10.658  16.178   6.820 -0.0305  0.2601 -0.3285
 1079YOPC   C4A15782  10.256  16.266   7.079 -0.2435 -0.1179  0.3092
 1079YOPC   C1B15783  11.203  16.584   5.800 -0.3553 -0.0446  0.1319
 1079YOPC   C2B15784  11.244  16.858   6.126 -0.0584  0.0206  0.2202
 1079YOPC   D3B15785  11.057  16.822   6.542 -0.1787  0.2182 -0.2467
 1079YOPC   C4B15786  11.057  16.566   7.030  0.0170  0.2357  0.2293
 1080YOPC   NC315787   0.978  13.304   5.189 -0.0860 -0.0407 -0.0575
 1080YOPC   PO415788   1.217  12.960   5.325  0.1121  0.1733  0.0289
 1080YOPC   GL115789   1.550  13.093   5.609 -0.1817  0.1663 -0.1506
 1080YOPC   GL215790   1.414  13.038   5.925 -0.3322  0.1707 -0.0372
 1080YOPC   C1A15791   1.915  13.207   5.823  0.3006 -0.0725 -0.1575
 1080YOPC   D2A15792   2.389  13.182   5.656  0.1850 -0.1678 -0.3498
 1080YOPC   C3A15793   2.656  13.246   5.875 -0.4236  0.0824 -0.0530
 1080YOPC   C4A15794   2.874  13.238   6.285  0.0188 -0.2066  0.1447
 1080YOPC   C1B15795   1.592  13.330   6.292 -0.0444 -0.0511 -0.1632
 1080YOPC   C2B15796   1.408  13.511   6.578 -0.0863 -0.1626 -0.1119
 1080YOPC   D3B15797   1.042  13.322   6.780 -0.0826  0.1415 -0.0962
 1080YOPC   C4B15798   0.634  13.193   7.005 -0.2189 -0.0838  0.1140
 1081YOPC   NC315799  19.304  18.665   4.933 -0.5542 -0.1274 -0.1494
 1081YOPC   PO415800  19.583  18.968   5.069 -0.1090  0.1588 -0.2668
 1081YOPC   GL115801  19.214  19.045   5.379 -0.0215 -0.0342 -0.5000
 1081YOPC   GL215802  19.051  19.081   5.110  0.1682  0.0186 -0.2672
 1081YOPC   C1A15803  19.149  18.908   5.808  0.0810  0.0256  0.0136
 1081YOPC   D2A15804  19.224  18.701   6.219  0.0877  0.0934 -0.0893
 1081YOPC   C3A15805  18.813  18.830   6.553  0.1207 -0.3140  0.2269
 1081YOPC   C4A15806  18.361  18.828   6.504 -0.1961 -0.3594 -0.0889
 1081YOPC   C1B15807  18.732  18.997   5.528  0.0181  0.0985 -0.0970
 1081YOPC   C2B15808  18.710  18.901   5.955 -0.0297  0.0538 -0.1319
 1081YOPC   D3B15809  18.757  19.251   6.273  0.3882 -0.4390 -0.2957
 1081YOPC   C4B15810  18.820  19.645   6.377 -0.0218 -0.0731  0.4179
 1082YOPC   NC315811  16.732  12.642   4.716  0.2504 -0.1018 -0.2253
 1082YOPC   PO415812  16.801  12.365   5.033 -0.0686  0.2947  0.1398
 1082YOPC   GL115813  16.703  12.419   5.525  0.1360  0.1081 -0.1808
 1082YOPC   GL215814  16.972  12.532   5.627  0.0395 -0.0045 -0.2610
 1082YOPC   C1A15815  16.389  12.241   5.746 -0.3182 -0.3653 -0.1002
 1082YOPC   D2A15816  16.133  12.290   6.171  0.0122  0.0255 -0.2372
 1082YOPC   C3A15817  16.252  12.066   6.551 -0.2259  0.0145 -0.1043
 1082YOPC   C4A15818  16.355  12.218   6.857 -0.4589 -0.1595  0.3886
 1082YOPC   C1B15819  16.613  12.782   5.864  0.0631 -0.2399 -0.0731
 1082YOPC   C2B15820  16.236  12.978   6.067  0.0179 -0.2445  0.2199
 1082YOPC   D3B15821  16.225  13.117   6.490 -0.1864 -0.0955  0.0117
 1082YOPC   C4B15822  15.761  12.951   6.677 -0.1992  0.2171  0.1246
 1083YOPC   NC315823  16.387   3.306   5.106 -0.4799 -0.1457 -0.1258
 1083YOPC   PO415824  16.592   3.080   5.325 -0.2512  0.1440  0.3419
 1083YOPC   GL115825  16.890   2.793   5.592 -0.2678 -0.2961 -0.2473
 1083YOPC   GL215826  17.232   2.685   5.655 -0.2634  0.0370 -0.3271
 1083YOPC   C1A15827  16.767   2.383   5.814 -0.2497 -0.0753 -0.1581
 1083YOPC   D2A15828  16.662   2.551   6.141 -0.1436 -0.2162 -0.1269
 1083YOPC   C3A15829  16.618   2.953   6.238  0.0048  0.0767 -0.0312
 1083YOPC   C4A15830  16.364   3.276   6.257 -0.1657  0.0249 -0.0715
 1083YOPC   C1B15831  17.145   2.824   6.136 -0.1771  0.0466 -0.3094
 1083YOPC   C2B15832  17.072   2.820   6.551 -0.0492 -0.1861 -0.1314
 1083YOPC   D3B15833  16.599   2.816   6.691  0.0695  0.2486 -0.1479
 1083YOPC   C4B15834  16.240   3.025   6.693  0.0503 -0.0368 -0.1136
 1084YOPC   NC315835  17.293  17.516   4.879  0.1331 -0.0423 -0.2280
 1084YOPC   PO415836  16.988  17.720   5.032 -0.1651 -0.0314  0.4045
 1084YOPC   GL115837  17.188  17.792   5.478  0.2395 -0.1463  0.4408
 1084YOPC   GL215838  17.447  17.886   5.353  0.0522 -0.0261 -0.1719
 1084YOPC   C1A15839  17.174  17.840   5.833 -0.1669  0.1510  0.1281
 1084YOPC   D2A15840  16.927  17.837   6.145 -0.1781  0.1792  0.0924
 1084YOPC   C3A15841  16.922  18.206   6.432  0.1629  0.0248 -0.2898
 1084YOPC   C4A15842  16.855  18.158   6.862  0.0421  0.1822  0.1935
 1084YOPC   C1B15843  17.571  18.088   5.691  0.1913  0.2521  0.0113
 1084YOPC   C2B15844  17.326  18.259   6.134 -0.1698 -0.2123  0.0947
 1084YOPC   D3B15845  17.579  18.452   6.413  0.3189 -0.2930  0.0454
 1084YOPC   C4B15846  17.641  18.224   6.653 -0.0598 -0.1466 -0.0584
 1085YOPC   NC315847  14.372   6.039   4.704 -0.3955 -0.1634  0.2007
 1085YOPC   PO415848  14.581   6.197   5.058  0.1739 -0.1278 -0.1049
 1085YOPC   GL115849  14.593   6.008   5.524  0.1214 -0.0346  0.0143
 1085YOPC   GL215850  14.971   5.978   5.753 -0.1310  0.0275 -0.3397
 1085YOPC   C1A15851  14.509   5.863   5.915 -0.1430 -0.3544 -0.0069
 1085YOPC   D2A15852  14.558   5.638   6.310 -0.1170  0.0328 -0.1833
 1085YOPC   C3A15853  14.770   5.278   6.513  0.1960  0.0783  0.0329
 1085YOPC   C4A15854  14.772   4.851   6.717 -0.1575 -0.0408 -0.4330
 1085YOPC   C1B15855  15.005   5.796   6.168 -0.0538 -0.0297 -0.0961
 1085YOPC   C2B15856  15.143   5.827   6.505 -0.3099  0.0377  0.2876
 1085YOPC   D3B15857  15.254   5.485   6.823 -0.0145 -0.2494  0.0151
 1085YOPC   C4B15858  15.538   5.151   6.985  0.3623  0.1810 -0.0141
 1086YOPC   NC315859  15.569  18.888   4.772  0.1005  0.3344 -0.1490
 1086YOPC   PO415860  15.872  19.018   5.155 -0.0802  0.1590 -0.2710
 1086YOPC   GL115861  16.042  18.876   5.475 -0.0178 -0.0649 -0.0380
 1086YOPC   GL215862  15.948  18.498   5.554 -0.0096 -0.0510  0.1714
 1086YOPC   C1A15863  16.245  18.937   5.851 -0.1572  0.0797 -0.1208
 1086YOPC   D2A15864  16.190  18.881   6.259  0.0758  0.2241 -0.0596
 1086YOPC   C3A15865  16.056  18.469   6.380 -0.0372  0.1342 -0.0364
 1086YOPC   C4A15866  15.892  18.335   6.762  0.0528 -0.0788  0.0679
 1086YOPC   C1B15867  15.763  18.729   5.880  0.1722 -0.2292 -0.0078
 1086YOPC   C2B15868  15.698  18.725   6.243  0.0956 -0.3745  0.0706
 1086YOPC   D3B15869  15.298  18.679   6.354 -0.2765  0.1478 -0.2593
 1086YOPC   C4B15870  14.962  18.767   6.534  0.2266 -0.3931  0.1260
 1087YOPC   NC315871   8.086   1.874   4.913 -0.2720  0.0286 -0.0560
 1087YOPC   PO415872   8.284   1.925   5.365 -0.2636  0.0158 -0.1500
 1087YOPC   GL115873   8.292   2.127   5.801  0.1253  0.0647 -0.1721
 1087YOPC   GL215874   8.502   2.480   5.818  0.1678  0.0109  0.1011
 1087YOPC   C1A15875   8.573   2.154   6.116 -0.1402  0.1270  0.3701
 1087YOPC   D2A15876   8.282   2.039   6.395 -0.1029 -0.0198  0.0971
 1087YOPC   C3A15877   8.216   2.522   6.599 -0.2176 -0.0352  0.1160
 1087YOPC   C4A15878   8.210   2.968   6.773 -0.1871 -0.0139 -0.2700
 1087YOPC   C1B15879   8.608   2.684   6.231  0.4208 -0.1117  0.2543
 1087YOPC   C2B15880   8.917   3.032   6.240  0.0702  0.1633 -0.1377
 1087YOPC   D3B15881   9.217   3.196   5.944 -0.0553  0.3088 -0.0147
 1087YOPC   C4B15882   9.496   2.924   5.900 -0.2872  0.0888  0.1300
 1088YOPC   NC315883   3.545  10.990   5.836  0.0770 -0.0008 -0.2259
 1088YOPC   PO415884   3.828  11.218   5.676 -0.0899  0.0551 -0.0922
 1088YOPC   GL115885   3.676  11.407   6.026  0.2085 -0.2381 -0.1023
 1088YOPC   GL215886   3.368  11.508   6.126  0.1450 -0.0826 -0.1821
 1088YOPC   C1A15887   3.761  11.561   6.409  0.0104 -0.0402  0.2449
 1088YOPC   D2A15888   4.219  11.510   6.607 -0.1102 -0.1861  0.0814
 1088YOPC   C3A15889   4.431  11.143   6.893  0.1190 -0.0408  0.0430
 1088YOPC   C4A15890   4.578  10.836   7.257 -0.0283 -0.0300 -0.1209
 1088YOPC   C1B15891   2.977  11.418   6.477  0.2464  0.0740  0.0393
 1088YOPC   C2B15892   2.684  11.772   6.716  0.1429  0.1856  0.2618
 1088YOPC   D3B15893   2.857  12.003   7.122  0.0424  0.0475 -0.0199
 1088YOPC   C4B15894   2.797  12.184   7.419 -0.1149  0.0444  0.0001
 1089YOPC   NC315895  12.352  10.095   4.963  0.3071 -0.0394  0.2825
 1089YOPC   PO415896  12.683   9.860   5.165 -0.2299  0.1978  0.1590
 1089YOPC   GL115897  12.467   9.955   5.525 -0.0868  0.0397 -0.0649
 1089YOPC   GL215898  12.579   9.784   5.725 -0.2481  0.4107 -0.2392
 1089YOPC   C1A15899  12.103   9.981   5.916  0.3045  0.2045  0.0866
 1089YOPC   D2A15900  11.872  10.303   6.032 -0.5094 -0.0282 -0.1215
 1089YOPC   C3A15901  12.170  10.585   6.295  0.2515 -0.0591 -0.2297
 1089YOPC   C4A15902  12.361  10.609   6.578 -0.1995 -0.1887  0.0446
 1089YOPC   C1B15903  12.740   9.783   6.135  0.0605  0.2355 -0.0971
 1089YOPC   C2B15904  12.984   9.944   6.481  0.0106  0.0512 -0.0163
 1089YOPC   D3B15905  12.846  10.248   6.824 -0.3057  0.1321  0.0973
 1089YOPC   C4B15906  12.665  10.364   7.045 -0.1696 -0.3123  0.0495
 1090YOPC   NC315907   5.413   6.882   4.937 -0.0716 -0.0874 -0.0491
 1090YOPC   PO415908   5.415   6.893   5.328  0.1351  0.1150 -0.0421
 1090YOPC   GL115909   5.689   6.871   5.756 -0.2197  0.0023 -0.1047
 1090YOPC   GL215910   5.704   6.638   5.727 -0.0861  0.4037 -0.2511
 1090YOPC   C1A15911   5.802   7.006   6.097  0.2755  0.0937 -0.3077
 1090YOPC   D2A15912   5.788   6.964   6.525 -0.0146 -0.2409  0.6044
 1090YOPC   C3A15913   6.130   7.058   6.710  0.0748  0.1567 -0.1852
 1090YOPC   C4A15914   6.580   6.887   6.916 -0.0860 -0.1640 -0.0137
 1090YOPC   C1B15915   5.583   6.544   6.172 -0.1113  0.0761 -0.0857
 1090YOPC   C2B15916   5.641   6.118   6.438 -0.2239 -0.2886  0.0543
 1090YOPC   D3B15917   5.825   5.965   6.834 -0.2296 -0.1302 -0.1320
 1090YOPC   C4B15918   5.847   5.613   7.113  0.0440  0.2846  0.1578
 1091YOPC   NC315919  18.930  18.068   4.596 -0.2102  0.0411  0.0190
 1091YOPC   PO415920  18.947  18.351   4.904  0.0737  0.1390  0.0107
 1091YOPC   GL115921  18.991  18.514   5.362 -0.0791 -0.1190  0.1309
 1091YOPC   GL215922  19.359  18.536   5.421 -0.0407  0.0703 -0.1527
 1091YOPC   C1A15923  19.010  18.287   5.858  0.1252 -0.1146  0.1223
 1091YOPC   D2A15924  19.026  18.130   6.223 -0.2442 -0.0490  0.0682
 1091YOPC   C3A15925  19.039  18.375   6.624 -0.2448  0.1793  0.1064
 1091YOPC   C4A15926  18.890  18.164   7.013 -0.1052  0.1428 -0.0826
 1091YOPC   C1B15927  19.641  18.725   5.854  0.2863  0.0077  0.2081
 1091YOPC   C2B15928  19.826  18.776   6.282 -0.1858  0.3525 -0.0220
 1091YOPC   D3B15929  20.010  18.841   6.560  0.2114  0.2217 -0.1834
 1091YOPC   C4B15930  20.397  18.684   6.825 -0.0996 -0.1862  0.1038
 1092YOPC   NC315931  17.428  13.630   5.088  0.0865 -0.1661 -0.2381
 1092YOPC   PO415932  17.043  13.736   5.130  0.5626 -0.0745  0.2487
 1092YOPC   GL115933  17.058  13.575   5.548 -0.2837 -0.4391  0.0997
 1092YOPC   GL215934  16.753  13.724   5.688 -0.1076 -0.0432  0.1166
 1092YOPC   C1A15935  17.201  13.808   5.931 -0.1583  0.2779 -0.0561
 1092YOPC   D2A15936  17.227  13.922   6.373 -0.0931  0.1643 -0.0010
 1092YOPC   C3A15937  17.451  14.099   6.627 -0.2881  0.3724 -0.2369
 1092YOPC   C4A15938  17.423  14.029   7.051 -0.1393  0.0216  0.0064
 1092YOPC   C1B15939  16.655  14.027   5.916  0.1269 -0.4339  0.1578
 1092YOPC   C2B15940  16.162  14.091   6.028  0.1266  0.1925  0.3094
 1092YOPC   D3B15941  16.040  14.159   6.463  0.0162 -0.1010 -0.1263
 1092YOPC   C4B15942  15.527  14.232   6.793  0.0490 -0.3252  0.3343
 1093YOPC   NC315943   1.766   9.474   4.800  0.0748  0.1697  0.0620
 1093YOPC   PO415944   2.121   9.657   4.947  0.1054 -0.0763  0.1861
 1093YOPC   GL115945   2.182   9.401   5.325  0.1120  0.1527  0.3783
 1093YOPC   GL215946   2.396   9.207   5.467  0.1835  0.0491 -0.1376
 1093YOPC   C1A15947   2.188   9.324   5.943 -0.3966 -0.0690 -0.2346
 1093YOPC   D2A15948   2.303   9.162   6.293 -0.1300 -0.2892  0.1655
 1093YOPC   C3A15949   2.402   9.453   6.694  0.1236  0.1674 -0.3262
 1093YOPC   C4A15950   2.506   9.408   7.090 -0.0266  0.2197 -0.1648
 1093YOPC   C1B15951   2.424   8.871   5.811  0.2076 -0.0462  0.0453
 1093YOPC   C2B15952   2.246   8.650   6.204  0.3952 -0.1945  0.1283
 1093YOPC   D3B15953   2.255   8.776   6.614  0.2109 -0.0591 -0.2694
 1093YOPC   C4B15954   2.402   8.931   6.890 -0.0207  0.1404 -0.1936
 1094YOPC   NC315955   9.117   1.192   4.662  0.1161 -0.2479 -0.0020
 1094YOPC   PO415956   8.740   1.243   5.004 -0.1026 -0.1604 -0.2884
 1094YOPC   GL115957   8.719   1.226   5.424  0.0935  0.0339 -0.4136
 1094YOPC   GL215958   8.611   0.918   5.480 -0.0678  0.0106 -0.4086
 1094YOPC   C1A15959   8.868   1.134   5.878 -0.4396 -0.1374  0.0727
 1094YOPC   D2A15960   9.021   1.201   6.327 -0.2439  0.1181  0.1370
 1094YOPC   C3A15961   8.774   1.111   6.699  0.0724  0.2010 -0.2700
 1094YOPC   C4A15962   8.847   0.980   7.182  0.1232 -0.0146  0.1884
 1094YOPC   C1B15963   8.386   0.968   5.782  0.0175 -0.3464 -0.0685
 1094YOPC   C2B15964   8.456   0.956   6.176  0.0014 -0.0742 -0.0345
 1094YOPC   D3B15965   8.377   1.120   6.522  0.3648  0.6180 -0.0476
 1094YOPC   C4B15966   8.431   1.379   6.974  0.0690 -0.0143  0.0427
 1095YOPC   NC315967   1.647   3.290   4.790 -0.0070 -0.2076  0.3526
 1095YOPC   PO415968   1.626   3.141   5.208  0.1258 -0.2679 -0.2047
 1095YOPC   GL115969   1.664   3.064   5.584  0.1933 -0.0846 -0.0704
 1095YOPC   GL215970   1.505   2.694   5.691 -0.0097 -0.2483  0.2866
 1095YOPC   C1A15971   1.633   3.150   5.964 -0.2470  0.1719  0.3106
 1095YOPC   D2A15972   1.544   3.264   6.355  0.0068 -0.2521 -0.1523
 1095YOPC   C3A15973   1.084   3.146   6.526  0.1423  0.1851 -0.2695
 1095YOPC   C4A15974   1.016   2.951   6.888 -0.3377 -0.0230  0.0974
 1095YOPC   C1B15975   1.423   2.372   6.049 -0.0155  0.0738  0.0568
 1095YOPC   C2B15976   1.165   2.179   6.217  0.2875  0.0449  0.1600
 1095YOPC   D3B15977   1.160   1.855   6.516  0.0782  0.2420  0.0919
 1095YOPC   C4B15978   1.077   1.843   6.912  0.0532  0.0965 -0.1184
 1096YOPC   NC315979  13.259   6.526   5.105 -0.1239 -0.0358 -0.0364
 1096YOPC   PO415980  13.357   6.103   4.883 -0.1003 -0.1642 -0.4349
 1096YOPC   GL115981  13.392   6.060   5.311 -0.0726  0.0087 -0.3134
 1096YOPC   GL215982  13.446   6.293   5.585 -0.0586  0.3941 -0.2674
 1096YOPC   C1A15983  13.752   5.844   5.612 -0.0795  0.0468 -0.1263
 1096YOPC   D2A15984  14.089   5.709   5.651  0.1603  0.0041 -0.1419
 1096YOPC   C3A15985  14.149   5.502   6.036 -0.0174 -0.1414  0.2035
 1096YOPC   C4A15986  14.013   5.395   6.400  0.3692  0.0866 -0.5887
 1096YOPC   C1B15987  13.569   6.173   6.053  0.2909 -0.0740  0.0438
 1096YOPC   C2B15988  13.496   6.155   6.450 -0.1087  0.1483 -0.0703
 1096YOPC   D3B15989  13.684   6.332   6.802 -0.3130  0.2423 -0.4324
 1096YOPC   C4B15990  14.086   6.532   7.087 -0.0807 -0.0523 -0.0291
 1097YOPC   NC315991   5.741  13.327   4.801  0.0964 -0.3261  0.1759
 1097YOPC   PO415992   5.533  13.503   5.085  0.3751  0.1145 -0.4042
 1097YOPC   GL115993   5.448  13.331   5.543 -0.0565 -0.1746 -0.0767
 1097YOPC   GL215994   5.704  13.181   5.438  0.1668  0.1828  0.0922
 1097YOPC   C1A15995   5.443  13.458   5.994  0.0169 -0.0860 -0.0810
 1097YOPC   D2A15996   5.307  13.754   6.273 -0.3212 -0.0375  0.0312
 1097YOPC   C3A15997   4.934  13.998   6.151 -0.2188  0.0456  0.2125
 1097YOPC   C4A15998   4.544  13.828   6.034 -0.2464  0.0723 -0.1528
 1097YOPC   C1B15999   5.787  13.159   5.823 -0.0827 -0.1386  0.2870
 1097YOPC   C2B16000   5.887  13.145   6.203 -0.1421  0.4324  0.2683
 1097YOPC   D3B16001   6.122  12.865   6.470  0.2545  0.5326 -0.0936
 1097YOPC   C4B16002   6.274  12.542   6.719 -0.2013 -0.1738  0.0925
 1098YOPC   NC316003   0.466   7.360   5.221  0.1279 -0.0416 -0.0889
 1098YOPC   PO416004   0.144   7.705   5.198 -0.2791 -0.0916  0.0877
 1098YOPC   GL116005   0.180   7.696   5.594  0.0447 -0.0012 -0.2746
 1098YOPC   GL216006   0.394   7.537   5.686  0.1906 -0.1941  0.2262
 1098YOPC   C1A16007   0.084   7.710   5.981 -0.2840  0.2872 -0.1258
 1098YOPC   D2A16008  -0.172   7.719   6.310 -0.1732 -0.0156 -0.0827
 1098YOPC   C3A16009  -0.040   7.702   6.743 -0.3215 -0.0504 -0.0759
 1098YOPC   C4A16010  -0.285   7.723   7.166  0.0355  0.1420  0.3073
 1098YOPC   C1B16011   0.727   7.578   6.083 -0.0007 -0.1560  0.0934
 1098YOPC   C2B16012   0.971   7.509   6.423  0.0534 -0.0810  0.3157
 1098YOPC   D3B16013   0.927   7.422   6.827  0.0190 -0.0801  0.1240
 1098YOPC   C4B16014   0.625   7.337   7.186 -0.0555 -0.0145 -0.1705
 1099YOPC   NC316015   8.875   6.689   5.541 -0.0161  0.1747  0.1756
 1099YOPC   PO416016   8.501   6.499   5.322  0.2453 -0.1382 -0.0000
 1099YOPC   GL116017   8.589   6.284   5.670 -0.0122 -0.1555 -0.1652
 1099YOPC   GL216018   8.339   6.164   5.859 -0.5301  0.0214  0.0630
 1099YOPC   C1A16019   8.785   6.301   6.082 -0.3848  0.1403 -0.0710
 1099YOPC   D2A16020   9.228   6.420   6.187  0.2359 -0.1190  0.0459
 1099YOPC   C3A16021   9.598   6.708   6.189  0.2390  0.1549 -0.3068
 1099YOPC   C4A16022  10.007   6.495   6.145 -0.1145 -0.1860 -0.0225
 1099YOPC   C1B16023   8.087   6.382   6.113  0.1912 -0.0349 -0.0372
 1099YOPC   C2B16024   7.956   6.734   6.326  0.3442 -0.0365  0.2669
 1099YOPC   D3B16025   8.050   6.882   6.696  0.2499 -0.0518 -0.1271
 1099YOPC   C4B16026   7.980   7.249   6.687 -0.0140  0.5157 -0.2699
 1100YOPC   NC316027   6.141  14.079   4.500 -0.1428 -0.4724  0.4284
 1100YOPC   PO416028   5.895  14.343   4.944  0.0133  0.1640 -0.1387
 1100YOPC   GL116029   5.677  14.110   5.361 -0.0577 -0.1121  0.1515
 1100YOPC   GL216030   5.812  14.305   5.530  0.1274  0.3748 -0.0745
 1100YOPC   C1A16031   5.714  13.848   5.676 -0.0602  0.4727 -0.1982
 1100YOPC   D2A16032   5.959  13.670   6.039 -0.2367  0.2514  0.0999
 1100YOPC   C3A16033   6.308  14.071   6.112  0.0629 -0.0764 -0.3607
 1100YOPC   C4A16034   6.619  14.042   6.384 -0.0995  0.5491 -0.0479
 1100YOPC   C1B16035   5.929  14.271   5.887  0.0712  0.3435  0.0716
 1100YOPC   C2B16036   5.852  14.112   6.315  0.0369 -0.2943  0.1119
 1100YOPC   D3B16037   5.737  13.714   6.538 -0.2184 -0.4272  0.0587
 1100YOPC   C4B16038   5.969  13.300   6.688 -0.1250  0.2031  0.0153
 1101YOPC   NC316039   2.075   6.942   5.419 -0.0646 -0.0298 -0.1525
 1101YOPC   PO416040   2.237   6.561   5.476 -0.0757  0.2616 -0.0766
 1101YOPC   GL116041   2.446   6.456   5.932  0.0774  0.0836 -0.0373
 1101YOPC   GL216042   2.800   6.626   6.046  0.0547  0.0025  0.0527
 1101YOPC   C1A16043   2.574   6.228   6.420  0.0010 -0.3465  0.4667
 1101YOPC   D2A16044   2.566   6.277   6.774  0.0895  0.0394 -0.0956
 1101YOPC   C3A16045   2.564   6.543   7.071 -0.0909  0.2337 -0.4903
 1101YOPC   C4A16046   2.335   6.669   7.447 -0.0397 -0.2959  0.2967
 1101YOPC   C1B16047   2.887   6.998   6.248 -0.2892  0.2127  0.1538
 1101YOPC   C2B16048   3.199   7.238   6.574  0.0369  0.0576 -0.0239
 1101YOPC   D3B16049   3.413   7.020   6.872  0.3507 -0.1604  0.0728
 1101YOPC   C4B16050   3.677   7.002   7.144 -0.1497  0.1233  0.3711
 1102YOPC   NC316051  17.118   9.075   5.066  0.0013 -0.0525  0.0710
 1102YOPC   PO416052  17.420   8.745   5.114 -0.3350 -0.1300  0.1962
 1102YOPC   GL116053  17.451   8.957   5.486 -0.0597  0.1282  0.0777
 1102YOPC   GL216054  17.342   9.277   5.618  0.0514  0.2414 -0.0801
 1102YOPC   C1A16055  17.456   8.939   5.973  0.2456 -0.0081 -0.2620
 1102YOPC   D2A16056  17.598   8.919   6.435 -0.2082  0.0519 -0.1538
 1102YOPC   C3A16057  17.611   9.150   6.727 -0.1478 -0.1329 -0.1961
 1102YOPC   C4A16058  17.349   9.496   7.032 -0.0085  0.0472  0.2210
 1102YOPC   C1B16059  17.213   9.400   6.034 -0.0476 -0.1357  0.0435
 1102YOPC   C2B16060  17.216   9.307   6.519  0.1295 -0.2270  0.0244
 1102YOPC   D3B16061  16.820   9.262   6.521 -0.0119 -0.1095  0.1573
 1102YOPC   C4B16062  16.475   9.324   6.677  0.1601  0.1291 -0.0300
 1103YOPC   NC316063  14.853   8.432   5.572  0.0106 -0.1006  0.0035
 1103YOPC   PO416064  15.185   8.779   5.403  0.1534 -0.0110 -0.1845
 1103YOPC   GL116065  15.115   8.769   5.847 -0.0433 -0.0165 -0.3118
 1103YOPC   GL216066  15.100   8.357   5.966 -0.0733  0.0149  0.0903
 1103YOPC   C1A16067  15.056   8.773   6.280  0.1857 -0.0397 -0.1958
 1103YOPC   D2A16068  15.183   9.231   6.510 -0.0536 -0.3152 -0.0187
 1103YOPC   C3A16069  14.941   9.708   6.562  0.2502 -0.1102 -0.0735
 1103YOPC   C4A16070  15.041  10.047   6.510  0.5074 -0.1149  0.0801
 1103YOPC   C1B16071  15.351   8.349   6.315  0.0395  0.2940 -0.1078
 1103YOPC   C2B16072  15.659   8.322   6.686  0.0329  0.0963 -0.2768
 1103YOPC   D3B16073  15.779   8.065   6.962  0.3314 -0.0198  0.0644
 1103YOPC   C4B16074  16.067   7.822   7.258  0.0535  0.0317 -0.2661
 1104YOPC   NC316075  18.867  13.666   4.811 -0.4413  0.0302  0.0827
 1104YOPC   PO416076  18.695  13.767   5.321 -0.2770  0.1599 -0.0970
 1104YOPC   GL116077  18.603  13.890   5.723 -0.1758 -0.1225 -0.0403
 1104YOPC   GL216078  18.619  14.305   5.722  0.0969  0.2111 -0.2276
 1104YOPC   C1A16079  18.854  13.922   6.049 -0.1352 -0.4262  0.1666
 1104YOPC   D2A16080  18.964  13.648   6.330  0.0950  0.0583 -0.3122
 1104YOPC   C3A16081  19.135  13.979   6.503 -0.3478  0.2218 -0.0160
 1104YOPC   C4A16082  19.476  14.053   6.626  0.1277 -0.3644  0.1974
 1104YOPC   C1B16083  18.602  14.404   6.104 -0.2285  0.1728  0.1353
 1104YOPC   C2B16084  18.361  14.572   6.446  0.0162  0.1419  0.1811
 1104YOPC   D3B16085  18.400  14.928   6.614 -0.0226 -0.0266 -0.0538
 1104YOPC   C4B16086  18.589  15.069   7.068 -0.1553  0.0609 -0.0592
 1105YOPC   NC316087   6.162   9.913   4.617  0.1461 -0.3078  0.0885
 1105YOPC   PO416088   6.282  10.177   4.860 -0.1681  0.2415 -0.1221
 1105YOPC   GL116089   6.511  10.139   5.276 -0.1432 -0.0218  0.0716
 1105YOPC   GL216090   6.522  10.428   5.433 -0.1319 -0.0837 -0.1830
 1105YOPC   C1A16091   6.766   9.868   5.574  0.3715 -0.2281  0.1002
 1105YOPC   D2A16092   7.054  10.023   5.866 -0.2935 -0.4653 -0.0799
 1105YOPC   C3A16093   6.942  10.346   6.125  0.1106 -0.1603 -0.2224
 1105YOPC   C4A16094   7.193  10.677   6.372 -0.1250 -0.0805  0.4123
 1105YOPC   C1B16095   6.426  10.202   5.824 -0.2667 -0.0001  0.1777
 1105YOPC   C2B16096   6.502  10.148   6.262  0.2488 -0.0367  0.2451
 1105YOPC   D3B16097   6.876   9.841   6.405 -0.0167 -0.0294  0.0315
 1105YOPC   C4B16098   7.051   9.567   6.136  0.0596  0.1781 -0.0448
 1106YOPC   NC316099   2.649   1.545   4.630  0.2859  0.0670 -0.0700
 1106YOPC   PO416100   2.488   1.440   5.112  0.2212  0.2600  0.0276
 1106YOPC   GL116101   2.506   1.368   5.538 -0.1635 -0.0167 -0.0449
 1106YOPC   GL216102   2.667   1.112   5.698 -0.1143 -0.1831 -0.2665
 1106YOPC   C1A16103   2.202   1.419   5.822 -0.0738 -0.2655 -0.0020
 1106YOPC   D2A16104   2.222   1.763   5.943  0.2462  0.3150 -0.1949
 1106YOPC   C3A16105   2.582   1.862   6.065  0.0916 -0.0942  0.2731
 1106YOPC   C4A16106   2.875   2.038   6.403 -0.0036  0.0376 -0.0384
 1106YOPC   C1B16107   2.485   1.154   6.130  0.0352  0.0193 -0.0461
 1106YOPC   C2B16108   2.182   1.153   6.303  0.1074 -0.0228  0.1487
 1106YOPC   D3B16109   1.923   1.356   6.230  0.0806  0.2756  0.0787
 1106YOPC   C4B16110   1.483   1.277   6.212 -0.3330 -0.1512  0.2023
 1107YOPC   NC316111  13.516   3.731   4.791 -0.1263  0.3206  0.3296
 1107YOPC   PO416112  13.179   3.888   5.089 -0.3116  0.1350  0.0498
 1107YOPC   GL116113  13.148   3.794   5.586 -0.1647 -0.0570  0.1033
 1107YOPC   GL216114  12.899   4.077   5.616 -0.2778 -0.0429 -0.0551
 1107YOPC   C1A16115  13.248   3.779   6.061 -0.2279 -0.0515  0.2505
 1107YOPC   D2A16116  13.592   3.601   6.445  0.2479 -0.1321 -0.2194
 1107YOPC   C3A16117  13.562   3.447   6.816 -0.0583 -0.0332  0.2496
 1107YOPC   C4A16118  13.725   3.282   7.136  0.0959 -0.0942  0.0186
 1107YOPC   C1B16119  12.929   4.149   6.016 -0.0248 -0.0309 -0.1843
 1107YOPC   C2B16120  12.824   4.063   6.546  0.0772 -0.0044  0.1354
 1107YOPC   D3B16121  12.819   4.388   6.791 -0.2074  0.2268 -0.1194
 1107YOPC   C4B16122  12.725   4.357   7.226 -0.0373 -0.2902  0.1087
 1108YOPC   NC316123   8.489  14.321   5.494  0.1332 -0.3766 -0.0347
 1108YOPC   PO416124   8.702  14.686   5.480 -0.0502 -0.0571 -0.1850
 1108YOPC   GL116125   8.745  15.052   5.777 -0.1295  0.0307  0.0501
 1108YOPC   GL216126   8.394  15.116   5.676  0.1260  0.3115 -0.4317
 1108YOPC   C1A16127   8.954  15.211   6.202 -0.1676 -0.0926 -0.2067
 1108YOPC   D2A16128   9.224  15.164   6.586  0.3285 -0.0946 -0.0018
 1108YOPC   C3A16129   9.260  14.923   6.912  0.0687  0.1401  0.0688
 1108YOPC   C4A16130   9.589  14.788   7.063  0.1619  0.0190 -0.0711
 1108YOPC   C1B16131   8.371  15.235   6.087 -0.0030  0.0236  0.1045
 1108YOPC   C2B16132   8.333  15.578   6.401 -0.2797 -0.0422  0.1605
 1108YOPC   D3B16133   8.196  15.429   6.858 -0.1384  0.1758 -0.0228
 1108YOPC   C4B16134   8.039  15.594   7.158 -0.1786  0.2329 -0.0894
 1109YOPC   NC316135   5.947  17.747   4.161  0.4933 -0.4084 -0.2227
 1109YOPC   PO416136   5.784  17.489   4.532 -0.2260  0.1851 -0.1460
 1109YOPC   GL116137   5.658  17.474   4.904 -0.0088  0.0396  0.0531
 1109YOPC   GL216138   5.786  17.836   5.081  0.1432 -0.2963  0.1239
 1109YOPC   C1A16139   5.358  17.581   5.197 -0.0208  0.0742  0.2010
 1109YOPC   D2A16140   5.059  17.444   5.504  0.0641 -0.0312 -0.0536
 1109YOPC   C3A16141   4.884  17.228   5.792  0.2635 -0.1338  0.2240
 1109YOPC   C4A16142   4.811  16.740   5.849 -0.2235 -0.3249  0.2786
 1109YOPC   C1B16143   5.758  17.976   5.473  0.2536 -0.1174 -0.2351
 1109YOPC   C2B16144   5.796  17.983   5.881 -0.1739  0.2174 -0.2863
 1109YOPC   D3B16145   5.842  17.610   6.159 -0.1887 -0.1255 -0.0950
 1109YOPC   C4B16146   6.207  17.439   6.279 -0.0008  0.0194 -0.0075
 1110YOPC   NC316147  19.325   8.533   5.102 -0.0493  0.4421  0.0269
 1110YOPC   PO416148  19.244   8.441   5.609 -0.0372  0.0495  0.2345
 1110YOPC   GL116149  19.126   8.154   5.815  0.2295 -0.0543 -0.0420
 1110YOPC   GL216150  19.231   7.779   5.848 -0.3717 -0.0312  0.0140
 1110YOPC   C1A16151  18.892   8.008   6.227 -0.1491 -0.1626 -0.1054
 1110YOPC   D2A16152  18.759   8.084   6.699  0.0720 -0.1833  0.1512
 1110YOPC   C3A16153  18.749   7.828   7.038 -0.0779  0.2513 -0.1658
 1110YOPC   C4A16154  18.294   7.757   7.145 -0.2955 -0.3630 -0.0538
 1110YOPC   C1B16155  19.243   7.312   6.004  0.3657 -0.2577  0.0261
 1110YOPC   C2B16156  19.170   6.888   6.002 -0.2460 -0.0999 -0.0803
 1110YOPC   D3B16157  19.059   6.529   6.396 -0.0565  0.0765  0.0672
 1110YOPC   C4B16158  19.087   6.137   6.342  0.1600  0.0115  0.0641
 1111YOPC   NC316159   0.916  14.028   5.363  0.0016 -0.0791 -0.2029
 1111YOPC   PO416160   1.273  14.413   5.166  0.0622  0.3447 -0.0000
 1111YOPC   GL116161   1.310  14.324   5.638 -0.0567 -0.2495 -0.0349
 1111YOPC   GL216162   1.541  14.663   5.700  0.0773  0.3202 -0.0719
 1111YOPC   C1A16163   1.075  14.451   5.957  0.2869  0.0498 -0.1565
 1111YOPC   D2A16164   1.011  14.608   6.357 -0.2588  0.0534 -0.0721
 1111YOPC   C3A16165   1.138  14.484   6.735 -0.1982 -0.0567 -0.1631
 1111YOPC   C4A16166   1.158  14.417   7.141  0.0496  0.1683 -0.1550
 1111YOPC   C1B16167   1.652  14.719   6.067 -0.0486 -0.1775 -0.2218
 1111YOPC   C2B16168   1.416  14.901   6.419  0.1915  0.1384 -0.2855
 1111YOPC   D3B16169   1.615  14.726   6.752  0.1442 -0.0080  0.3276
 1111YOPC   C4B16170   1.643  14.445   7.141  0.0656  0.2735  0.2666
 1112YOPC   NC316171  19.282  11.029   5.024 -0.0484  0.2484  0.1370
 1112YOPC   PO416172  18.903  11.337   5.197 -0.2161 -0.0400  0.1252
 1112YOPC   GL116173  18.807  11.450   5.714 -0.3734  0.1919  0.2969
 1112YOPC   GL216174  18.707  11.218   5.722  0.2986 -0.0144 -0.0695
 1112YOPC   C1A16175  18.927  11.582   6.142  0.3434  0.2432  0.1416
 1112YOPC   D2A16176  19.204  11.728   6.442  0.3498  0.2914  0.2534
 1112YOPC   C3A16177  19.567  11.965   6.556 -0.1946  0.4256 -0.1583
 1112YOPC   C4A16178  19.944  12.070   6.718  0.2223  0.1956 -0.0777
 1112YOPC   C1B16179  18.788  11.026   6.132 -0.0091  0.2700  0.2562
 1112YOPC   C2B16180  18.776  10.694   6.518  0.1238  0.2303  0.2271
 1112YOPC   D3B16181  19.032  10.751   6.832 -0.1910 -0.3698  0.0443
 1112YOPC   C4B16182  19.194  11.017   7.210 -0.2457 -0.0076  0.1451
 1113YOPC   NC316183   7.902  17.748   5.164 -0.0526 -0.1268 -0.2332
 1113YOPC   PO416184   8.329  17.937   5.163 -0.0594 -0.1273  0.1105
 1113YOPC   GL116185   8.269  17.759   5.539 -0.1368 -0.0265  0.2935
 1113YOPC   GL216186   7.952  17.863   5.645 -0.1075 -0.0138  0.2102
 1113YOPC   C1A16187   8.224  17.843   5.999  0.1088  0.2463 -0.1625
 1113YOPC   D2A16188   7.958  17.991   6.391 -0.0347  0.1343 -0.0660
 1113YOPC   C3A16189   7.939  17.901   6.700  0.4146  0.1166  0.0194
 1113YOPC   C4A16190   8.041  17.776   7.137  0.2408  0.5551  0.3195
 1113YOPC   C1B16191   7.691  17.664   6.011 -0.1972 -0.2946 -0.0943
 1113YOPC   C2B16192   7.571  17.681   6.410  0.0423  0.1575  0.1168
 1113YOPC   D3B16193   7.653  17.447   6.748  0.0715 -0.0758  0.1376
 1113YOPC   C4B16194   7.346  17.336   7.027  0.1074  0.0339 -0.0001
 1114YOPC   NC316195   1.136  10.826   5.579 -0.0232  0.1320  0.1632
 1114YOPC   PO416196   1.517  11.087   5.523 -0.2719  0.0363 -0.0327
 1114YOPC   GL116197   1.681  10.980   5.887 -0.2173 -0.0687 -0.0523
 1114YOPC   GL216198   1.489  11.019   6.138  0.1149  0.1133  0.2246
 1114YOPC   C1A16199   1.769  10.595   6.057  0.2178  0.0894  0.2490
 1114YOPC   D2A16200   1.904  10.150   6.269 -0.0705 -0.2159  0.1885
 1114YOPC   C3A16201   1.656  10.017   6.664 -0.1804 -0.7074  0.2483
 1114YOPC   C4A16202   1.373   9.799   6.661 -0.0857 -0.2664  0.0597
 1114YOPC   C1B16203   1.625  11.151   6.528 -0.0679 -0.0762  0.0273
 1114YOPC   C2B16204   1.490  11.275   6.777  0.0983  0.1611  0.1205
 1114YOPC   D3B16205   1.557  11.111   7.188  0.0130 -0.2330 -0.1987
 1114YOPC   C4B16206   1.468  10.757   7.441  0.3121 -0.0739 -0.0510
 1115YOPC   NC316207  15.395   7.670   5.137 -0.0538 -0.0133 -0.0197
 1115YOPC   PO416208  15.815   7.569   5.208  0.1698  0.0644  0.2039
 1115YOPC   GL116209  15.798   7.432   5.576  0.0832  0.0668 -0.2692
 1115YOPC   GL216210  16.035   7.202   5.827  0.0650  0.4141 -0.2430
 1115YOPC   C1A16211  15.826   7.521   6.164  0.2089 -0.0481 -0.1524
 1115YOPC   D2A16212  15.867   7.488   6.650  0.0497  0.2068  0.1650
 1115YOPC   C3A16213  16.138   7.767   6.750 -0.0567  0.2998  0.1251
 1115YOPC   C4A16214  16.498   8.004   7.077  0.4326  0.4050  0.1788
 1115YOPC   C1B16215  16.057   6.975   6.281 -0.1472 -0.0408 -0.1273
 1115YOPC   C2B16216  15.914   6.616   6.541 -0.1574  0.1649 -0.3266
 1115YOPC   D3B16217  15.628   6.609   6.859 -0.3164 -0.2046 -0.0727
 1115YOPC   C4B16218  15.432   6.660   7.326  0.2241  0.0028  0.2620
 1116YOPC   NC316219  15.262   1.122   5.146  0.1196 -0.1682 -0.1002
 1116YOPC   PO416220  15.563   1.489   5.224 -0.0557  0.1482 -0.1331
 1116YOPC   GL116221  15.617   1.572   5.646 -0.2157 -0.0624  0.2420
 1116YOPC   GL216222  15.852   1.276   5.691  0.1217  0.0489 -0.1136
 1116YOPC   C1A16223  15.664   1.951   5.787 -0.1915 -0.4980  0.1530
 1116YOPC   D2A16224  15.369   2.189   5.989 -0.0080  0.0587 -0.2609
 1116YOPC   C3A16225  15.197   2.516   5.941 -0.2374  0.0438 -0.1795
 1116YOPC   C4A16226  15.147   2.841   5.676  0.1477 -0.0771 -0.0410
 1116YOPC   C1B16227  15.688   1.306   6.059  0.0606  0.4953  0.0415
 1116YOPC   C2B16228  15.691   1.394   6.474  0.0293 -0.1697 -0.0777
 1116YOPC   D3B16229  15.555   1.037   6.702  0.0357 -0.0087 -0.0625
 1116YOPC   C4B16230  15.495   0.708   7.004  0.2561 -0.3562  0.1858
 1117YOPC   NC316231  15.392  16.414   4.597 -0.1418 -0.0695  0.0877
 1117YOPC   PO416232  15.261  16.048   4.792 -0.1327  0.2277 -0.2036
 1117YOPC   GL116233  15.339  16.011   5.257  0.0776  0.1727  0.0112
 1117YOPC   GL216234  15.633  16.131   5.354  0.0009 -0.0497 -0.0536
 1117YOPC   C1A16235  15.110  15.727   5.591  0.3443  0.0325  0.2523
 1117YOPC   D2A16236  14.848  15.650   5.873 -0.2001 -0.0824 -0.0928
 1117YOPC   C3A16237  14.712  15.757   6.252  0.4140 -0.0291 -0.0487
 1117YOPC   C4A16238  14.573  16.021   6.504 -0.0036  0.0723 -0.1557
 1117YOPC   C1B16239  15.398  16.078   5.727  0.1367  0.1333  0.2529
 1117YOPC   C2B16240  15.007  16.107   6.057 -0.1367 -0.1802  0.0712
 1117YOPC   D3B16241  15.117  16.285   6.485 -0.2557  0.0434 -0.4420
 1117YOPC   C4B16242  14.969  16.558   6.792  0.1177 -0.0586 -0.1756
 1118YOPC   NC316243   5.164   7.720   5.488  0.0468 -0.0572 -0.0886
 1118YOPC   PO416244   5.280   7.353   5.577 -0.1898 -0.2190  0.1502
 1118YOPC   GL116245   5.160   7.013   5.837 -0.4042 -0.1953  0.1250
 1118YOPC   GL216246   4.915   7.141   5.939 -0.2793  0.0124 -0.2577
 1118YOPC   C1A16247   5.117   6.718   6.165 -0.1741 -0.1222  0.3825
 1118YOPC   D2A16248   5.273   6.497   6.535  0.3516  0.0650  0.2066
 1118YOPC   C3A16249   5.565   6.540   6.813  0.1098  0.1315  0.2907
 1118YOPC   C4A16250   5.722   6.566   7.213  0.3924  0.3367 -0.1341
 1118YOPC   C1B16251   4.801   7.226   6.407 -0.0313  0.0845 -0.0105
 1118YOPC   C2B16252   4.614   7.120   6.862  0.1845  0.2557 -0.1140
 1118YOPC   D3B16253   4.813   7.181   7.106  0.2161 -0.2155  0.2432
 1118YOPC   C4B16254   4.871   7.603   7.308 -0.0720 -0.3215  0.3841
 1119YOPC   NC316255  11.624   2.491   4.844  0.3102 -0.1508 -0.3621
 1119YOPC   PO416256  11.693   2.471   5.212 -0.0290  0.1559  0.1647
 1119YOPC   GL116257  11.598   2.708   5.605 -0.0207  0.1838  0.1976
 1119YOPC   GL216258  11.320   2.702   5.659  0.0964 -0.2420 -0.0967
 1119YOPC   C1A16259  11.612   2.643   6.060 -0.3386 -0.1105  0.0714
 1119YOPC   D2A16260  11.389   2.292   6.277 -0.1101  0.6539 -0.0635
 1119YOPC   C3A16261  11.460   2.242   6.758  0.4967  0.0466 -0.1665
 1119YOPC   C4A16262  11.538   2.171   7.184  0.1013  0.0336  0.0063
 1119YOPC   C1B16263  11.097   2.470   5.932  0.0590  0.1664  0.1490
 1119YOPC   C2B16264  10.770   2.212   6.030 -0.2428  0.3589 -0.3248
 1119YOPC   D3B16265  10.452   2.486   6.303  0.1539  0.3217  0.0263
 1119YOPC   C4B16266  10.166   2.640   5.966  0.1586  0.3347  0.0602
 1120YOPC   NC316267  10.611   6.580   5.448  0.0013 -0.1229 -0.1802
 1120YOPC   PO416268  10.755   6.923   5.641  0.2295 -0.0230 -0.1570
 1120YOPC   GL116269  10.948   6.552   5.773  0.1306 -0.0020  0.0366
 1120YOPC   GL216270  11.314   6.556   5.752 -0.1450 -0.3754 -0.1032
 1120YOPC   C1A16271  11.144   6.403   6.221 -0.0198 -0.0922 -0.1042
 1120YOPC   D2A16272  11.298   6.672   6.495  0.2342 -0.0286  0.1316
 1120YOPC   C3A16273  11.635   6.407   6.582  0.3823 -0.0907  0.2245
 1120YOPC   C4A16274  11.889   6.097   6.776 -0.1846  0.3535  0.0409
 1120YOPC   C1B16275  11.625   6.496   6.073  0.0935  0.2506 -0.4556
 1120YOPC   C2B16276  11.736   6.854   6.294  0.0703 -0.0324  0.2014
 1120YOPC   D3B16277  11.796   6.812   6.747 -0.0707  0.1833 -0.0357
 1120YOPC   C4B16278  11.769   6.623   7.097 -0.0099 -0.5938  0.0190
 1121YOPC   NC316279  12.243  12.709   4.770 -0.2728 -0.0724  0.1029
 1121YOPC   PO416280  12.433  12.418   5.132  0.2014 -0.3185 -0.2759
 1121YOPC   GL116281  12.389  12.611   5.558  0.1166  0.0383 -0.1398
 1121YOPC   GL216282  12.703  12.401   5.712  0.0564  0.3852 -0.0012
 1121YOPC   C1A16283  12.463  12.708   5.953  0.0295 -0.0581  0.0923
 1121YOPC   D2A16284  12.207  12.691   6.273  0.1008  0.1645  0.0026
 1121YOPC   C3A16285  11.971  13.108   6.375 -0.2133  0.2908 -0.0411
 1121YOPC   C4A16286  11.760  13.419   6.590  0.0800 -0.2505 -0.3712
 1121YOPC   C1B16287  12.660  12.294   6.131  0.2239 -0.1434 -0.2811
 1121YOPC   C2B16288  12.342  12.234   6.446 -0.5492 -0.2921  0.2226
 1121YOPC   D3B16289  12.098  11.808   6.384  0.3916  0.0451  0.0996
 1121YOPC   C4B16290  12.025  11.514   6.081  0.1762 -0.0123  0.2439
 1122YOPC   NC316291   1.270  17.593   4.756 -0.0013  0.2486 -0.0268
 1122YOPC   PO416292   0.927  17.923   4.629 -0.1794  0.0095 -0.1179
 1122YOPC   GL116293   0.662  17.736   5.009  0.0746 -0.2141  0.1434
 1122YOPC   GL216294   0.849  17.633   5.191 -0.2520 -0.1321 -0.1073
 1122YOPC   C1A16295   0.437  17.736   5.452 -0.2129 -0.4078 -0.2856
 1122YOPC   D2A16296   0.665  17.417   5.706 -0.2295 -0.0822 -0.1464
 1122YOPC   C3A16297   0.481  17.154   6.013 -0.1245  0.1851 -0.0424
 1122YOPC   C4A16298   0.370  16.825   6.325  0.2331  0.0693 -0.1245
 1122YOPC   C1B16299   0.937  17.852   5.643 -0.2858  0.1428 -0.4029
 1122YOPC   C2B16300   1.104  17.824   6.085  0.1870 -0.1805  0.1867
 1122YOPC   D3B16301   0.861  17.891   6.496 -0.3515 -0.1608  0.0382
 1122YOPC   C4B16302   0.981  18.157   6.794  0.1107 -0.0245 -0.0546
 1123YOPC   NC316303  16.146  17.175   5.106 -0.0859  0.0729 -0.1488
 1123YOPC   PO416304  16.482  17.079   5.275 -0.2748 -0.3396  0.2280
 1123YOPC   GL116305  16.616  16.771   5.565 -0.2017 -0.1669  0.1484
 1123YOPC   GL216306  16.329  16.491   5.681 -0.0687  0.1812 -0.1451
 1123YOPC   C1A16307  16.487  16.817   6.068  0.1636  0.5287  0.2588
 1123YOPC   D2A16308  16.757  16.985   6.350 -0.0035  0.0608 -0.1954
 1123YOPC   C3A16309  16.517  17.209   6.709 -0.2641  0.0621  0.0993
 1123YOPC   C4A16310  16.150  17.306   6.856 -0.1071  0.1326  0.3737
 1123YOPC   C1B16311  16.128  16.319   6.047  0.1237 -0.1339  0.2155
 1123YOPC   C2B16312  16.031  16.545   6.403 -0.0627  0.2825  0.3859
 1123YOPC   D3B16313  16.202  16.800   6.705  0.2678 -0.0141 -0.2375
 1123YOPC   C4B16314  16.244  16.805   7.112 -0.1307  0.1202  0.3501
 1124YOPC   NC316315  17.764  16.820   4.669  0.0106  0.2795 -0.0537
 1124YOPC   PO416316  17.482  17.018   4.930 -0.1045  0.1319  0.0976
 1124YOPC   GL116317  17.541  17.066   5.338 -0.3652  0.4212  0.3146
 1124YOPC   GL216318  17.431  17.287   5.414 -0.0877 -0.0763  0.2147
 1124YOPC   C1A16319  17.475  17.053   5.851 -0.0866 -0.2674  0.2891
 1124YOPC   D2A16320  17.675  17.235   6.186 -0.0391 -0.0957 -0.4390
 1124YOPC   C3A16321  18.119  17.196   6.380 -0.1129 -0.3021 -0.0268
 1124YOPC   C4A16322  18.440  17.011   6.200  0.1294 -0.1990 -0.0267
 1124YOPC   C1B16323  17.538  17.513   5.763 -0.0268  0.1105  0.0539
 1124YOPC   C2B16324  17.486  17.700   6.220  0.3898 -0.1566  0.1839
 1124YOPC   D3B16325  17.756  17.587   6.524 -0.2112 -0.2522  0.0931
 1124YOPC   C4B16326  18.199  17.708   6.545 -0.0270 -0.1558  0.0180
 1125YOPC   NC316327   4.096   9.876   5.262 -0.1195  0.1736 -0.0567
 1125YOPC   PO416328   3.833  10.012   5.533  0.4687 -0.2747  0.1379
 1125YOPC   GL116329   3.752  10.023   5.987 -0.0456 -0.0939  0.2078
 1125YOPC   GL216330   3.832  10.236   6.205  0.1974  0.1134  0.3945
 1125YOPC   C1A16331   3.580   9.774   6.298 -0.1312 -0.0797  0.1370
 1125YOPC   D2A16332   3.290   9.718   6.588  0.0420  0.2104 -0.0090
 1125YOPC   C3A16333   3.394   9.744   6.993  0.0342 -0.3009 -0.0584
 1125YOPC   C4A16334   3.595   9.888   7.326 -0.0714 -0.0761 -0.0522
 1125YOPC   C1B16335   3.980  10.489   6.475 -0.3947 -0.2129 -0.1323
 1125YOPC   C2B16336   4.105  10.545   6.940  0.1502 -0.0195  0.2474
 1125YOPC   D3B16337   4.509  10.325   6.924 -0.2107 -0.1608  0.2120
 1125YOPC   C4B16338   4.944  10.030   6.759 -0.0574 -0.0791 -0.0265
 1126YOPC   NC316339  13.847   9.193   5.711 -0.0045 -0.0840  0.1739
 1126YOPC   PO416340  13.420   9.126   5.687  0.0144 -0.0851  0.0756
 1126YOPC   GL116341  13.283   8.826   6.020  0.0488 -0.4606 -0.1054
 1126YOPC   GL216342  13.178   9.053   6.157 -0.2621 -0.1764 -0.1852
 1126YOPC   C1A16343  13.317   8.570   6.441 -0.1779 -0.2701  0.2293
 1126YOPC   D2A16344  13.448   8.308   6.803 -0.1468 -0.1900  0.2456
 1126YOPC   C3A16345  13.770   8.188   6.902  0.0974  0.3258  0.0030
 1126YOPC   C4A16346  14.093   7.999   7.115  0.1110  0.0156 -0.3047
 1126YOPC   C1B16347  13.070   8.981   6.555 -0.2670  0.1150  0.0465
 1126YOPC   C2B16348  12.936   9.064   6.886 -0.1281 -0.1264  0.4648
 1126YOPC   D3B16349  13.296   9.172   7.151 -0.0485 -0.3953  0.0308
 1126YOPC   C4B16350  13.716   9.192   7.350  0.1514  0.0771 -0.0583
 1127YOPC   NC316351   7.282  13.346   4.899 -0.1487  0.2019 -0.1378
 1127YOPC   PO416352   7.085  13.700   4.965 -0.3131 -0.0291  0.2581
 1127YOPC   GL116353   6.999  13.684   5.500  0.1602  0.0400  0.1781
 1127YOPC   GL216354   6.727  13.649   5.623  0.0896  0.0548 -0.0328
 1127YOPC   C1A16355   7.112  13.853   5.885  0.2855  0.1360 -0.0998
 1127YOPC   D2A16356   7.114  13.858   6.281  0.1033 -0.0166 -0.2385
 1127YOPC   C3A16357   7.283  13.806   6.692 -0.0086  0.2834 -0.0101
 1127YOPC   C4A16358   7.499  13.871   6.973 -0.1945  0.2973  0.1302
 1127YOPC   C1B16359   6.497  13.635   6.078 -0.1157 -0.0746 -0.3668
 1127YOPC   C2B16360   6.293  13.634   6.433 -0.0593  0.3036  0.0649
 1127YOPC   D3B16361   6.250  13.984   6.699  0.2116  0.2337  0.1730
 1127YOPC   C4B16362   6.031  14.228   6.901 -0.1336 -0.0092 -0.3256
 1128YOPC   NC316363   9.990  13.816   5.212 -0.0063  0.0487 -0.1310
 1128YOPC   PO416364   9.632  14.066   5.267  0.1850  0.3257  0.2782
 1128YOPC   GL116365   9.695  14.093   5.673  0.0234 -0.2189  0.1951
 1128YOPC   GL216366   9.337  14.184   5.801 -0.1636  0.1605 -0.2538
 1128YOPC   C1A16367   9.779  14.010   6.075  0.2080 -0.0373 -0.1937
 1128YOPC   D2A16368   9.875  14.156   6.486 -0.0443  0.3211  0.0080
 1128YOPC   C3A16369   9.859  13.939   6.850 -0.1180 -0.1504 -0.0265
 1128YOPC   C4A16370  10.064  13.834   7.170 -0.2052  0.0156  0.1750
 1128YOPC   C1B16371   8.912  14.154   6.123 -0.1929  0.3706  0.0550
 1128YOPC   C2B16372   8.877  13.814   6.455  0.2595 -0.0029 -0.1245
 1128YOPC   D3B16373   8.847  14.073   6.787  0.0729  0.4447  0.2026
 1128YOPC   C4B16374   8.926  14.070   7.268 -0.3138 -0.0262  0.2174
 1129YOPC   NC316375  15.364  14.608   5.203 -0.0796 -0.0303  0.0803
 1129YOPC   PO416376  15.001  14.479   5.205 -0.2625  0.1123  0.1216
 1129YOPC   GL116377  15.078  14.674   5.595 -0.0411  0.2118  0.1278
 1129YOPC   GL216378  15.134  14.978   5.448 -0.0621 -0.1392  0.0441
 1129YOPC   C1A16379  15.153  14.773   5.968 -0.0938 -0.1201  0.1536
 1129YOPC   D2A16380  15.021  14.750   6.395  0.2696 -0.1623  0.1571
 1129YOPC   C3A16381  14.967  14.640   6.848 -0.1860  0.1307 -0.0212
 1129YOPC   C4A16382  15.139  14.643   7.309 -0.2655  0.1638 -0.2679
 1129YOPC   C1B16383  15.157  15.245   5.813  0.0433  0.1851  0.2086
 1129YOPC   C2B16384  15.004  15.284   6.236 -0.2803 -0.1783 -0.1700
 1129YOPC   D3B16385  15.235  15.223   6.656  0.0367 -0.0126 -0.2479
 1129YOPC   C4B16386  15.542  15.250   6.964 -0.1343  0.3083  0.1178
 1130YOPC   NC316387  18.334  11.154   5.215  0.2863  0.1850  0.1255
 1130YOPC   PO416388  18.387  10.868   5.531  0.2311  0.2942  0.0271
 1130YOPC   GL116389  18.157  10.890   5.808  0.2236  0.5015  0.1076
 1130YOPC   GL216390  17.901  10.642   6.006  0.2245 -0.0219 -0.4697
 1130YOPC   C1A16391  18.218  10.944   6.193 -0.2384 -0.1576 -0.1463
 1130YOPC   D2A16392  18.029  11.166   6.476  0.3988  0.0959 -0.2048
 1130YOPC   C3A16393  17.714  10.998   6.814  0.0174 -0.0310 -0.0115
 1130YOPC   C4A16394  17.428  11.123   7.144 -0.1634 -0.1733 -0.2297
 1130YOPC   C1B16395  17.748  10.598   6.427  0.3628 -0.2014 -0.3450
 1130YOPC   C2B16396  17.383  10.427   6.607 -0.0448  0.1976 -0.1324
 1130YOPC   D3B16397  17.257  10.390   7.023  0.0831 -0.1114 -0.0118
 1130YOPC   C4B16398  17.144  10.435   7.478 -0.1941 -0.0847 -0.1325
 1131YOPC   NC316399  11.177   1.305   4.596  0.0425  0.0302 -0.2178
 1131YOPC   PO416400  10.806   1.051   4.429  0.0681  0.3081  0.1288
 1131YOPC   GL116401  10.652   1.063   4.827 -0.2366  0.1775 -0.1299
 1131YOPC   GL216402  10.858   1.190   5.031  0.0347  0.1012  0.3165
 1131YOPC   C1A16403  10.387   1.143   5.147 -0.0586 -0.1975 -0.0993
 1131YOPC   D2A16404  10.118   1.404   5.437 -0.1397  0.2607 -0.0654
 1131YOPC   C3A16405  10.051   1.259   5.879  0.1753 -0.1839 -0.0964
 1131YOPC   C4A16406   9.939   1.362   6.337 -0.0823 -0.2495  0.0311
 1131YOPC   C1B16407  11.141   1.187   5.369  0.1642 -0.2294  0.0077
 1131YOPC   C2B16408  11.140   1.380   5.805 -0.0562 -0.3310  0.3205
 1131YOPC   D3B16409  11.041   1.349   6.257 -0.0208 -0.2558  0.1574
 1131YOPC   C4B16410  10.894   1.312   6.687 -0.0961  0.0934  0.0631
 1132YOPC   NC316411   8.205   6.130   5.364  0.1927 -0.1622 -0.0747
 1132YOPC   PO416412   7.864   5.878   5.391  0.5249 -0.0756 -0.2058
 1132YOPC   GL116413   7.845   5.722   5.846  0.1608 -0.1902 -0.1197
 1132YOPC   GL216414   7.969   5.913   6.118 -0.2073  0.0745  0.0649
 1132YOPC   C1A16415   7.659   5.467   6.079  0.5008 -0.0853  0.1250
 1132YOPC   D2A16416   7.538   5.350   6.518 -0.0868  0.3394  0.2330
 1132YOPC   C3A16417   7.078   5.387   6.630  0.2020  0.0741  0.0163
 1132YOPC   C4A16418   6.688   5.037   6.865 -0.0365  0.2831  0.1076
 1132YOPC   C1B16419   7.804   5.862   6.386 -0.0848 -0.0375  0.0215
 1132YOPC   C2B16420   7.839   5.940   6.766  0.1669 -0.0479 -0.0775
 1132YOPC   D3B16421   8.258   5.960   6.907 -0.1999 -0.1554 -0.1292
 1132YOPC   C4B16422   8.467   5.664   7.193 -0.3914 -0.2965 -0.0353
 1133YOPC   NC316423   0.146  13.696   4.914 -0.0629 -0.1643 -0.1062
 1133YOPC   PO416424   0.413  14.084   5.117 -0.0989 -0.0286  0.0567
 1133YOPC   GL116425   0.141  13.865   5.387 -0.0358  0.0002  0.4321
 1133YOPC   GL216426   0.074  14.095   5.602 -0.1428  0.1019  0.0763
 1133YOPC   C1A16427   0.034  13.595   5.778  0.3679  0.1828  0.2473
 1133YOPC   D2A16428   0.385  13.262   6.050  0.1788 -0.2888  0.1270
 1133YOPC   C3A16429   0.280  13.137   6.526  0.3006  0.3048 -0.0794
 1133YOPC   C4A16430   0.126  13.139   6.924 -0.1405 -0.3733  0.0630
 1133YOPC   C1B16431   0.078  14.289   5.928 -0.1383 -0.3614  0.0623
 1133YOPC   C2B16432   0.108  14.258   6.308 -0.0027  0.0929  0.2396
 1133YOPC   D3B16433   0.386  14.491   6.584  0.1491 -0.1249 -0.1055
 1133YOPC   C4B16434   0.764  14.858   6.712 -0.0353 -0.1194  0.0395
 1134YOPC   NC316435   7.207  12.134   5.360 -0.0776 -0.0233 -0.0202
 1134YOPC   PO416436   7.709  12.059   5.190 -0.3638  0.2994  0.0078
 1134YOPC   GL116437   7.769  12.204   5.623 -0.3416 -0.1824  0.0562
 1134YOPC   GL216438   8.158  12.142   5.775 -0.2796 -0.2671 -0.0447
 1134YOPC   C1A16439   7.767  12.496   5.914  0.1437 -0.1083  0.0296
 1134YOPC   D2A16440   7.912  12.813   6.241 -0.2114 -0.0472 -0.0329
 1134YOPC   C3A16441   7.744  12.925   6.488 -0.1114  0.0631  0.1205
 1134YOPC   C4A16442   7.616  12.875   6.974  0.1328  0.1558  0.1508
 1134YOPC   C1B16443   8.130  12.075   6.152 -0.0882 -0.3522  0.3316
 1134YOPC   C2B16444   8.081  11.757   6.540 -0.1496  0.0596 -0.1576
 1134YOPC   D3B16445   7.810  11.377   6.616 -0.0042 -0.1468 -0.1041
 1134YOPC   C4B16446   7.433  11.060   6.737  0.1438 -0.1367  0.0926
 1135YOPC   NC316447   9.336   7.881   5.366  0.0348  0.1317 -0.0450
 1135YOPC   PO416448   9.326   7.489   5.565  0.1822 -0.0280  0.1111
 1135YOPC   GL116449   9.234   7.385   6.014  0.1406 -0.1398  0.0108
 1135YOPC   GL216450   9.550   7.197   6.090  0.0391 -0.0827 -0.0213
 1135YOPC   C1A16451   9.114   7.345   6.470  0.0623 -0.0925 -0.1667
 1135YOPC   D2A16452   9.238   7.358   6.839  0.1578 -0.0129  0.0808
 1135YOPC   C3A16453   8.768   7.469   7.048 -0.2605  0.2669 -0.1194
 1135YOPC   C4A16454   8.600   7.913   7.110  0.1981  0.0125 -0.3093
 1135YOPC   C1B16455   9.651   7.072   6.504 -0.2878  0.0535  0.0407
 1135YOPC   C2B16456   9.760   7.155   6.862  0.2502  0.0603  0.1808
 1135YOPC   D3B16457   9.665   7.086   7.274  0.0573  0.2782  0.4648
 1135YOPC   C4B16458   9.541   6.861   7.658  0.2446 -0.0111 -0.1352
 1136YOPC   NC316459  15.239   0.113   5.028 -0.3088  0.0316  0.0600
 1136YOPC   PO416460  15.491  -0.265   4.881  0.2843  0.2481  0.2723
 1136YOPC   GL116461  15.442  -0.279   5.308 -0.1698  0.0871 -0.0200
 1136YOPC   GL216462  15.139  -0.187   5.365  0.0551  0.0280 -0.0551
 1136YOPC   C1A16463  15.395  -0.106   5.736 -0.1689 -0.0142  0.1792
 1136YOPC   D2A16464  15.196  -0.025   6.073 -0.2175  0.0101 -0.1171
 1136YOPC   C3A16465  15.085   0.229   6.502 -0.0042 -0.0964  0.2424
 1136YOPC   C4A16466  14.997   0.614   6.799 -0.1661 -0.2636 -0.3050
 1136YOPC   C1B16467  14.712  -0.377   5.398  0.0231  0.0315  0.0106
 1136YOPC   C2B16468  14.316  -0.267   5.401  0.2677  0.1124 -0.1503
 1136YOPC   D3B16469  14.340   0.091   5.641  0.0841 -0.2025 -0.1159
 1136YOPC   C4B16470  14.485   0.476   5.815  0.0616  0.0092 -0.0934
 1137YOPC   NC316471  11.222   9.335   4.757 -0.1480 -0.0605  0.0195
 1137YOPC   PO416472  10.814   9.368   4.937  0.0542 -0.0438 -0.0632
 1137YOPC   GL116473  10.884   9.417   5.341  0.1630  0.0733 -0.1015
 1137YOPC   GL216474  10.904   9.188   5.485 -0.2390  0.1461 -0.0900
 1137YOPC   C1A16475  10.566   9.381   5.805  0.0531  0.2055 -0.0546
 1137YOPC   D2A16476  10.569   9.221   6.194  0.1548 -0.0944 -0.2216
 1137YOPC   C3A16477  10.881   9.358   6.403  0.2726 -0.4192 -0.0810
 1137YOPC   C4A16478  11.047   9.429   6.815 -0.1310  0.2967  0.2300
 1137YOPC   C1B16479  11.087   9.276   5.914  0.0769 -0.2297  0.2696
 1137YOPC   C2B16480  11.349   9.485   6.250  0.2683  0.1424  0.0294
 1137YOPC   D3B16481  11.122   9.809   6.519  0.0083  0.3129 -0.0429
 1137YOPC   C4B16482  10.832   9.840   6.765  0.2031 -0.0574 -0.0538
 1138YOPC   NC316483   6.646  17.604   5.147 -0.3162 -0.0572  0.2011
 1138YOPC   PO416484   6.612  17.994   4.868  0.0450  0.0412  0.0757
 1138YOPC   GL116485   6.330  18.001   5.216 -0.3290  0.1009 -0.2640
 1138YOPC   GL216486   6.105  18.266   5.247 -0.0291 -0.1038  0.0615
 1138YOPC   C1A16487   6.226  17.887   5.570  0.2143  0.0140  0.3083
 1138YOPC   D2A16488   6.232  17.617   5.847 -0.1318  0.2263  0.1733
 1138YOPC   C3A16489   6.571  17.350   5.953 -0.0987 -0.2382 -0.0516
 1138YOPC   C4A16490   6.936  17.139   5.772 -0.1315 -0.0179  0.1224
 1138YOPC   C1B16491   6.142  18.360   5.700  0.1600 -0.1059 -0.3111
 1138YOPC   C2B16492   6.246  18.563   6.077  0.1076 -0.1651  0.3143
 1138YOPC   D3B16493   6.030  18.481   6.444 -0.0364  0.1674 -0.0070
 1138YOPC   C4B16494   5.893  18.468   6.869 -0.2683  0.2201 -0.0133
 1139YOPC   NC316495  11.455  18.500   4.975  0.2532 -0.0956  0.0093
 1139YOPC   PO416496  11.467  18.086   5.046 -0.0837  0.0348 -0.3644
 1139YOPC   GL116497  11.466  17.985   5.559 -0.2500  0.0276  0.0761
 1139YOPC   GL216498  11.202  17.905   5.757  0.0290  0.1025 -0.1001
 1139YOPC   C1A16499  11.694  17.815   5.918 -0.2914  0.0398 -0.3008
 1139YOPC   D2A16500  12.060  17.781   6.216 -0.0253 -0.3690 -0.4384
 1139YOPC   C3A16501  11.866  17.719   6.597 -0.2503 -0.0864  0.2047
 1139YOPC   C4A16502  11.984  17.718   7.072  0.1982  0.0356  0.0608
 1139YOPC   C1B16503  11.014  17.571   6.074 -0.0092 -0.1690  0.0660
 1139YOPC   C2B16504  10.850  17.142   6.213 -0.0019 -0.1992  0.1431
 1139YOPC   D3B16505  10.681  17.122   6.547  0.2591 -0.0758  0.0261
 1139YOPC   C4B16506  10.812  17.106   6.947 -0.1138 -0.2810 -0.0438
 1140YOPC   NC316507   6.724   6.148   5.090  0.0155 -0.2261 -0.0081
 1140YOPC   PO416508   7.145   6.149   5.084  0.0590 -0.1713 -0.4575
 1140YOPC   GL116509   7.236   6.011   5.525  0.1545 -0.1702  0.0229
 1140YOPC   GL216510   6.902   5.976   5.693  0.2901 -0.0917  0.2231
 1140YOPC   C1A16511   7.395   5.900   5.844 -0.1749  0.2776  0.0903
 1140YOPC   D2A16512   7.280   5.780   6.329 -0.0140  0.0322 -0.0645
 1140YOPC   C3A16513   7.360   5.834   6.731  0.1404 -0.0292 -0.2458
 1140YOPC   C4A16514   7.338   6.178   7.057  0.1670  0.0263 -0.2764
 1140YOPC   C1B16515   6.867   5.967   6.045 -0.3155  0.1477 -0.1850
 1140YOPC   C2B16516   7.024   6.156   6.532  0.1100 -0.0120 -0.6123
 1140YOPC   D3B16517   6.913   5.894   6.882  0.0684 -0.1592 -0.2675
 1140YOPC   C4B16518   7.082   5.867   7.378 -0.0394 -0.0110  0.2030
 1141YOPC   NC316519   4.214   8.315   5.116 -0.1308  0.1370 -0.0787
 1141YOPC   PO416520   4.291   8.690   5.326  0.0179 -0.0217 -0.3007
 1141YOPC   GL116521   4.207   8.941   5.700  0.1107 -0.0914 -0.0150
 1141YOPC   GL216522   4.207   9.262   5.748 -0.0836 -0.0663  0.0543
 1141YOPC   C1A16523   4.242   8.818   6.122 -0.0557 -0.2929  0.0147
 1141YOPC   D2A16524   3.771   8.660   6.323  0.1417 -0.4439 -0.0604
 1141YOPC   C3A16525   3.928   8.511   6.722  0.1748  0.1157 -0.1546
 1141YOPC   C4A16526   3.766   8.496   7.164 -0.2204  0.0147  0.0991
 1141YOPC   C1B16527   3.984   9.510   6.100 -0.5334 -0.1204  0.1066
 1141YOPC   C2B16528   3.990   9.630   6.520  0.0137  0.0405 -0.0161
 1141YOPC   D3B16529   3.866   9.962   6.724 -0.0849 -0.0915 -0.3156
 1141YOPC   C4B16530   3.838  10.132   7.000 -0.0662  0.0780  0.2841
 1142YOPC   NC316531  12.162   0.267   5.272  0.0122 -0.2359  0.0636
 1142YOPC   PO416532  12.391   0.640   5.323  0.3025 -0.0436  0.0918
 1142YOPC   GL116533  12.290   0.925   5.640  0.0413 -0.0551  0.1678
 1142YOPC   GL216534  12.598   1.027   5.810  0.0256  0.2124 -0.0312
 1142YOPC   C1A16535  12.030   0.837   6.010 -0.2146  0.1145 -0.3010
 1142YOPC   D2A16536  11.888   0.979   6.400  0.1017 -0.4710  0.2554
 1142YOPC   C3A16537  12.344   1.085   6.544 -0.2860 -0.0678  0.0460
 1142YOPC   C4A16538  12.706   1.332   6.529 -0.0648 -0.1410  0.3009
 1142YOPC   C1B16539  12.413   1.270   6.102 -0.2866  0.1512 -0.0944
 1142YOPC   C2B16540  12.566   1.665   6.178 -0.1003 -0.1551 -0.2891
 1142YOPC   D3B16541  12.470   1.958   5.821 -0.1618  0.3761 -0.2649
 1142YOPC   C4B16542  12.899   2.228   5.773 -0.0967 -0.0768  0.1582
 1143YOPC   NC316543  15.451   5.749   5.138 -0.2178 -0.0376  0.2122
 1143YOPC   PO416544  15.345   5.385   5.415 -0.0020 -0.0465 -0.2134
 1143YOPC   GL116545  15.201   5.515   5.779  0.0864  0.0939  0.0768
 1143YOPC   GL216546  15.432   5.820   5.783  0.0994  0.2880 -0.0641
 1143YOPC   C1A16547  15.170   5.253   6.189 -0.0595  0.2848 -0.0810
 1143YOPC   D2A16548  15.198   5.052   6.644  0.2567 -0.1186 -0.2266
 1143YOPC   C3A16549  15.354   4.619   6.758  0.0644 -0.0550 -0.0805
 1143YOPC   C4A16550  15.361   4.157   6.938  0.1388  0.1139  0.2528
 1143YOPC   C1B16551  15.662   5.709   6.170 -0.1858 -0.1980  0.0050
 1143YOPC   C2B16552  16.003   5.456   6.214  0.0298  0.3744  0.0978
 1143YOPC   D3B16553  16.364   5.431   6.562 -0.0300 -0.2057  0.0042
 1143YOPC   C4B16554  16.207   5.701   6.868 -0.1213  0.1388 -0.0068
 1144YOPC   NC316555   9.587  15.662   5.000 -0.0202 -0.2027 -0.1484
 1144YOPC   PO416556   9.800  15.965   5.338  0.0260  0.1268  0.0281
 1144YOPC   GL116557   9.873  16.279   5.659 -0.1290 -0.1870  0.0909
 1144YOPC   GL216558   9.667  16.420   5.738 -0.0468  0.1632 -0.1103
 1144YOPC   C1A16559  10.172  16.168   6.012 -0.1251 -0.1201 -0.0253
 1144YOPC   D2A16560  10.260  16.110   6.472 -0.1043 -0.3172  0.0938
 1144YOPC   C3A16561  10.501  15.737   6.649  0.1139  0.0013  0.0777
 1144YOPC   C4A16562  10.317  15.457   6.865 -0.0206  0.1176 -0.1334
 1144YOPC   C1B16563   9.633  16.779   5.967 -0.0072 -0.1066  0.3818
 1144YOPC   C2B16564   9.791  17.070   6.363  0.0261  0.2689  0.1877
 1144YOPC   D3B16565   9.431  17.217   6.603 -0.2062 -0.1043  0.0546
 1144YOPC   C4B16566   9.009  17.439   6.382 -0.1028  0.0661  0.2749
 1145YOPC   NC316567  13.168  12.775   4.759  0.1197 -0.2179 -0.0591
 1145YOPC   PO416568  13.353  12.527   5.074 -0.0649  0.3196  0.2479
 1145YOPC   GL116569  13.415  12.657   5.505  0.0905 -0.1030  0.0046
 1145YOPC   GL216570  13.178  12.834   5.681  0.0457  0.0819 -0.3247
 1145YOPC   C1A16571  13.405  12.458   5.965 -0.2162  0.2327  0.3070
 1145YOPC   D2A16572  13.189  12.437   6.378  0.2858  0.1960  0.0643
 1145YOPC   C3A16573  12.888  12.096   6.652  0.0990  0.1191  0.2019
 1145YOPC   C4A16574  12.975  11.784   6.884  0.1781 -0.1737 -0.0213
 1145YOPC   C1B16575  12.956  12.759   5.945  0.0874  0.2886  0.0692
 1145YOPC   C2B16576  12.853  12.822   6.375 -0.3122  0.4309 -0.2233
 1145YOPC   D3B16577  12.953  12.627   6.798  0.1983 -0.0632  0.1536
 1145YOPC   C4B16578  13.308  12.301   6.919  0.1217  0.0889 -0.0691
 1146ERGO   ROH16579  13.393   0.080   5.644  0.0359  0.0461 -0.1748
 1146ERGO    R116580  13.608   0.139   5.819 -0.0634 -0.1451  0.0159
 1146ERGO    R216581  13.702  -0.042   6.005 -0.0355 -0.4340 -0.2749
 1146ERGO    R316582  13.940   0.005   5.883 -0.0102 -0.0748 -0.1024
 1146ERGO    R416583  14.002   0.010   6.169 -0.1572 -0.4135 -0.0534
 1146ERGO    R516584  14.049   0.165   6.024 -0.2076 -0.1714  0.1744
 1146ERGO    C116585  14.400   0.084   6.149 -0.2042 -0.0643  0.2376
 1146ERGO    C216586  14.555  -0.005   6.317  0.0555  0.1426 -0.1934
 1147ERGO   ROH16587   1.407  12.428   6.125  0.0372 -0.0509  0.0660
 1147ERGO    R116588   1.485  12.552   6.367  0.0435 -0.0765  0.0772
 1147ERGO    R216589   1.613  12.797   6.375 -0.0429 -0.0313  0.1047
 1147ERGO    R316590   1.409  12.862   6.542 -0.0316 -0.1422  0.1619
 1147ERGO    R416591   1.646  12.984   6.664 -0.1067  0.2486 -0.0656
 1147ERGO    R516592   1.506  12.849   6.761  0.1078  0.1534  0.1226
 1147ERGO    C116593   1.474  13.154   6.989 -0.1332  0.3076 -0.1112
 1147ERGO    C216594   1.615  13.512   7.081  0.2075 -0.0442 -0.0086
 1148ERGO   ROH16595   4.311   3.143   5.174  0.2455 -0.1219  0.0350
 1148ERGO    R116596   4.478   3.094   5.397  0.1176 -0.1277  0.1307
 1148ERGO    R216597   4.494   3.266   5.612  0.1191 -0.0488  0.0686
 1148ERGO    R316598   4.433   3.042   5.754 -0.0732  0.0425  0.1330
 1148ERGO    R416599   4.604   3.202   5.933  0.1307 -0.0865  0.0569
 1148ERGO    R516600   4.634   2.993   5.875 -0.0925 -0.1327  0.0961
 1148ERGO    C116601   4.611   2.954   6.254 -0.0431 -0.0228  0.1105
 1148ERGO    C216602   4.603   2.879   6.675 -0.1759  0.1178  0.0318
 1149ERGO   ROH16603   4.979  15.217   5.987 -0.0323  0.0632 -0.2113
 1149ERGO    R116604   5.041  15.133   6.250  0.0902 -0.0552 -0.2765
 1149ERGO    R216605   4.976  15.283   6.473  0.5141  0.0247 -0.1951
 1149ERGO    R316606   4.856  15.052   6.553  0.2442  0.1885 -0.1144
 1149ERGO    R416607   4.974  15.163   6.797  0.5338  0.0435 -0.1883
 1149ERGO    R516608   5.004  14.962   6.718  0.2166 -0.0044 -0.1946
 1149ERGO    C116609   4.860  14.877   7.061  0.2919  0.2081 -0.1084
 1149ERGO    C216610   4.883  14.720   7.457 -0.0433 -0.2497 -0.1780
 1150ERGO   ROH16611  16.896   9.038   5.870  0.1890  0.1583  0.0304
 1150ERGO    R116612  16.893   8.943   6.137  0.2192 -0.0353 -0.0365
 1150ERGO    R216613  16.983   8.691   6.207  0.3976 -0.0188 -0.2049
 1150ERGO    R316614  17.140   8.830   6.380  0.2677 -0.0248 -0.0798
 1150ERGO    R416615  17.141   8.556   6.483 -0.1457  0.0492  0.1549
 1150ERGO    R516616  17.090   8.736   6.594 -0.1506  0.1931 -0.0690
 1150ERGO    C116617  17.380   8.608   6.806 -0.5841  0.0832  0.4819
 1150ERGO    C216618  17.539   8.570   7.153 -0.1945 -0.1067 -0.0247
 1151ERGO   ROH16619   9.102  14.660   5.756 -0.0223 -0.1603 -0.1080
 1151ERGO    R116620   9.088  14.575   6.025 -0.0902 -0.1089 -0.0958
 1151ERGO    R216621   9.089  14.752   6.237 -0.1123 -0.0719 -0.1312
 1151ERGO    R316622   8.861  14.621   6.306 -0.1432 -0.0300 -0.1501
 1151ERGO    R416623   8.964  14.727   6.559 -0.0353 -0.2086 -0.1106
 1151ERGO    R516624   8.911  14.520   6.517 -0.1212 -0.1701 -0.2181
 1151ERGO    C116625   8.678  14.589   6.810 -0.0193 -0.2487 -0.1163
 1151ERGO    C216626   8.711  14.669   7.115 -0.3305 -0.0621  0.0221
 1152ERGO   ROH16627   1.282   7.510   6.015 -0.1488  0.0766 -0.1565
 1152ERGO    R116628   1.243   7.230   6.014 -0.0864  0.0679 -0.1791
 1152ERGO    R216629   1.245   7.079   6.246  0.0775  0.0314 -0.2043
 1152ERGO    R316630   1.002   6.996   6.155  0.0445 -0.0096 -0.0806
 1152ERGO    R416631   1.056   6.827   6.389  0.2541 -0.0892 -0.1809
 1152ERGO    R516632   1.004   6.759   6.188  0.1455 -0.0242 -0.1775
 1152ERGO    C116633   0.719   6.603   6.387  0.3261 -0.1980 -0.0511
 1152ERGO    C216634   0.527   6.513   6.573  0.0624 -0.1939 -0.0437
 1153ERGO   ROH16635   1.077  13.944   5.831 -0.0433 -0.0612  0.2044
 1153ERGO    R116636   0.951  13.942   6.084  0.0530 -0.2078  0.2537
 1153ERGO    R216637   1.090  13.898   6.319  0.1902 -0.0855  0.2014
 1153ERGO    R316638   0.976  14.134   6.393 -0.0210 -0.2032  0.2559
 1153ERGO    R416639   0.940  13.958   6.625  0.0389 -0.3160  0.1745
 1153ERGO    R516640   0.784  14.070   6.521 -0.0130 -0.4008  0.1681
 1153ERGO    C116641   0.746  14.215   6.872 -0.2475 -0.5607  0.2100
 1153ERGO    C216642   0.649  14.426   7.123  0.2554 -0.1337  0.1869
 1154ERGO   ROH16643   9.552  15.908   5.781 -0.0926 -0.2890 -0.0244
 1154ERGO    R116644   9.714  15.983   6.000 -0.1059 -0.1122 -0.0731
 1154ERGO    R216645   9.638  16.177   6.182 -0.1947 -0.0869 -0.1333
 1154ERGO    R316646   9.686  15.980   6.363 -0.0562  0.0056 -0.0685
 1154ERGO    R416647   9.600  16.209   6.524 -0.1375  0.0180 -0.1367
 1154ERGO    R516648   9.783  16.093   6.550 -0.0750  0.1222 -0.1311
 1154ERGO    C116649   9.624  16.043   6.893  0.0258  0.1659 -0.0779
 1154ERGO    C216650   9.437  15.906   7.045  0.2099  0.0592 -0.0777
 1155ERGO   ROH16651   7.653   3.101   5.530  0.1064 -0.0103  0.0790
 1155ERGO    R116652   7.547   3.071   5.791  0.0073 -0.0506  0.0382
 1155ERGO    R216653   7.534   2.826   5.919 -0.0936 -0.0944 -0.0148
 1155ERGO    R316654   7.669   2.958   6.114 -0.1208 -0.1593  0.0435
 1155ERGO    R416655   7.604   2.700   6.234  0.1855 -0.3011 -0.1575
 1155ERGO    R516656   7.560   2.896   6.317  0.0534 -0.4341  0.0408
 1155ERGO    C116657   7.771   2.752   6.599  0.3225 -0.4823 -0.1858
 1155ERGO    C216658   7.882   2.633   6.964  0.1329  0.2722 -0.1115
 1156ERGO   ROH16659  10.485  10.927   6.037  0.1203 -0.2378 -0.0310
 1156ERGO    R116660  10.405  10.948   6.308  0.0422 -0.0764 -0.0658
 1156ERGO    R216661  10.342  10.727   6.462 -0.0092  0.0165  0.0449
 1156ERGO    R316662  10.528  10.832   6.630 -0.0556  0.1081  0.0404
 1156ERGO    R416663  10.422  10.599   6.773  0.1436 -0.0191 -0.0084
 1156ERGO    R516664  10.435  10.803   6.848  0.0037 -0.0290  0.0503
 1156ERGO    C116665  10.644  10.623   7.111  0.1888  0.0463 -0.0437
 1156ERGO    C216666  10.723  10.505   7.357  0.1696  0.0540  0.3150
 1157ERGO   ROH16667  19.094  16.759   5.310 -0.2543 -0.0756 -0.1043
 1157ERGO    R116668  19.003  16.948   5.500 -0.0768 -0.0506 -0.0405
 1157ERGO    R216669  18.872  16.874   5.732 -0.1082 -0.0078 -0.0381
 1157ERGO    R316670  19.067  17.021   5.851  0.0331 -0.1992 -0.0299
 1157ERGO    R416671  18.872  16.970   6.064 -0.0981  0.1288 -0.0779
 1157ERGO    R516672  18.949  17.164   6.003  0.1617  0.0078 -0.1276
 1157ERGO    C116673  19.054  17.164   6.369  0.0405  0.0288 -0.0933
 1157ERGO    C216674  19.100  17.025   6.571 -0.1552  0.2604 -0.0260
 1158ERGO   ROH16675   1.327  11.431   5.889  0.3461 -0.3256  0.1571
 1158ERGO    R116676   1.191  11.549   6.107  0.3506 -0.0618  0.0209
 1158ERGO    R216677   0.995  11.417   6.250  0.1255  0.2245 -0.0147
 1158ERGO    R316678   1.152  11.481   6.462  0.0781  0.1664  0.0380
 1158ERGO    R416679   0.890  11.420   6.579  0.0482  0.1449 -0.0382
 1158ERGO    R516680   1.007  11.601   6.609  0.0471  0.1340  0.0345
 1158ERGO    C116681   0.976  11.481   6.970 -0.0414  0.0439 -0.0024
 1158ERGO    C216682   0.895  11.470   7.360 -0.0560  0.1587 -0.0480
 1159ERGO   ROH16683   7.929  15.480   5.798  0.1800 -0.1637  0.1098
 1159ERGO    R116684   7.969  15.558   6.067  0.0550  0.0661  0.0648
 1159ERGO    R216685   7.822  15.760   6.187 -0.1930 -0.0132 -0.0907
 1159ERGO    R316686   7.771  15.567   6.372 -0.0004  0.0486  0.0284
 1159ERGO    R416687   7.716  15.819   6.510 -0.0444  0.0828 -0.0592
 1159ERGO    R516688   7.848  15.660   6.578  0.0667  0.1794 -0.0570
 1159ERGO    C116689   7.606  15.673   6.872  0.2228  0.1968  0.0709
 1159ERGO    C216690   7.548  15.590   7.377  0.1050  0.0796  0.0996
 1160ERGO   ROH16691   8.380   9.760   5.443 -0.0228 -0.1139 -0.1506
 1160ERGO    R116692   8.405   9.698   5.718 -0.0844 -0.0586 -0.1324
 1160ERGO    R216693   8.572   9.837   5.888 -0.0822 -0.0603 -0.1360
 1160ERGO    R316694   8.345   9.868   6.034 -0.0992  0.0249 -0.1790
 1160ERGO    R416695   8.561   9.866   6.232 -0.1162  0.1267 -0.1517
 1160ERGO    R516696   8.384   9.739   6.232 -0.1217  0.1289 -0.1034
 1160ERGO    C116697   8.341   9.911   6.570 -0.1518  0.3155 -0.2010
 1160ERGO    C216698   8.387   9.797   6.929  0.1342 -0.0116  0.2756
 1161ERGO   ROH16699  18.745   4.633   5.183 -0.2744 -0.2266  0.0220
 1161ERGO    R116700  18.855   4.665   5.442 -0.0638 -0.0329 -0.0873
 1161ERGO    R216701  18.928   4.911   5.544 -0.2994  0.0891 -0.2031
 1161ERGO    R316702  18.764   4.840   5.749 -0.0084 -0.1033 -0.0310
 1161ERGO    R416703  18.867   5.104   5.824 -0.3985  0.1132 -0.2410
 1161ERGO    R516704  18.875   4.922   5.944  0.0165  0.1774 -0.1607
 1161ERGO    C116705  18.678   5.149   6.180 -0.1830 -0.0532 -0.1014
 1161ERGO    C216706  18.482   5.452   6.235  0.2259 -0.0125  0.4243
 1162ERGO   ROH16707  13.811   7.982   5.901 -0.0192  0.1926  0.1254
 1162ERGO    R116708  13.910   7.799   6.093 -0.1216  0.0167  0.0133
 1162ERGO    R216709  14.026   7.881   6.330  0.1179 -0.1892 -0.0300
 1162ERGO    R316710  13.840   7.717   6.441 -0.0145 -0.0007  0.0313
 1162ERGO    R416711  14.027   7.776   6.659  0.1379 -0.2141 -0.0377
 1162ERGO    R516712  13.964   7.578   6.591 -0.1003 -0.1457 -0.0290
 1162ERGO    C116713  13.852   7.561   6.955  0.0254 -0.0516  0.0152
 1162ERGO    C216714  13.842   7.562   7.341 -0.5214 -0.0599  0.2344
 1163ERGO   ROH16715   9.135  17.518   5.321  0.1712  0.0649 -0.1105
 1163ERGO    R116716   9.116  17.566   5.599  0.2672 -0.0475 -0.0845
 1163ERGO    R216717   9.283  17.742   5.732  0.0475  0.2106 -0.1475
 1163ERGO    R316718   9.048  17.851   5.815 -0.0977 -0.2213  0.0393
 1163ERGO    R416719   9.245  17.938   6.014 -0.0668  0.2070 -0.1592
 1163ERGO    R516720   9.057  17.835   6.054  0.1560 -0.1546  0.0394
 1163ERGO    C116721   9.003  18.154   6.257 -0.2696 -0.2006  0.0093
 1163ERGO    C216722   9.133  18.331   6.531 -0.0165 -0.1128 -0.0917
 1164ERGO   ROH16723  10.203  14.213   5.888 -0.0196  0.1864 -0.0102
 1164ERGO    R116724  10.376  14.281   6.102 -0.1274  0.1319  0.0968
 1164ERGO    R216725  10.292  14.291   6.365 -0.2347 -0.0476  0.0738
 1164ERGO    R316726  10.500  14.120   6.403 -0.1872  0.0064  0.0537
 1164ERGO    R416727  10.437  14.221   6.671 -0.1612  0.0108  0.0522
 1164ERGO    R516728  10.632  14.224   6.574 -0.1817  0.0491  0.0198
 1164ERGO    C116729  10.716  14.020   6.886 -0.0738  0.0954  0.0207
 1164ERGO    C216730  10.905  13.911   7.136 -0.0458 -0.3862  0.1316
 1165ERGO   ROH16731  13.091   0.281   5.918  0.0371  0.1134  0.1886
 1165ERGO    R116732  13.134   0.301   6.197 -0.0967  0.1477  0.2080
 1165ERGO    R216733  12.928   0.339   6.377 -0.2068 -0.0123  0.1230
 1165ERGO    R316734  13.032   0.117   6.494 -0.0813  0.0667  0.1623
 1165ERGO    R416735  12.851   0.229   6.695 -0.2221 -0.0615  0.1017
 1165ERGO    R516736  13.061   0.178   6.723 -0.1961  0.0923  0.1680
 1165ERGO    C116737  12.903  -0.045   6.990 -0.1131 -0.0160  0.1262
 1165ERGO    C216738  12.761  -0.319   7.132 -0.1276 -0.0212  0.2401
 1166ERGO   ROH16739  11.986   8.858   5.596 -0.1181  0.1272  0.0056
 1166ERGO    R116740  12.120   8.781   5.833 -0.2096 -0.1343 -0.0242
 1166ERGO    R216741  12.229   8.965   6.009  0.0577 -0.3372  0.0273
 1166ERGO    R316742  12.075   8.834   6.190 -0.1178 -0.1820 -0.0054
 1166ERGO    R416743  12.164   9.075   6.330 -0.0383 -0.1911 -0.0403
 1166ERGO    R516744  12.186   8.870   6.399 -0.2012 -0.1826  0.0392
 1166ERGO    C116745  11.983   9.015   6.688 -0.2588  0.0397 -0.1105
 1166ERGO    C216746  11.814   8.967   6.978  0.0177 -0.1689  0.2179
 1167ERGO   ROH16747  18.729  17.349   7.510 -0.1075 -0.1007  0.0327
 1167ERGO    R116748  18.542  17.485   7.347 -0.1269 -0.0606  0.0877
 1167ERGO    R216749  18.516  17.435   7.077 -0.0585  0.1082  0.0471
 1167ERGO    R316750  18.255  17.395   7.142 -0.0557 -0.0308 -0.0251
 1167ERGO    R416751  18.277  17.302   6.865  0.0272  0.1532 -0.0785
 1167ERGO    R516752  18.134  17.448   6.942 -0.0400  0.0504 -0.0116
 1167ERGO    C116753  17.893  17.187   6.803  0.0800  0.0487 -0.2194
 1167ERGO    C216754  17.528  17.146   6.717  0.0463 -0.1382 -0.2331
 1168ERGO   ROH16755   1.065   0.213   5.484 -0.0855  0.0099  0.0929
 1168ERGO    R116756   1.111   0.381   5.707  0.2484 -0.0082  0.0428
 1168ERGO    R216757   0.915   0.439   5.892  0.3833  0.3600  0.0819
 1168ERGO    R316758   1.100   0.349   6.069  0.2857  0.0918  0.0518
 1168ERGO    R416759   0.925   0.523   6.227  0.4128  0.1239  0.1419
 1168ERGO    R516760   1.142   0.537   6.212  0.4219 -0.0419  0.1847
 1168ERGO    C116761   1.105   0.487   6.589  0.3383 -0.2654  0.1485
 1168ERGO    C216762   1.159   0.472   6.978  0.1301 -0.0328  0.0103
 1169ERGO   ROH16763   9.331  17.146   5.489 -0.0623 -0.0916  0.0568
 1169ERGO    R116764   9.432  17.183   5.751 -0.2107 -0.1648  0.1249
 1169ERGO    R216765   9.568  17.412   5.827 -0.0255 -0.2988  0.1894
 1169ERGO    R316766   9.380  17.420   6.023 -0.1589 -0.0742  0.0585
 1169ERGO    R416767   9.555  17.647   6.080 -0.1102 -0.0860 -0.0083
 1169ERGO    R516768   9.499  17.489   6.218 -0.2617  0.0400  0.0863
 1169ERGO    C116769   9.370  17.791   6.411 -0.2847  0.2487 -0.2463
 1169ERGO    C216770   9.477  17.999   6.579 -0.0559  0.1149  0.1307
 1170ERGO   ROH16771  14.927   3.636   5.290 -0.1183  0.0009 -0.0797
 1170ERGO    R116772  14.812   3.537   5.528 -0.0684  0.0132 -0.0503
 1170ERGO    R216773  14.924   3.329   5.672 -0.0302  0.0319 -0.0548
 1170ERGO    R316774  14.911   3.507   5.877 -0.0028  0.0461 -0.0654
 1170ERGO    R416775  14.958   3.248   6.006 -0.1574  0.0237 -0.0435
 1170ERGO    R516776  14.798   3.389   6.052 -0.1063  0.1019 -0.0918
 1170ERGO    C116777  14.966   3.368   6.393 -0.2056  0.0323 -0.0470
 1170ERGO    C216778  15.150   3.540   6.602  0.2314  0.1453 -0.1649
 1171ERGO   ROH16779   3.478   7.332   5.709 -0.0989 -0.1055 -0.0632
 1171ERGO    R116780   3.586   7.455   5.941 -0.2208  0.1586 -0.1446
 1171ERGO    R216781   3.439   7.628   6.099 -0.5286 -0.1869 -0.0453
 1171ERGO    R316782   3.513   7.457   6.297  0.0315 -0.0172 -0.0892
 1171ERGO    R416783   3.437   7.703   6.437 -0.5924 -0.2238 -0.0362
 1171ERGO    R516784   3.625   7.596   6.457 -0.2731  0.2842 -0.1254
 1171ERGO    C116785   3.505   7.587   6.819 -0.1038 -0.0860 -0.0721
 1171ERGO    C216786   3.262   7.543   7.102  0.2044  0.1828 -0.3607
 1172ERGO   ROH16787  14.805   7.907   5.633  0.0532 -0.1545  0.0749
 1172ERGO    R116788  14.770   7.856   5.909  0.0826 -0.1001  0.0891
 1172ERGO    R216789  14.980   7.797   6.077  0.1098 -0.0007  0.0930
 1172ERGO    R316790  14.881   8.005   6.222  0.0573  0.0059  0.0477
 1172ERGO    R416791  15.095   7.892   6.389  0.1516  0.1627  0.0286
 1172ERGO    R516792  14.888   7.927   6.449  0.1541  0.0906  0.0729
 1172ERGO    C116793  15.069   8.143   6.707  0.1267  0.2641 -0.0515
 1172ERGO    C216794  15.172   8.252   7.058 -0.1394 -0.0217  0.0633
 1173ERGO   ROH16795  17.919   5.699   5.827  0.1192 -0.2504 -0.1472
 1173ERGO    R116796  18.059   5.633   6.064  0.1502 -0.1428 -0.1357
 1173ERGO    R216797  18.066   5.800   6.284  0.0213 -0.1278 -0.1460
 1173ERGO    R316798  17.975   5.579   6.414  0.1667 -0.1844 -0.1372
 1173ERGO    R416799  18.107   5.737   6.621  0.0152 -0.0543 -0.1309
 1173ERGO    R516800  18.146   5.529   6.573  0.1831 -0.0346 -0.1023
 1173ERGO    C116801  18.046   5.493   6.940  0.1479 -0.0647 -0.1138
 1173ERGO    C216802  17.848   5.481   7.206 -0.0362 -0.0374 -0.2484
 1174ERGO   ROH16803   7.428  15.525   5.698  0.0586 -0.0616  0.1148
 1174ERGO    R116804   7.301  15.677   5.901  0.0799  0.0804  0.0245
 1174ERGO    R216805   7.295  15.597   6.165 -0.3158  0.0136  0.0071
 1174ERGO    R316806   7.402  15.844   6.208  0.0257 -0.1584  0.1718
 1174ERGO    R416807   7.256  15.780   6.455 -0.2286 -0.0327  0.0476
 1174ERGO    R516808   7.233  15.960   6.333  0.1201  0.0488  0.1026
 1174ERGO    C116809   7.333  16.119   6.665  0.1427 -0.2212  0.2259
 1174ERGO    C216810   7.538  16.132   7.062 -0.1937  0.2312 -0.0437
 1175ERGO   ROH16811   2.994   2.587   5.670 -0.2414  0.0422 -0.1938
 1175ERGO    R116812   2.919   2.757   5.884 -0.0653 -0.0484 -0.0567
 1175ERGO    R216813   2.657   2.834   5.927 -0.0058  0.0931  0.0758
 1175ERGO    R316814   2.703   2.735   6.176  0.0120 -0.1044 -0.0050
 1175ERGO    R416815   2.458   2.894   6.204  0.1919  0.1250  0.2135
 1175ERGO    R516816   2.639   2.912   6.324  0.2655 -0.1326  0.1376
 1175ERGO    C116817   2.386   2.835   6.598  0.3237 -0.0419  0.2179
 1175ERGO    C216818   2.177   2.823   6.850 -0.1243 -0.1940  0.1538
 1176ERGO   ROH16819  17.334   2.165   5.584  0.1189  0.1138 -0.0138
 1176ERGO    R116820  17.305   2.064   5.847  0.1400  0.1138 -0.0114
 1176ERGO    R216821  17.188   2.209   6.051  0.0545  0.0709 -0.0305
 1176ERGO    R316822  17.029   1.990   6.073  0.1516 -0.0004 -0.0327
 1176ERGO    R416823  17.008   2.124   6.333 -0.1452  0.1602 -0.1291
 1176ERGO    R516824  17.062   1.915   6.298 -0.0015  0.1621  0.0480
 1176ERGO    C116825  16.754   1.868   6.518 -0.1706  0.1453 -0.1885
 1176ERGO    C216826  16.485   1.853   6.682  0.3943 -0.1650  0.0854
 1177ERGO   ROH16827   8.061   5.207   5.811  0.3688  0.1525 -0.0825
 1177ERGO    R116828   8.181   5.246   6.065  0.1582  0.2208  0.0081
 1177ERGO    R216829   8.161   5.485   6.203 -0.0736  0.2108 -0.0097
 1177ERGO    R316830   8.067   5.324   6.401 -0.1349  0.1658 -0.0750
 1177ERGO    R416831   8.129   5.576   6.535  0.3528 -0.0311  0.1062
 1177ERGO    R516832   8.200   5.379   6.592  0.1204 -0.1955 -0.1357
 1177ERGO    C116833   8.022   5.478   6.914  0.5434 -0.2142  0.1124
 1177ERGO    C216834   7.925   5.487   7.253  0.1318  0.0940 -0.0358
 1178ERGO   ROH16835  13.321   4.543   6.803  0.0445  0.0761 -0.1120
 1178ERGO    R116836  13.165   4.597   7.032  0.0569 -0.0718 -0.0671
 1178ERGO    R216837  13.188   4.832   7.176  0.1376 -0.2049  0.1452
 1178ERGO    R316838  12.920   4.848   7.133  0.1447 -0.0702  0.1470
 1178ERGO    R416839  12.966   5.003   7.377  0.1828 -0.3464  0.3175
 1178ERGO    R516840  12.824   4.839   7.352  0.1305 -0.2738  0.1335
 1178ERGO    C116841  12.584   5.117   7.454  0.2159 -0.3024  0.4196
 1178ERGO    C216842  12.610   5.368   7.610 -0.1625 -0.2550  0.1420
 1179ERGO   ROH16843  17.328  18.352   5.131 -0.0445  0.2485 -0.0622
 1179ERGO    R116844  17.341  18.589   5.285 -0.1017  0.2195 -0.0112
 1179ERGO    R216845  17.140  18.666   5.458 -0.1276  0.1408  0.0004
 1179ERGO    R316846  17.343  18.676   5.638 -0.1346  0.1421  0.0067
 1179ERGO    R416847  17.100  18.714   5.798 -0.1366  0.0323  0.0145
 1179ERGO    R516848  17.275  18.844   5.795 -0.1747  0.0757  0.0549
 1179ERGO    C116849  17.268  18.751   6.165 -0.1483 -0.0295  0.0288
 1179ERGO    C216850  17.023  18.728   6.377  0.1156  0.4756  0.1634
 1180ERGO   ROH16851   0.793   9.004   6.194  0.1809 -0.0073 -0.1097
 1180ERGO    R116852   1.007   9.057   6.372 -0.0808  0.0105  0.2098
 1180ERGO    R216853   0.991   9.005   6.643 -0.3011 -0.4674  0.1181
 1180ERGO    R316854   1.218   8.864   6.596 -0.0430 -0.0641  0.1089
 1180ERGO    R416855   1.222   8.915   6.884 -0.3732 -0.4611  0.1891
 1180ERGO    R516856   1.381   8.961   6.742 -0.3125 -0.0225  0.3867
 1180ERGO    C116857   1.570   8.730   6.980 -0.1729 -0.0789  0.2219
 1180ERGO    C216858   1.857   8.601   7.049 -0.1061  0.1014 -0.1151
 1181ERGO   ROH16859   7.022  13.213   5.323  0.1081  0.2341 -0.0612
 1181ERGO    R116860   7.031  13.152   5.600  0.1984  0.1953 -0.0712
 1181ERGO    R216861   7.148  13.320   5.785  0.1257  0.2449 -0.0625
 1181ERGO    R316862   6.906  13.301   5.907  0.1575  0.0681 -0.0271
 1181ERGO    R416863   7.085  13.408   6.113  0.0831  0.2877 -0.0831
 1181ERGO    R516864   6.957  13.232   6.131  0.2421  0.1825 -0.0140
 1181ERGO    C116865   6.821  13.441   6.419  0.0881  0.1467 -0.0618
 1181ERGO    C216866   6.810  13.700   6.690  0.3765  0.2252 -0.4066
 1182ERGO   ROH16867   7.221   6.513   5.880 -0.2353  0.2676  0.1248
 1182ERGO    R116868   7.245   6.487   6.161 -0.0785  0.1446  0.1013
 1182ERGO    R216869   7.403   6.293   6.280 -0.0344  0.0748 -0.0709
 1182ERGO    R316870   7.514   6.507   6.406  0.0638  0.0063 -0.0401
 1182ERGO    R416871   7.566   6.280   6.584 -0.2033 -0.0185  0.0174
 1182ERGO    R516872   7.471   6.468   6.638 -0.0898  0.0646 -0.0561
 1182ERGO    C116873   7.766   6.473   6.880 -0.2094 -0.1370  0.0979
 1182ERGO    C216874   8.047   6.415   7.095  0.0530  0.1253 -0.1939
 1183ERGO   ROH16875   3.359  17.501   5.580  0.2599  0.1472 -0.2752
 1183ERGO    R116876   3.441  17.509   5.851 -0.0720  0.4307 -0.1750
 1183ERGO    R216877   3.686  17.412   5.934 -0.3855  0.0050  0.3040
 1183ERGO    R316878   3.712  17.662   6.040  0.0421  0.1508 -0.1064
 1183ERGO    R416879   3.934  17.510   6.155 -0.3770 -0.1456  0.3624
 1183ERGO    R516880   3.785  17.624   6.265 -0.2499  0.3735  0.0343
 1183ERGO    C116881   4.102  17.800   6.383  0.0294 -0.0964  0.0112
 1183ERGO    C216882   4.318  18.103   6.397  0.4592  0.1534  0.0453
 1184ERGO   ROH16883   5.524  19.129   5.325 -0.0200  0.0869  0.2458
 1184ERGO    R116884   5.537  19.027   5.589 -0.0452  0.0050  0.2161
 1184ERGO    R216885   5.436  19.164   5.807  0.0415 -0.0064  0.2660
 1184ERGO    R316886   5.299  18.932   5.848 -0.0685  0.0479  0.2100
 1184ERGO    R416887   5.288  19.072   6.105  0.0617 -0.0441  0.2641
 1184ERGO    R516888   5.357  18.868   6.071 -0.0514 -0.0665  0.1721
 1184ERGO    C116889   5.074  18.801   6.318 -0.0298 -0.0150  0.2104
 1184ERGO    C216890   4.846  18.723   6.650 -0.0565 -0.1426 -0.1555
 1185ERGO   ROH16891  11.086   5.368   6.109 -0.1910 -0.1217 -0.3247
 1185ERGO    R116892  11.098   5.181   6.321  0.0180  0.0080 -0.2176
 1185ERGO    R216893  10.872   5.087   6.450  0.1444  0.1530  0.1298
 1185ERGO    R316894  10.974   4.844   6.383 -0.0093  0.0830  0.1476
 1185ERGO    R416895  10.773   4.787   6.589  0.0465  0.2333  0.2344
 1185ERGO    R516896  10.982   4.725   6.591  0.0104  0.1252  0.1672
 1185ERGO    C116897  10.812   4.384   6.609 -0.1547  0.2144  0.3120
 1185ERGO    C216898  10.543   4.153   6.648  0.0456 -0.0751  0.0107
 1186ERGO   ROH16899  13.820  16.948   5.323  0.1315 -0.1208  0.1519
 1186ERGO    R116900  13.754  16.983   5.596  0.0405 -0.0543  0.1217
 1186ERGO    R216901  13.864  16.828   5.797 -0.0276 -0.0064  0.1960
 1186ERGO    R316902  13.932  17.069   5.902 -0.0611  0.0185  0.1611
 1186ERGO    R416903  13.886  16.897   6.135  0.3489 -0.0671  0.1881
 1186ERGO    R516904  13.794  17.091   6.096  0.1643 -0.1204  0.3430
 1186ERGO    C116905  13.963  17.164   6.430  0.5364 -0.0791  0.1508
 1186ERGO    C216906  13.999  17.120   6.724 -0.5180 -0.1959  0.3967
 1187ERGO   ROH16907   3.318   9.712   5.884 -0.1945  0.1375  0.1900
 1187ERGO    R116908   3.240   9.497   6.051 -0.0349 -0.0194  0.0668
 1187ERGO    R216909   3.369   9.253   6.050  0.1744  0.0893 -0.0461
 1187ERGO    R316910   3.392   9.300   6.316  0.0981 -0.0313 -0.0174
 1187ERGO    R416911   3.419   9.009   6.290  0.1717 -0.0136 -0.1490
 1187ERGO    R516912   3.279   9.115   6.419  0.1151 -0.1070 -0.1321
 1187ERGO    C116913   3.469   8.912   6.680  0.0985 -0.1868 -0.1821
 1187ERGO    C216914   3.396   8.701   6.946 -0.0162  0.0888  0.0712
 1188ERGO   ROH16915   7.165   5.501   5.524 -0.3299  0.0237 -0.0503
 1188ERGO    R116916   7.132   5.398   5.786 -0.2358  0.0493 -0.0280
 1188ERGO    R216917   6.985   5.530   5.979 -0.1586  0.0723  0.0150
 1188ERGO    R316918   6.853   5.292   5.994 -0.1619  0.0786  0.0869
 1188ERGO    R416919   6.764   5.441   6.231 -0.1305  0.1384  0.0631
 1188ERGO    R516920   6.850   5.241   6.228 -0.1347  0.1352  0.1004
 1188ERGO    C116921   6.513   5.167   6.391 -0.1172  0.1828  0.1585
 1188ERGO    C216922   6.244   5.065   6.459  0.0196 -0.4204  0.0542
 1189ERGO   ROH16923  18.308   3.277   5.557 -0.0927 -0.2311 -0.0581
 1189ERGO    R116924  18.235   3.356   5.819 -0.0960 -0.1215 -0.0908
 1189ERGO    R216925  18.011   3.258   5.948 -0.1241 -0.0383 -0.0654
 1189ERGO    R316926  18.191   3.193   6.141 -0.1420  0.0023 -0.0357
 1189ERGO    R416927  17.931   3.169   6.272 -0.1366  0.0741 -0.0376
 1189ERGO    R516928  18.100   3.287   6.341 -0.1315  0.0723 -0.0695
 1189ERGO    C116929  18.053   3.057   6.642 -0.1605  0.1776  0.0064
 1189ERGO    C216930  17.828   3.001   6.890 -0.3672  0.5576 -0.2433
 1190ERGO   ROH16931  14.179   2.146   5.687 -0.1451  0.2307  0.0003
 1190ERGO    R116932  14.399   2.254   5.828 -0.1852  0.2766  0.0318
 1190ERGO    R216933  14.414   2.253   6.104 -0.1068  0.0484  0.0358
 1190ERGO    R316934  14.652   2.129   6.059 -0.0291  0.2622 -0.1474
 1190ERGO    R416935  14.682   2.253   6.323 -0.0742 -0.0367 -0.0061
 1190ERGO    R516936  14.815   2.277   6.152 -0.1161  0.2574  0.0054
 1190ERGO    C116937  15.061   2.137   6.407  0.0176  0.1145 -0.2025
 1190ERGO    C216938  15.284   2.238   6.604  0.0033 -0.0790  0.2308
 1191ERGO   ROH16939   7.248  12.301   5.846  0.0593  0.2581  0.0958
 1191ERGO    R116940   7.318  12.367   6.112  0.0039  0.2696  0.1089
 1191ERGO    R216941   7.312  12.626   6.208 -0.1122  0.2623  0.1278
 1191ERGO    R316942   7.153  12.517   6.400 -0.0886  0.1842  0.1011
 1191ERGO    R416943   7.320  12.711   6.543  0.0761 -0.0146  0.1950
 1191ERGO    R516944   7.294  12.500   6.592 -0.0123 -0.0468  0.0292
 1191ERGO    C116945   7.175  12.657   6.918  0.2079 -0.2493  0.2091
 1191ERGO    C216946   6.976  12.799   7.212  0.0917 -0.1734 -0.1860
 1192ERGO   ROH16947  18.071   1.308   6.720  0.2823 -0.3538 -0.0343
 1192ERGO    R116948  18.352   1.338   6.731  0.2632 -0.1178 -0.0989
 1192ERGO    R216949  18.497   1.458   6.529  0.1146  0.0570 -0.1098
 1192ERGO    R316950  18.589   1.614   6.732  0.0284  0.0861 -0.0940
 1192ERGO    R416951  18.804   1.616   6.532  0.1909 -0.0934  0.0820
 1192ERGO    R516952  18.823   1.564   6.743 -0.0055 -0.0237  0.1154
 1192ERGO    C116953  19.070   1.854   6.724  0.1545 -0.1537  0.2085
 1192ERGO    C216954  19.222   2.120   6.756 -0.1854  0.1602 -0.3480
 1193ERGO   ROH16955  11.395   3.632   5.753 -0.1313  0.1237  0.0478
 1193ERGO    R116956  11.517   3.650   6.008 -0.1487  0.2942  0.0443
 1193ERGO    R216957  11.380   3.737   6.232 -0.2670  0.1083  0.0419
 1193ERGO    R316958  11.465   3.501   6.336  0.0650  0.2230  0.0481
 1193ERGO    R416959  11.374   3.656   6.567 -0.4498 -0.0018  0.0143
 1193ERGO    R516960  11.569   3.561   6.543 -0.2423  0.3565  0.1718
 1193ERGO    C116961  11.450   3.387   6.861 -0.2446  0.0418  0.0042
 1193ERGO    C216962  11.386   3.404   7.198  0.3030  0.3421  0.3941
 1194ERGO   ROH16963  15.674  17.221   5.806  0.4037 -0.1570 -0.0223
 1194ERGO    R116964  15.852  17.338   5.992  0.2670 -0.0216  0.0266
 1194ERGO    R216965  15.871  17.611   6.029  0.0442 -0.0051  0.0408
 1194ERGO    R316966  15.826  17.546   6.289  0.0282 -0.0496  0.0267
 1194ERGO    R416967  15.993  17.787   6.300 -0.0859  0.0268  0.0790
 1194ERGO    R516968  16.033  17.597   6.399 -0.0153  0.0365  0.0680
 1194ERGO    C116969  16.023  17.830   6.702 -0.1766  0.0037  0.0880
 1194ERGO    C216970  16.244  17.906   6.890 -0.3502 -0.0947  0.1301
 1195ERGO   ROH16971   1.961  18.809   5.025  0.0613 -0.1765  0.2914
 1195ERGO    R116972   1.804  18.682   5.223 -0.0742 -0.0727  0.2550
 1195ERGO    R216973   1.555  18.776   5.298 -0.1726 -0.0777 -0.0188
 1195ERGO    R316974   1.477  18.522   5.239 -0.0477 -0.1404  0.0901
 1195ERGO    R416975   1.266  18.626   5.415 -0.2392 -0.0798 -0.1889
 1195ERGO    R516976   1.379  18.441   5.443 -0.2172 -0.0243  0.0495
 1195ERGO    C116977   1.025  18.301   5.428 -0.1607 -0.1399 -0.1855
 1195ERGO    C216978   0.738  18.175   5.424  0.2621  0.0285  0.1666
 1196ERGO   ROH16979   5.380   5.514   5.632 -0.0666  0.0832  0.0184
 1196ERGO    R116980   5.423   5.474   5.909 -0.0544  0.0437  0.0118
 1196ERGO    R216981   5.535   5.667   6.072 -0.0220  0.0136  0.0327
 1196ERGO    R316982   5.310   5.629   6.219 -0.0198  0.0190  0.0352
 1196ERGO    R416983   5.527   5.629   6.415 -0.0124 -0.1235  0.0172
 1196ERGO    R516984   5.375   5.475   6.389 -0.0555 -0.0663 -0.0325
 1196ERGO    C116985   5.310   5.570   6.753 -0.0048 -0.1983  0.0105
 1196ERGO    C216986   5.198   5.620   7.135 -0.2078  0.0824 -0.1531
 1197ERGO   ROH16987   5.123   9.009   7.476  0.1198  0.2453 -0.0646
 1197ERGO    R116988   4.965   9.233   7.547 -0.0930  0.0655  0.0335
 1197ERGO    R216989   4.747   9.213   7.716  0.0134 -0.1932  0.1396
 1197ERGO    R316990   4.877   9.408   7.854 -0.1333 -0.0561  0.0928
 1197ERGO    R416991   4.651   9.334   8.025 -0.0384 -0.2334  0.1421
 1197ERGO    R516992   4.702   9.535   7.957 -0.2284 -0.1943  0.1063
 1197ERGO    C116993   4.717   9.588   8.334 -0.2062 -0.1280  0.0995
 1197ERGO    C216994   4.573   9.539   8.505 -0.1262 -0.1242  0.2966
 1198ERGO   ROH16995   7.082   0.355   5.460  0.3185 -0.2555 -0.0766
 1198ERGO    R116996   6.872   0.320   5.648  0.2295 -0.1958 -0.1661
 1198ERGO    R216997   6.845   0.090   5.799  0.2833 -0.0574  0.0437
 1198ERGO    R316998   6.845   0.266   6.006  0.0447  0.1468 -0.1227
 1198ERGO    R416999   6.672   0.047   6.095  0.3082 -0.0060  0.0674
 1198ERGO    R517000   6.621   0.259   6.090  0.0368 -0.0624 -0.1411
 1198ERGO    C117001   6.570   0.187   6.462  0.0988  0.2156 -0.0751
 1198ERGO    C217002   6.550   0.293   6.775 -0.0476  0.3448 -0.1116
 1199ERGO   ROH17003   3.352   2.305   5.687 -0.2623  0.1437  0.0781
 1199ERGO    R117004   3.514   2.266   5.916 -0.0404  0.0308 -0.0952
 1199ERGO    R217005   3.761   2.387   5.946 -0.1578  0.2771 -0.1351
 1199ERGO    R317006   3.653   2.474   6.180 -0.0798 -0.1484  0.0709
 1199ERGO    R417007   3.942   2.479   6.226 -0.0123  0.4102 -0.2704
 1199ERGO    R517008   3.793   2.380   6.349  0.3261 -0.0160 -0.1711
 1199ERGO    C117009   3.946   2.615   6.608  0.1457  0.0883 -0.1558
 1199ERGO    C217010   4.146   2.814   6.824  0.1208  0.3726 -0.0612
 1200ERGO   ROH17011   6.686   3.692   5.561 -0.2576 -0.1223  0.1233
 1200ERGO    R117012   6.567   3.564   5.784 -0.0594 -0.1071  0.2398
 1200ERGO    R217013   6.676   3.338   5.901  0.0614 -0.0821  0.1777
 1200ERGO    R317014   6.662   3.488   6.127  0.2360 -0.0555  0.1720
 1200ERGO    R417015   6.681   3.211   6.222  0.0421 -0.0645  0.1849
 1200ERGO    R517016   6.528   3.358   6.277  0.1702  0.0593  0.2142
 1200ERGO    C117017   6.671   3.278   6.622  0.1947 -0.0294  0.1838
 1200ERGO    C217018   6.801   3.027   6.811 -0.0492  0.0861  0.0318
 1201ERGO   ROH17019  13.364  14.578   5.615  0.3213  0.0108 -0.2285
 1201ERGO    R117020  13.340  14.715   5.862  0.2343  0.1203 -0.2971
 1201ERGO    R217021  13.341  14.586   6.105 -0.2567  0.1851 -0.2515
 1201ERGO    R317022  13.542  14.759   6.161 -0.0521 -0.1043 -0.0647
 1201ERGO    R417023  13.397  14.728   6.415 -0.3730  0.1374 -0.2084
 1201ERGO    R517024  13.444  14.916   6.314  0.0137  0.0613 -0.1878
 1201ERGO    C117025  13.619  14.974   6.648 -0.2486 -0.1620 -0.0079
 1201ERGO    C217026  13.568  15.101   6.947 -0.0031 -0.2549 -0.2041
 1202ERGO   ROH17027  12.852   6.638   5.563 -0.0401 -0.2049  0.1495
 1202ERGO    R117028  12.959   6.505   5.788  0.2874 -0.0409  0.0971
 1202ERGO    R217029  13.184   6.596   5.921  0.0827  0.4617  0.1343
 1202ERGO    R317030  13.021   6.586   6.138  0.0894 -0.0215  0.1272
 1202ERGO    R417031  13.290   6.620   6.249 -0.0017  0.7407  0.1426
 1202ERGO    R517032  13.147   6.464   6.302  0.4324  0.3190  0.1238
 1202ERGO    C117033  13.199   6.625   6.644 -0.0443  0.4495  0.1408
 1202ERGO    C217034  13.128   6.620   6.984 -0.1494 -0.0463  0.4250
 1203ERGO   ROH17035   7.464   7.783   5.546  0.0121  0.2153  0.0157
 1203ERGO    R117036   7.340   7.860   5.789 -0.0451  0.2978 -0.0387
 1203ERGO    R217037   7.419   7.760   6.034 -0.3444  0.0940 -0.0186
 1203ERGO    R317038   7.442   8.023   6.097 -0.0189  0.0439  0.0891
 1203ERGO    R417039   7.318   7.901   6.333 -0.2729  0.1182 -0.0060
 1203ERGO    R517040   7.243   8.072   6.221 -0.0035  0.2621  0.0291
 1203ERGO    C117041   7.281   8.230   6.566  0.0742  0.0853  0.1026
 1203ERGO    C217042   7.345   8.159   6.959 -0.0611  0.3766  0.0443
 1204ERGO   ROH17043   3.255  16.387   5.617 -0.2293 -0.2683  0.0917
 1204ERGO    R117044   3.310  16.439   5.890 -0.0803 -0.2331  0.0555
 1204ERGO    R217045   3.139  16.582   6.052  0.0384 -0.1575  0.1141
 1204ERGO    R317046   3.155  16.362   6.210  0.0572 -0.1326  0.1474
 1204ERGO    R417047   3.087  16.580   6.394 -0.3633 -0.1809  0.0591
 1204ERGO    R517048   3.255  16.442   6.413 -0.2533 -0.0256  0.2634
 1204ERGO    C117049   3.073  16.372   6.741 -0.5795 -0.1712  0.0582
 1204ERGO    C217050   3.021  16.443   7.019 -0.3193 -0.2258  0.0302
 1205ERGO   ROH17051  17.504  14.503   5.495 -0.0385 -0.3168 -0.0520
 1205ERGO    R117052  17.456  14.473   5.772 -0.0437 -0.1794 -0.0383
 1205ERGO    R217053  17.245  14.597   5.901 -0.1445 -0.2540 -0.1419
 1205ERGO    R317054  17.187  14.344   5.981  0.0298 -0.2478  0.0179
 1205ERGO    R417055  17.007  14.514   6.137  0.0175 -0.2518  0.0264
 1205ERGO    R517056  17.144  14.364   6.216  0.1422 -0.1450  0.0358
 1205ERGO    C117057  16.813  14.228   6.350  0.2755 -0.2448  0.2745
 1205ERGO    C217058  16.560  13.965   6.398 -0.0326  0.0707  0.1076
 1206ERGO   ROH17059   3.396   3.715   5.378  0.0372  0.0915  0.0902
 1206ERGO    R117060   3.178   3.682   5.555 -0.0103  0.0261  0.0199
 1206ERGO    R217061   3.206   3.689   5.829 -0.0806 -0.0964  0.0305
 1206ERGO    R317062   3.013   3.879   5.812 -0.0652 -0.0779  0.0658
 1206ERGO    R417063   2.983   3.767   6.081 -0.1383 -0.1989  0.0116
 1206ERGO    R517064   2.827   3.786   5.930 -0.1002 -0.1230 -0.0214
 1206ERGO    C117065   2.672   3.992   6.212 -0.1576 -0.2412  0.0337
 1206ERGO    C217066   2.706   4.043   6.513 -0.1636  0.0079 -0.0687
 1207ERGO   ROH17067   4.274   1.420   5.589  0.0948  0.0996  0.0370
 1207ERGO    R117068   4.290   1.527   5.850  0.1102  0.0732  0.0467
 1207ERGO    R217069   4.107   1.467   6.047  0.0401  0.1673  0.0087
 1207ERGO    R317070   4.328   1.397   6.188 -0.0263  0.0293  0.0461
 1207ERGO    R417071   4.126   1.458   6.392  0.0046  0.2619  0.0137
 1207ERGO    R517072   4.327   1.543   6.378  0.0785  0.0939 -0.0004
 1207ERGO    C117073   4.346   1.386   6.725 -0.0783  0.1875  0.0516
 1207ERGO    C217074   4.281   1.335   7.016  0.2996  0.0493  0.2094
 1208ERGO   ROH17075  18.927  14.672   5.548 -0.0004 -0.1191  0.0931
 1208ERGO    R117076  18.902  14.870   5.749  0.0894 -0.0007 -0.0103
 1208ERGO    R217077  18.737  14.839   5.968 -0.0666  0.2659 -0.0816
 1208ERGO    R317078  18.966  14.893   6.106 -0.0830  0.0939  0.0141
 1208ERGO    R417079  18.761  14.856   6.313 -0.2034  0.2988 -0.0735
 1208ERGO    R517080  18.894  15.027   6.291 -0.0498  0.1817 -0.0400
 1208ERGO    C117081  18.990  14.916   6.643 -0.2987  0.1565  0.0211
 1208ERGO    C217082  19.057  14.854   7.008 -0.1465 -0.1926  0.0193
 1209ERGO   ROH17083  17.149   3.120   5.353 -0.0478  0.0836 -0.0635
 1209ERGO    R117084  17.097   3.279   5.582 -0.1284 -0.0064 -0.0185
 1209ERGO    R217085  16.846   3.296   5.697 -0.1456 -0.1386 -0.0338
 1209ERGO    R317086  16.981   3.223   5.922 -0.1359 -0.1566 -0.0454
 1209ERGO    R417087  16.761   3.391   6.019 -0.0556 -0.0602 -0.0325
 1209ERGO    R517088  16.973   3.417   6.062 -0.0389 -0.1337 -0.0717
 1209ERGO    C117089  16.838   3.377   6.417  0.0062 -0.0315 -0.0426
 1209ERGO    C217090  16.699   3.336   6.744 -0.2208 -0.0748  0.2045
 1210ERGO   ROH17091   0.578  12.432   7.558 -0.4089 -0.0077  0.1014
 1210ERGO    R117092   0.450  12.483   7.310 -0.2467 -0.2137 -0.0278
 1210ERGO    R217093   0.502  12.709   7.160 -0.4773 -0.1131  0.0426
 1210ERGO    R317094   0.553  12.528   6.964  0.0360 -0.0205  0.0767
 1210ERGO    R417095   0.415  12.748   6.828 -0.3633 -0.3078 -0.0120
 1210ERGO    R517096   0.360  12.537   6.822  0.0901 -0.4397 -0.0428
 1210ERGO    C117097   0.413  12.601   6.450  0.1849 -0.3343 -0.0118
 1210ERGO    C217098   0.514  12.856   6.177  0.2267  0.1307  0.1270
 1211ERGO   ROH17099   1.428  16.076   5.750  0.2503 -0.2312 -0.2844
 1211ERGO    R117100   1.571  16.128   5.989  0.1905 -0.2468 -0.2447
 1211ERGO    R217101   1.448  16.224   6.217  0.1749 -0.0096 -0.3474
 1211ERGO    R317102   1.564  16.007   6.332 -0.0884 -0.0673 -0.1838
 1211ERGO    R417103   1.523  16.196   6.553  0.0440  0.1060 -0.3079
 1211ERGO    R517104   1.711  16.099   6.498 -0.0406 -0.1259 -0.1950
 1211ERGO    C117105   1.676  15.975   6.857 -0.2794  0.1191 -0.1314
 1211ERGO    C217106   1.924  15.877   7.068 -0.1458 -0.3034  0.2062
 1212ERGO   ROH17107  17.929   8.926   5.846  0.0998 -0.0774 -0.0135
 1212ERGO    R117108  17.930   9.138   6.034  0.0436 -0.0904  0.0016
 1212ERGO    R217109  17.800   9.378   5.988  0.0927 -0.0707 -0.0391
 1212ERGO    R317110  17.681   9.322   6.226 -0.0188 -0.0733 -0.0949
 1212ERGO    R417111  17.708   9.614   6.223 -0.0546 -0.0715 -0.0951
 1212ERGO    R517112  17.778   9.479   6.379 -0.1152 -0.0543 -0.0539
 1212ERGO    C117113  17.542   9.699   6.584 -0.2449 -0.0746 -0.1801
 1212ERGO    C217114  17.350   9.948   6.873 -0.4794 -0.2128  0.3721
 1213ERGO   ROH17115  12.174   4.177   5.421  0.0837  0.1120  0.1986
 1213ERGO    R117116  12.230   4.077   5.679  0.0520  0.0880  0.1963
 1213ERGO    R217117  12.425   4.186   5.842 -0.0165  0.1184  0.2588
 1213ERGO    R317118  12.221   4.204   6.020 -0.0636  0.0327  0.2140
 1213ERGO    R417119  12.459   4.156   6.185 -0.1155 -0.1003  0.2508
 1213ERGO    R517120  12.273   4.041   6.188 -0.1311 -0.0791  0.1276
 1213ERGO    C117121  12.286   4.155   6.551 -0.2172 -0.3080  0.2041
 1213ERGO    C217122  12.363   4.119   6.919  0.0057  0.1851 -0.0361
 1214ERGO   ROH17123   4.205   4.758   5.716  0.0894  0.4695  0.1128
 1214ERGO    R117124   4.160   4.663   5.979 -0.0777  0.4535  0.0819
 1214ERGO    R217125   4.351   4.520   6.120 -0.3878 -0.1314 -0.0405
 1214ERGO    R317126   4.310   4.713   6.307  0.1783 -0.0910  0.0571
 1214ERGO    R417127   4.300   4.462   6.457 -0.3364 -0.1195 -0.0324
 1214ERGO    R517128   4.149   4.618   6.457  0.0340  0.2452  0.1131
 1214ERGO    C117129   4.232   4.609   6.829  0.2249 -0.0747  0.0641
 1214ERGO    C217130   4.185   4.474   7.197  0.1069 -0.0807 -0.0383
 1215ERGO   ROH17131   9.856   8.388   5.461  0.1077 -0.2225 -0.0557
 1215ERGO    R117132   9.938   8.498   5.709 -0.0179 -0.0120 -0.1080
 1215ERGO    R217133   9.758   8.576   5.902 -0.1049 -0.1561 -0.1428
 1215ERGO    R317134   9.904   8.411   6.061  0.1127  0.1012 -0.0640
 1215ERGO    R417135   9.710   8.535   6.242 -0.3258 -0.3335 -0.1912
 1215ERGO    R517136   9.927   8.531   6.267 -0.3174  0.1128 -0.0069
 1215ERGO    C117137   9.819   8.356   6.589 -0.2500 -0.1954 -0.1454
 1215ERGO    C217138   9.910   8.244   6.896  0.3200 -0.1217  0.1484
 1216ERGO   ROH17139  11.777  18.275   5.939 -0.1444 -0.0395  0.2789
 1216ERGO    R117140  11.723  18.234   6.214 -0.1990  0.0905  0.2885
 1216ERGO    R217141  11.924  18.215   6.403 -0.2253 -0.0328  0.3052
 1216ERGO    R317142  11.782  18.413   6.525 -0.0563  0.1327  0.2376
 1216ERGO    R417143  11.868  18.238   6.744 -0.3390  0.0491  0.2820
 1216ERGO    R517144  11.664  18.303   6.701 -0.2522  0.2736  0.1970
 1216ERGO    C117145  11.703  18.438   7.056 -0.2466  0.2521  0.2050
 1216ERGO    C217146  11.596  18.390   7.454  0.2916  0.0409 -0.0094
 1217ERGO   ROH17147  16.111  17.131   5.600  0.0297  0.3483 -0.0881
 1217ERGO    R117148  16.244  17.167   5.847 -0.0538  0.2044 -0.0202
 1217ERGO    R217149  16.462  17.335   5.876  0.0923  0.0033  0.0979
 1217ERGO    R317150  16.310  17.444   6.074  0.0940  0.1267  0.0319
 1217ERGO    R417151  16.587  17.476   6.166  0.0843  0.0579  0.0745
 1217ERGO    R517152  16.424  17.383   6.276  0.0305  0.1562  0.0747
 1217ERGO    C117153  16.518  17.660   6.520  0.0813  0.2055 -0.0011
 1217ERGO    C217154  16.671  17.732   6.753  0.2131 -0.1092  0.0102
 1218ERGO   ROH17155   3.169  14.092   5.606 -0.0356 -0.0333 -0.1122
 1218ERGO    R117156   3.071  14.208   5.845 -0.1553 -0.2995 -0.0276
 1218ERGO    R217157   3.070  14.074   6.086  0.4034 -0.3251 -0.0256
 1218ERGO    R317158   3.206  14.294   6.172 -0.1000  0.0471 -0.1371
 1218ERGO    R417159   3.048  14.209   6.403  0.2065 -0.3013 -0.0485
 1218ERGO    R517160   3.051  14.408   6.314 -0.3306 -0.3024 -0.0974
 1218ERGO    C117161   3.162  14.494   6.668 -0.3807  0.0620 -0.1667
 1218ERGO    C217162   3.166  14.391   7.031  0.0929  0.1694 -0.2949
 1219ERGO   ROH17163   2.076  12.469   6.283  0.0075  0.0369  0.1038
 1219ERGO    R117164   2.052  12.476   6.565 -0.3186 -0.0610  0.0825
 1219ERGO    R217165   2.189  12.658   6.721 -0.0909 -0.4415  0.3372
 1219ERGO    R317166   1.940  12.715   6.815 -0.0920  0.0666  0.0664
 1219ERGO    R417167   2.121  12.802   7.028 -0.1276 -0.6796  0.4436
 1219ERGO    R517168   1.952  12.666   7.049 -0.5234 -0.2927  0.0309
 1219ERGO    C117169   1.849  12.938   7.295 -0.1499 -0.3411  0.2513
 1219ERGO    C217170   1.846  13.145   7.607 -0.0437  0.0114  0.2286
 1220ERGO   ROH17171   4.478  12.796   5.650  0.1318  0.1055 -0.0384
 1220ERGO    R117172   4.473  12.911   5.909  0.0261  0.0628 -0.0210
 1220ERGO    R217173   4.566  12.778   6.132 -0.0572  0.0286 -0.0041
 1220ERGO    R317174   4.717  13.002   6.163 -0.0760  0.0284  0.0898
 1220ERGO    R417175   4.732  12.867   6.423 -0.0645 -0.0763  0.0323
 1220ERGO    R517176   4.672  13.074   6.387 -0.0810 -0.0677  0.1186
 1220ERGO    C117177   4.969  13.130   6.620 -0.0865 -0.1375  0.1418
 1220ERGO    C217178   5.027  13.255   6.947 -0.2150  0.0260 -0.1143
 1221ERGO   ROH17179   1.901  13.713   9.314 -0.0631  0.2258  0.0330
 1221ERGO    R117180   1.872  13.819   9.053  0.0375  0.3367  0.0649
 1221ERGO    R217181   1.964  14.071   8.984  0.3750  0.2357  0.1157
 1221ERGO    R317182   2.093  13.933   8.788  0.1548  0.1022  0.0601
 1221ERGO    R417183   2.003  14.180   8.658  0.4367  0.2412  0.1261
 1221ERGO    R517184   1.965  13.977   8.590  0.1612  0.2988  0.0988
 1221ERGO    C117185   2.148  14.115   8.285  0.2660  0.1191  0.0800
 1221ERGO    C217186   2.201  13.979   7.993  0.0911  0.1446  0.1554
 1222ERGO   ROH17187   8.917   0.522   5.499 -0.1862 -0.1794  0.0172
 1222ERGO    R117188   8.912   0.664   5.744 -0.0042 -0.2107  0.0402
 1222ERGO    R217189   8.756   0.586   5.959 -0.0797 -0.0659  0.0378
 1222ERGO    R317190   8.992   0.594   6.092 -0.0577 -0.3589  0.0238
 1222ERGO    R417191   8.790   0.570   6.302 -0.0867 -0.0282  0.0405
 1222ERGO    R517192   8.946   0.722   6.289  0.1253 -0.2424 -0.0051
 1222ERGO    C117193   9.033   0.569   6.627 -0.0702 -0.2812  0.0290
 1222ERGO    C217194   9.105   0.512   6.926  0.0436  0.0903 -0.2054
 1223ERGO   ROH17195   8.437   1.568   5.710 -0.1344 -0.0336 -0.0363
 1223ERGO    R117196   8.379   1.533   5.985 -0.1551  0.0857 -0.0236
 1223ERGO    R217197   8.566   1.438   6.165 -0.2252 -0.0312 -0.0027
 1223ERGO    R317198   8.503   1.665   6.300 -0.0259  0.0615 -0.0656
 1223ERGO    R417199   8.652   1.505   6.493 -0.1604 -0.0019 -0.0267
 1223ERGO    R517200   8.455   1.593   6.522 -0.0805  0.1730 -0.0450
 1223ERGO    C117201   8.643   1.759   6.810  0.0643  0.1022 -0.0996
 1223ERGO    C217202   8.741   1.960   7.155 -0.1458 -0.2306  0.2344
 1224ERGO   ROH17203  18.897   9.627   6.241 -0.1291  0.0309  0.0859
 1224ERGO    R117204  18.940   9.703   6.510 -0.1996  0.0379  0.0953
 1224ERGO    R217205  18.833   9.563   6.723 -0.0877 -0.0779  0.0772
 1224ERGO    R317206  19.091   9.554   6.806 -0.0797  0.1315  0.0823
 1224ERGO    R417207  18.934   9.565   7.053 -0.1023 -0.1026  0.0819
 1224ERGO    R517208  19.098   9.698   6.997 -0.2212  0.0707  0.1348
 1224ERGO    C117209  19.236   9.557   7.324 -0.1033  0.0797  0.0895
 1224ERGO    C217210  19.516   9.450   7.483 -0.0852 -0.4675 -0.0913
 1225ERGO   ROH17211  11.236   3.254   5.917 -0.2729  0.0303 -0.0387
 1225ERGO    R117212  11.215   3.169   6.186 -0.2717 -0.1298 -0.0878
 1225ERGO    R217213  11.283   2.915   6.268  0.1674 -0.0439 -0.1644
 1225ERGO    R317214  11.442   3.048   6.444 -0.1846  0.1864 -0.0112
 1225ERGO    R417215  11.395   2.787   6.569  0.3391 -0.0216 -0.2175
 1225ERGO    R517216  11.360   2.982   6.659 -0.1264 -0.1524 -0.0862
 1225ERGO    C117217  11.608   2.838   6.909  0.1085  0.2075 -0.1046
 1225ERGO    C217218  11.697   2.684   7.189 -0.1571 -0.1613 -0.0152
 1226ERGO   ROH17219  18.425  10.382   6.201 -0.1212 -0.0392  0.0003
 1226ERGO    R117220  18.245  10.406   6.418  0.0162 -0.0561  0.1173
 1226ERGO    R217221  18.330  10.446   6.677  0.1767  0.0571  0.0484
 1226ERGO    R317222  18.161  10.659   6.665  0.0735 -0.0211  0.1011
 1226ERGO    R417223  18.329  10.711   6.900  0.0199 -0.0177  0.1388
 1226ERGO    R517224  18.111  10.708   6.894  0.0213 -0.1231  0.1124
 1226ERGO    C117225  18.170  11.064   7.018 -0.1685 -0.1346  0.2410
 1226ERGO    C217226  18.311  11.446   7.109  0.3819 -0.0938 -0.2131
 1227ERGO   ROH17227  19.058   2.226   5.475 -0.0393  0.1599  0.0343
 1227ERGO    R117228  19.212   2.330   5.689 -0.0001  0.1099  0.0312
 1227ERGO    R217229  19.114   2.350   5.947 -0.0080  0.1929  0.0226
 1227ERGO    R317230  19.338   2.209   6.008 -0.0834  0.0864  0.0555
 1227ERGO    R417231  19.297   2.387   6.237 -0.0743  0.0533  0.0829
 1227ERGO    R517232  19.479   2.367   6.119 -0.0489  0.0037  0.1300
 1227ERGO    C117233  19.614   2.276   6.464 -0.1838 -0.1280  0.1487
 1227ERGO    C217234  19.708   2.239   6.838  0.2625  0.2123 -0.2783
 1228ERGO   ROH17235   1.889   4.165   5.289  0.1814  0.0571 -0.0462
 1228ERGO    R117236   1.941   4.144   5.566  0.1043 -0.0478 -0.0393
 1228ERGO    R217237   1.819   4.307   5.753  0.0782 -0.0943 -0.0146
 1228ERGO    R317238   1.749   4.071   5.866  0.0123 -0.1249 -0.1170
 1228ERGO    R417239   1.688   4.273   6.071 -0.0041 -0.1945 -0.0585
 1228ERGO    R517240   1.811   4.095   6.096 -0.0404 -0.2222 -0.0936
 1228ERGO    C117241   1.546   4.031   6.362 -0.1140 -0.2817 -0.1801
 1228ERGO    C217242   1.243   4.169   6.366 -0.1398 -0.0672 -0.1554
 1229ERGO   ROH17243  14.439  12.181   5.652 -0.3242  0.0232  0.0113
 1229ERGO    R117244  14.247  12.095   5.842 -0.1707 -0.1544  0.0895
 1229ERGO    R217245  14.298  11.893   6.023  0.1467 -0.0014  0.1787
 1229ERGO    R317246  14.221  12.081   6.204 -0.0791 -0.0164  0.1022
 1229ERGO    R417247  14.337  11.865   6.366 -0.0229  0.0899  0.2066
 1229ERGO    R517248  14.139  11.955   6.391 -0.0981 -0.0360  0.0808
 1229ERGO    C117249  14.288  12.025   6.735 -0.3337  0.1290  0.1510
 1229ERGO    C217250  14.455  12.162   7.067  0.1426 -0.0921  0.0763
 1230ERGO   ROH17251   2.892   0.528   5.607  0.0074 -0.0873  0.0796
 1230ERGO    R117252   2.945   0.660   5.851  0.0532 -0.0152  0.0314
 1230ERGO    R217253   2.749   0.710   6.039  0.0740  0.1050  0.0224
 1230ERGO    R317254   2.920   0.580   6.206  0.0450  0.1164  0.0610
 1230ERGO    R417255   2.815   0.803   6.365  0.0688  0.1678  0.0055
 1230ERGO    R517256   3.025   0.756   6.331  0.0638  0.1288  0.0281
 1230ERGO    C117257   3.014   0.736   6.711  0.0386  0.2152  0.0318
 1230ERGO    C217258   3.049   0.778   7.005  0.1139 -0.3531  0.1109
 1231ERGO   ROH17259   6.215   6.532   5.786 -0.1410 -0.0193 -0.0509
 1231ERGO    R117260   6.057   6.525   6.021 -0.0176 -0.0695  0.0319
 1231ERGO    R217261   6.095   6.339   6.221  0.1703 -0.0325  0.0296
 1231ERGO    R317262   6.113   6.559   6.379  0.1504 -0.0106  0.0016
 1231ERGO    R417263   6.082   6.336   6.567 -0.1561  0.0365  0.0208
 1231ERGO    R517264   5.960   6.516   6.558 -0.0471  0.1094 -0.1311
 1231ERGO    C117265   6.091   6.541   6.916 -0.3649  0.0973 -0.0106
 1231ERGO    C217266   6.347   6.498   7.184  0.3665 -0.1456 -0.0346
 1232ERGO   ROH17267   3.762   1.377   5.644  0.1324  0.3742  0.1277
 1232ERGO    R117268   3.639   1.245   5.861  0.0846  0.1460 -0.0341
 1232ERGO    R217269   3.677   1.322   6.124  0.0980 -0.1807  0.0671
 1232ERGO    R317270   3.406   1.333   6.127  0.1016 -0.1022  0.0649
 1232ERGO    R417271   3.479   1.223   6.389  0.0685  0.0035  0.1142
 1232ERGO    R517272   3.339   1.136   6.246  0.0441 -0.0246  0.1591
 1232ERGO    C117273   3.108   1.176   6.546  0.0547  0.1845  0.1396
 1232ERGO    C217274   2.983   1.261   6.828  0.3288  0.1146 -0.0786
 1233ERGO   ROH17275   6.086   7.376   5.982 -0.0864  0.0462 -0.0849
 1233ERGO    R117276   6.029   7.490   6.235 -0.0247 -0.1067 -0.0002
 1233ERGO    R217277   6.219   7.512   6.434  0.1003  0.0170 -0.1300
 1233ERGO    R317278   6.148   7.774   6.429 -0.1804 -0.0521  0.0166
 1233ERGO    R417279   6.355   7.758   6.635  0.0741  0.1047 -0.2189
 1233ERGO    R517280   6.156   7.843   6.658  0.0063 -0.1067  0.0283
 1233ERGO    C117281   6.367   8.148   6.747 -0.2048  0.0909 -0.1330
 1233ERGO    C217282   6.481   8.570   6.862  0.0825  0.1903  0.0730
 1234ERGO   ROH17283   8.580  16.090   5.624 -0.2195 -0.0199  0.2557
 1234ERGO    R117284   8.614  16.341   5.752 -0.1407  0.0213  0.1558
 1234ERGO    R217285   8.470  16.414   5.976  0.0366  0.0694  0.2564
 1234ERGO    R317286   8.717  16.458   6.080  0.1207  0.1274  0.0380
 1234ERGO    R417287   8.545  16.658   6.209  0.1490 -0.0293  0.3243
 1234ERGO    R517288   8.731  16.696   6.102  0.0258  0.1223  0.1611
 1234ERGO    C117289   8.821  16.841   6.443  0.2935 -0.0322  0.1589
 1234ERGO    C217290   8.995  16.914   6.637  0.1541 -0.0425  0.0234
 1235ERGO   ROH17291   8.711   0.143   5.434  0.2085 -0.0779 -0.0383
 1235ERGO    R117292   8.721   0.015   5.687  0.0042 -0.1770 -0.0783
 1235ERGO    R217293   8.762   0.154   5.923  0.2488 -0.3151 -0.0360
 1235ERGO    R317294   8.533   0.029   5.998  0.0354  0.0441 -0.0678
 1235ERGO    R417295   8.628   0.162   6.241  0.3020 -0.2342 -0.0152
 1235ERGO    R517296   8.577  -0.049   6.219 -0.0687 -0.1422 -0.1106
 1235ERGO    C117297   8.335   0.049   6.497  0.1327  0.1500 -0.0328
 1235ERGO    C217298   8.118   0.157   6.762 -0.3259  0.0889 -0.0815
 1236ERGO   ROH17299  16.699  12.373   6.111  0.2788  0.0489 -0.0002
 1236ERGO    R117300  16.701  12.333   6.391 -0.1788  0.0501  0.0088
 1236ERGO    R217301  16.923  12.386   6.548 -0.2625 -0.4268  0.2964
 1236ERGO    R317302  16.748  12.540   6.687 -0.1207 -0.0369  0.0628
 1236ERGO    R417303  16.966  12.486   6.876 -0.2133 -0.0516  0.1813
 1236ERGO    R517304  16.753  12.450   6.909 -0.2714  0.2358  0.1866
 1236ERGO    C117305  16.826  12.689   7.198 -0.0514  0.5329 -0.1049
 1236ERGO    C217306  16.984  12.796   7.508  0.0176  0.1496 -0.0901
 1237ERGO   ROH17307   2.164   6.879   5.926  0.2275 -0.1303 -0.0204
 1237ERGO    R117308   2.189   6.825   6.203  0.2990 -0.2158 -0.0432
 1237ERGO    R217309   2.427   6.740   6.317  0.4455  0.1473 -0.0658
 1237ERGO    R317310   2.387   6.954   6.480  0.0533  0.0079  0.0320
 1237ERGO    R417311   2.589   6.793   6.617  0.5844  0.4518 -0.1903
 1237ERGO    R517312   2.401   6.864   6.701  0.4676 -0.0360 -0.0046
 1237ERGO    C117313   2.646   7.024   6.945  0.2971  0.4982 -0.1710
 1237ERGO    C217314   2.941   7.138   7.044 -0.0283  0.1474  0.1271
 1238ERGO   ROH17315  17.431   6.610   5.610 -0.2084  0.0374 -0.2071
 1238ERGO    R117316  17.454   6.358   5.737 -0.0705  0.0463 -0.2105
 1238ERGO    R217317  17.680   6.282   5.877 -0.0068  0.1481 -0.2438
 1238ERGO    R317318  17.502   6.237   6.077  0.0421  0.0728 -0.2185
 1238ERGO    R417319  17.734   6.071   6.146  0.1575  0.2680 -0.1816
 1238ERGO    R517320  17.527   6.004   6.128  0.2123  0.1112 -0.1468
 1238ERGO    C117321  17.597   5.905   6.490  0.2991  0.2671 -0.1215
 1238ERGO    C217322  17.629   5.601   6.784  0.1662  0.0613  0.0434
 1239ERGO   ROH17323  11.399  17.460   5.805  0.2384 -0.2590  0.1447
 1239ERGO    R117324  11.465  17.336   6.052  0.1314 -0.1492  0.2284
 1239ERGO    R217325  11.471  17.475   6.290 -0.0411 -0.0587  0.1777
 1239ERGO    R317326  11.300  17.280   6.371 -0.0344 -0.0739  0.1586
 1239ERGO    R417327  11.461  17.342   6.609 -0.2150  0.1028  0.2424
 1239ERGO    R517328  11.431  17.145   6.520 -0.0885  0.0440  0.3197
 1239ERGO    C117329  11.294  17.081   6.870 -0.3097  0.1824  0.2622
 1239ERGO    C217330  11.197  16.999   7.239  0.0922  0.0529  0.1739
 1240ERGO   ROH17331  19.318   8.394   6.226 -0.1705 -0.1860  0.1621
 1240ERGO    R117332  19.516   8.226   6.339  0.0030 -0.0495  0.0658
 1240ERGO    R217333  19.786   8.283   6.323 -0.0415  0.1473 -0.0540
 1240ERGO    R317334  19.775   8.258   6.593  0.0951  0.1269 -0.0496
 1240ERGO    R417335  20.056   8.212   6.527  0.0475  0.0752 -0.1952
 1240ERGO    R517336  19.928   8.081   6.643  0.0835  0.0937 -0.1408
 1240ERGO    C117337  20.202   8.148   6.899  0.2277  0.0142 -0.2733
 1240ERGO    C217338  20.231   8.325   7.243  0.2012  0.1309  0.3397
 1241ERGO   ROH17339   3.527  10.688   6.260  0.0454  0.0689 -0.0673
 1241ERGO    R117340   3.563  10.839   6.497  0.2239  0.3037 -0.2365
 1241ERGO    R217341   3.503  11.107   6.513 -0.3875  0.1928 -0.2846
 1241ERGO    R317342   3.352  11.028   6.725  0.2591 -0.0629  0.1076
 1241ERGO    R417343   3.344  11.321   6.733 -0.6157 -0.0650 -0.1955
 1241ERGO    R517344   3.401  11.188   6.896  0.1183  0.2660 -0.1582
 1241ERGO    C117345   3.110  11.371   7.060 -0.1416 -0.4552  0.2246
 1241ERGO    C217346   2.859  11.533   7.232 -0.0000  0.1425  0.1095
 1242ERGO   ROH17347  19.390  14.555   5.610  0.1275  0.0456 -0.2212
 1242ERGO    R117348  19.287  14.597   5.870  0.0497  0.1272 -0.2647
 1242ERGO    R217349  19.104  14.427   5.987  0.0961  0.1032 -0.2244
 1242ERGO    R317350  19.288  14.418   6.187  0.0560  0.2799 -0.1784
 1242ERGO    R417351  19.029  14.416   6.324  0.0251 -0.0476 -0.2440
 1242ERGO    R517352  19.193  14.554   6.361 -0.1448  0.1379 -0.1756
 1242ERGO    C117353  19.157  14.402   6.709 -0.0538  0.0303 -0.2121
 1242ERGO    C217354  19.042  14.211   6.974  0.0293  0.0689  0.2500
 1243ERGO   ROH17355  13.781  17.934   5.346 -0.0276 -0.0048 -0.0361
 1243ERGO    R117356  13.882  18.092   5.558  0.0525  0.0145 -0.0899
 1243ERGO    R217357  13.830  18.034   5.824 -0.0801  0.2021 -0.0846
 1243ERGO    R317358  14.101  18.040   5.844 -0.0778 -0.0304  0.0078
 1243ERGO    R417359  14.005  18.055   6.121 -0.2056  0.5239 -0.0287
 1243ERGO    R517360  14.143  18.193   6.024 -0.0201  0.2416 -0.2149
 1243ERGO    C117361  14.361  18.073   6.314 -0.2763  0.4925  0.0907
 1243ERGO    C217362  14.602  17.941   6.495  0.0406 -0.0714  0.3221
 1244ERGO   ROH17363   3.259  12.319   5.795 -0.1025  0.3453  0.0109
 1244ERGO    R117364   3.301  12.448   6.044 -0.1744  0.2131  0.0929
 1244ERGO    R217365   3.174  12.368   6.276 -0.0501 -0.0738  0.0677
 1244ERGO    R317366   3.428  12.354   6.372 -0.0139  0.1035 -0.0000
 1244ERGO    R417367   3.259  12.329   6.609  0.0560 -0.3951  0.0072
 1244ERGO    R517368   3.421  12.472   6.579 -0.1158 -0.1647  0.1528
 1244ERGO    C117369   3.547  12.294   6.892  0.1517 -0.4156 -0.0917
 1244ERGO    C217370   3.609  12.139   7.237 -0.1277  0.2192 -0.4703
 1245ERGO   ROH17371   7.812  19.286   5.562 -0.1841 -0.1257 -0.0584
 1245ERGO    R117372   7.651  19.354   5.785 -0.1522 -0.0895 -0.0461
 1245ERGO    R217373   7.467  19.179   5.894 -0.0807 -0.1016  0.0590
 1245ERGO    R317374   7.603  19.229   6.124 -0.0410  0.0186  0.0099
 1245ERGO    R417375   7.350  19.109   6.212  0.0649 -0.1342  0.1057
 1245ERGO    R517376   7.434  19.299   6.279 -0.0376 -0.0702  0.0530
 1245ERGO    C117377   7.411  19.115   6.613  0.1869 -0.0402  0.0868
 1245ERGO    C217378   7.269  18.959   6.831  0.2070  0.0802 -0.1139
 1246ERGO   ROH17379  10.656  15.424   5.923  0.2757  0.0431  0.1081
 1246ERGO    R117380  10.624  15.263   6.154  0.1608  0.0045  0.0681
 1246ERGO    R217381  10.835  15.198   6.320  0.1234 -0.2022  0.0520
 1246ERGO    R317382  10.674  15.303   6.512  0.2047 -0.1220  0.0737
 1246ERGO    R417383  10.795  15.069   6.638 -0.0235 -0.2560  0.0112
 1246ERGO    R517384  10.583  15.113   6.625  0.0258 -0.0653  0.0111
 1246ERGO    C117385  10.621  15.093   7.004 -0.0327 -0.2121  0.0078
 1246ERGO    C217386  10.459  14.906   7.234 -0.3483 -0.1602 -0.0810
 1247ERGO   ROH17387   9.130  13.311   5.680  0.2610  0.1133 -0.2444
 1247ERGO    R117388   9.298  13.419   5.880  0.1344 -0.0288 -0.0612
 1247ERGO    R217389   9.300  13.688   5.943  0.3080 -0.0365 -0.0821
 1247ERGO    R317390   9.253  13.597   6.194 -0.0530  0.0321 -0.1166
 1247ERGO    R417391   9.340  13.874   6.231  0.4429 -0.0978 -0.0586
 1247ERGO    R517392   9.424  13.698   6.327  0.0544 -0.2766  0.0076
 1247ERGO    C117393   9.319  13.897   6.636  0.1826 -0.0693 -0.0774
 1247ERGO    C217394   9.274  13.928   6.930 -0.1092  0.1603 -0.0088
 1248ERGO   ROH17395   6.891   2.501   5.635 -0.0804 -0.2639  0.0504
 1248ERGO    R117396   6.955   2.488   5.911 -0.0312 -0.0959  0.0476
 1248ERGO    R217397   7.089   2.273   6.022  0.1555  0.0633  0.1185
 1248ERGO    R317398   7.258   2.467   6.111  0.0143  0.2347  0.0238
 1248ERGO    R417399   7.263   2.260   6.320  0.2771  0.2463  0.0576
 1248ERGO    R517400   7.221   2.473   6.348  0.0898  0.2240  0.0440
 1248ERGO    C117401   7.523   2.434   6.578  0.2154  0.5137 -0.0667
 1248ERGO    C217402   7.741   2.319   6.656 -0.2043  0.2022 -0.0395
 1249ERGO   ROH17403   3.187   6.178   5.879 -0.0155 -0.0159  0.0308
 1249ERGO    R117404   3.210   6.213   6.159  0.1333  0.0042  0.0178
 1249ERGO    R217405   3.035   6.098   6.339  0.0029  0.3109  0.1032
 1249ERGO    R317406   3.264   6.000   6.449 -0.1070 -0.0295  0.0374
 1249ERGO    R417407   3.081   6.038   6.676  0.0312  0.2769  0.0922
 1249ERGO    R517408   3.284   6.117   6.657  0.1472 -0.0377  0.0159
 1249ERGO    C117409   3.323   5.911   6.976 -0.0555 -0.0625  0.0240
 1249ERGO    C217410   3.384   6.073   7.347  0.0959  0.2270  0.2703
 1250ERGO   ROH17411  11.352  15.620   5.534  0.1115 -0.0519 -0.1579
 1250ERGO    R117412  11.501  15.723   5.752  0.0190 -0.0396 -0.1017
 1250ERGO    R217413  11.499  15.990   5.821 -0.0781 -0.0540 -0.0664
 1250ERGO    R317414  11.427  15.894   6.065 -0.1172 -0.1041 -0.0962
 1250ERGO    R417415  11.526  16.165   6.118 -0.1335 -0.1036 -0.0309
 1250ERGO    R517416  11.593  15.981   6.214 -0.1417 -0.1232 -0.0522
 1250ERGO    C117417  11.474  16.177   6.520 -0.2027 -0.1793 -0.0381
 1250ERGO    C217418  11.468  16.329   6.946  0.1210  0.0163  0.2485
 1251ERGO   ROH17419  13.824  17.468   5.590  0.3203 -0.3163 -0.2314
 1251ERGO    R117420  13.936  17.613   5.806  0.1446 -0.2690 -0.1734
 1251ERGO    R217421  13.840  17.593   6.064  0.0281 -0.3210 -0.2310
 1251ERGO    R317422  14.099  17.534   6.122  0.0307 -0.1933 -0.0920
 1251ERGO    R417423  13.977  17.598   6.381 -0.1237 -0.1342 -0.1637
 1251ERGO    R517424  14.157  17.687   6.297 -0.1152 -0.0904 -0.1227
 1251ERGO    C117425  14.300  17.545   6.620 -0.2097  0.0947  0.0059
 1251ERGO    C217426  14.516  17.706   6.957 -0.0115  0.4106  0.1056
 1252ERGO   ROH17427   3.389  18.883   5.656 -0.3138  0.0078  0.1211
 1252ERGO    R117428   3.399  18.675   5.848 -0.3662 -0.0316  0.0806
 1252ERGO    R217429   3.628  18.617   5.993 -0.3278 -0.2340 -0.0619
 1252ERGO    R317430   3.461  18.648   6.205 -0.1806 -0.1392  0.0424
 1252ERGO    R417431   3.715  18.563   6.323 -0.1029 -0.1162 -0.0998
 1252ERGO    R517432   3.521  18.471   6.355 -0.0917 -0.0893  0.0693
 1252ERGO    C117433   3.610  18.561   6.714  0.1663  0.0414 -0.0239
 1252ERGO    C217434   3.625  18.714   7.099 -0.1212 -0.0664 -0.0239
 1253ERGO   ROH17435  10.821  16.714   5.577  0.2709  0.2454  0.0866
 1253ERGO    R117436  10.673  16.702   5.818  0.1402  0.0912  0.0005
 1253ERGO    R217437  10.666  16.476   5.977  0.2659  0.0763 -0.0151
 1253ERGO    R317438  10.746  16.650   6.171 -0.0150  0.1461  0.0417
 1253ERGO    R417439  10.546  16.478   6.301  0.0832 -0.0693 -0.0801
 1253ERGO    R517440  10.545  16.696   6.294 -0.1342 -0.0660 -0.0640
 1253ERGO    C117441  10.551  16.643   6.672 -0.2869 -0.0885 -0.0646
 1253ERGO    C217442  10.579  16.671   6.939 -0.0316  0.1464 -0.1892
 1254ERGO   ROH17443  13.831  19.356   7.331 -0.0425  0.3222 -0.0799
 1254ERGO    R117444  13.868  19.243   7.074  0.3450  0.2990 -0.0183
 1254ERGO    R217445  14.108  19.131   6.994  0.3404 -0.1341  0.5264
 1254ERGO    R317446  13.953  18.915   6.939  0.0530  0.1563  0.1314
 1254ERGO    R417447  14.220  18.839   6.847  0.1089 -0.2382  0.5514
 1254ERGO    R517448  14.036  18.833   6.731  0.2828  0.1457  0.2189
 1254ERGO    C117449  14.139  18.466   6.710 -0.2957 -0.0264  0.1952
 1254ERGO    C217450  14.219  18.108   6.864  0.2844  0.0031  0.1191
 1255ERGO   ROH17451   9.447   4.727   5.791 -0.0288 -0.2651  0.0677
 1255ERGO    R117452   9.467   4.774   6.069 -0.2505 -0.3782  0.1049
 1255ERGO    R217453   9.550   5.017   6.174  0.2631 -0.6020  0.2521
 1255ERGO    R317454   9.315   5.001   6.310  0.0312 -0.0213 -0.0461
 1255ERGO    R417455   9.497   5.140   6.492  0.1475 -0.4662  0.1818
 1255ERGO    R517456   9.380   4.962   6.537 -0.3576 -0.1846  0.0423
 1255ERGO    C117457   9.245   5.197   6.805 -0.1373  0.1580 -0.1390
 1255ERGO    C217458   9.082   5.156   7.176  0.1653 -0.1362 -0.1270
 1256ERGO   ROH17459  10.480   6.575   5.972 -0.0809 -0.0206  0.0222
 1256ERGO    R117460  10.466   6.671   6.238 -0.0058 -0.0168  0.0242
 1256ERGO    R217461  10.552   6.521   6.455  0.0832 -0.0001 -0.0028
 1256ERGO    R317462  10.703   6.742   6.506  0.0720  0.0198 -0.0527
 1256ERGO    R417463  10.741   6.571   6.740 -0.0521  0.1420  0.0642
 1256ERGO    R517464  10.677   6.779   6.741 -0.0414  0.1498 -0.0820
 1256ERGO    C117465  10.992   6.806   6.954 -0.1414  0.2434  0.0564
 1256ERGO    C217466  11.282   6.774   7.035 -0.1139 -0.3875  0.2419
 1257ERGO   ROH17467   1.276   4.926   5.446 -0.2350  0.0151 -0.0142
 1257ERGO    R117468   1.223   4.907   5.724 -0.0814  0.0502  0.0158
 1257ERGO    R217469   1.128   4.676   5.842 -0.1010  0.1030  0.0753
 1257ERGO    R317470   1.345   4.708   6.003 -0.0010  0.0195 -0.0363
 1257ERGO    R417471   1.122   4.656   6.187 -0.0418  0.5415  0.1104
 1257ERGO    R517472   1.260   4.825   6.195  0.1976  0.3837 -0.1485
 1257ERGO    C117473   1.322   4.673   6.539  0.0866  0.7184  0.0261
 1257ERGO    C217474   1.478   4.396   6.715  0.1012 -0.1991 -0.1064
 1258ERGO   ROH17475   4.147  11.364   6.042 -0.3673 -0.0156  0.1039
 1258ERGO    R117476   4.369  11.200   6.106 -0.3360  0.0165  0.0828
 1258ERGO    R217477   4.554  11.270   6.299 -0.2144  0.1381 -0.0654
 1258ERGO    R317478   4.492  11.025   6.400 -0.1763  0.2092  0.1298
 1258ERGO    R417479   4.764  11.081   6.498 -0.0044  0.1108 -0.3086
 1258ERGO    R517480   4.698  10.903   6.389 -0.2566  0.1029 -0.1349
 1258ERGO    C117481   4.828  10.741   6.709  0.1535  0.1617 -0.2670
 1258ERGO    C217482   4.955  10.548   7.047 -0.2022 -0.1839  0.1860
 1259ERGO   ROH17483   1.950  11.445   5.947  0.2504  0.1497 -0.0393
 1259ERGO    R117484   2.013  11.348   6.205 -0.0169 -0.0147 -0.0310
 1259ERGO    R217485   2.270  11.351   6.307 -0.0794 -0.2776  0.1585
 1259ERGO    R317486   2.152  11.484   6.513 -0.1165 -0.2605  0.1250
 1259ERGO    R417487   2.401  11.379   6.625 -0.1397 -0.2395  0.1794
 1259ERGO    R517488   2.201  11.351   6.705 -0.1487 -0.2353  0.1466
 1259ERGO    C117489   2.368  11.520   7.004 -0.2097 -0.2012  0.1601
 1259ERGO    C217490   2.404  11.815   7.140  0.0502 -0.1764  0.1854
 1260ERGO   ROH17491   1.763  17.161   6.114  0.2687  0.2040  0.0934
 1260ERGO    R117492   1.515  17.246   6.219  0.1702 -0.0530  0.0756
 1260ERGO    R217493   1.432  17.183   6.474  0.2933 -0.0032  0.1256
 1260ERGO    R317494   1.402  17.452   6.497 -0.0575 -0.0219 -0.0364
 1260ERGO    R417495   1.239  17.340   6.715  0.3918 -0.1060  0.2742
 1260ERGO    R517496   1.173  17.481   6.562 -0.0206 -0.3055  0.2529
 1260ERGO    C117497   1.099  17.685   6.876  0.1197 -0.1834  0.2087
 1260ERGO    C217498   1.121  17.879   7.198  0.0448  0.1199 -0.0739
 1261ERGO   ROH17499  17.888  12.830   5.461 -0.2574 -0.4129  0.1301
 1261ERGO    R117500  17.887  12.722   5.723 -0.1516 -0.2589  0.1957
 1261ERGO    R217501  18.117  12.688   5.871 -0.0839 -0.2312  0.0962
 1261ERGO    R317502  17.981  12.834   6.056  0.0496 -0.0873  0.0837
 1261ERGO    R417503  18.120  12.629   6.212 -0.1863 -0.2442  0.0952
 1261ERGO    R517504  17.907  12.673   6.216 -0.1429 -0.0146  0.0715
 1261ERGO    C117505  17.994  12.730   6.583 -0.1207 -0.1168  0.0829
 1261ERGO    C217506  18.203  12.711   6.890 -0.1035 -0.0328  0.2918
 1262ERGO   ROH17507   1.815   2.057   5.692 -0.0214 -0.0161  0.1412
 1262ERGO    R117508   2.000   2.235   5.812  0.1467 -0.0775 -0.0201
 1262ERGO    R217509   1.968   2.331   6.069  0.1686  0.2824 -0.1424
 1262ERGO    R317510   2.219   2.232   6.102  0.0445  0.0234  0.0575
 1262ERGO    R417511   2.199   2.451   6.297  0.1980  0.1974 -0.1281
 1262ERGO    R517512   2.354   2.426   6.145  0.2444 -0.0968 -0.0316
 1262ERGO    C117513   2.569   2.428   6.460  0.0988 -0.0951  0.0681
 1262ERGO    C217514   2.616   2.387   6.820  0.0545  0.1641  0.0263
 1263ERGO   ROH17515  12.519  17.335   5.416  0.1472  0.0449 -0.0298
 1263ERGO    R117516  12.558  17.374   5.693  0.1885 -0.0218 -0.0264
 1263ERGO    R217517  12.370  17.299   5.881  0.1274  0.1201 -0.0315
 1263ERGO    R317518  12.579  17.162   5.989  0.0117 -0.0767 -0.0515
 1263ERGO    R417519  12.397  17.210   6.214  0.1317  0.2079 -0.0079
 1263ERGO    R517520  12.609  17.260   6.205  0.1897 -0.0307 -0.0946
 1263ERGO    C117521  12.609  17.029   6.509  0.0256  0.0742 -0.0129
 1263ERGO    C217522  12.538  16.970   6.759 -0.0884  0.1115  0.1185
 1264ERGO   ROH17523  13.028  16.426   5.320 -0.2803  0.1079  0.1623
 1264ERGO    R117524  13.239  16.410   5.507 -0.2053 -0.0768  0.0644
 1264ERGO    R217525  13.334  16.631   5.643  0.0685 -0.1530  0.0033
 1264ERGO    R317526  13.284  16.477   5.862  0.0248 -0.0882  0.0393
 1264ERGO    R417527  13.368  16.736   5.971  0.0833 -0.0820 -0.0206
 1264ERGO    R517528  13.452  16.541   6.020  0.0352 -0.0906  0.0291
 1264ERGO    C117529  13.340  16.652   6.367  0.0509  0.0199 -0.0007
 1264ERGO    C217530  13.474  16.867   6.547 -0.0930 -0.2698 -0.2078
 1265ERGO   ROH17531   9.594   9.943   5.261 -0.3402  0.0644 -0.0836
 1265ERGO    R117532   9.663   9.919   5.534 -0.4031  0.2007 -0.0575
 1265ERGO    R217533   9.473   9.905   5.735 -0.4623 -0.2360 -0.1521
 1265ERGO    R317534   9.606   9.677   5.800  0.0233  0.0479 -0.0932
 1265ERGO    R417535   9.487   9.768   6.052 -0.3649 -0.2218 -0.1476
 1265ERGO    R517536   9.697   9.722   6.018 -0.2120  0.2542 -0.0220
 1265ERGO    C117537   9.620   9.475   6.298  0.1477  0.0531 -0.0895
 1265ERGO    C217538   9.547   9.454   6.629 -0.2331  0.1023 -0.4228
 1266ERGO   ROH17539   6.732  17.880   5.667 -0.1660  0.0833  0.0386
 1266ERGO    R117540   6.649  17.998   5.911 -0.2674  0.0920  0.0016
 1266ERGO    R217541   6.384  18.049   5.969 -0.3146 -0.0968 -0.0220
 1266ERGO    R317542   6.439  17.903   6.192 -0.2049  0.0081  0.0193
 1266ERGO    R417543   6.164  17.998   6.231 -0.2752 -0.1944 -0.0086
 1266ERGO    R517544   6.331  18.023   6.369 -0.2970 -0.0278 -0.0157
 1266ERGO    C117545   6.087  17.832   6.593 -0.1494 -0.1529  0.0379
 1266ERGO    C217546   5.937  17.591   6.735  0.1051  0.0892 -0.0443
 1267ERGO   ROH17547   1.167  14.916   5.886 -0.1326  0.1526 -0.0848
 1267ERGO    R117548   1.172  15.117   6.086 -0.1157  0.1141 -0.0463
 1267ERGO    R217549   0.959  15.287   6.131 -0.1338  0.0672  0.0436
 1267ERGO    R317550   0.982  15.196   6.386 -0.0503  0.0215  0.0202
 1267ERGO    R417551   0.768  15.396   6.397 -0.0845 -0.0179  0.1144
 1267ERGO    R517552   0.947  15.390   6.521 -0.0500 -0.0101  0.0668
 1267ERGO    C117553   0.678  15.374   6.792  0.0226 -0.1103  0.1336
 1267ERGO    C217554   0.326  15.384   6.986  0.0648  0.0326 -0.0562
 1268ERGO   ROH17555   9.178  17.965   5.251 -0.0694  0.0585  0.0345
 1268ERGO    R117556   9.225  18.115   5.486 -0.0066  0.0509  0.0259
 1268ERGO    R217557   9.144  18.378   5.513 -0.1382 -0.0031  0.1119
 1268ERGO    R317558   9.021  18.284   5.737  0.0565 -0.0983  0.1819
 1268ERGO    R417559   9.082  18.564   5.797 -0.3870  0.0500  0.0269
 1268ERGO    R517560   9.137  18.391   5.917 -0.0742  0.1899  0.1073
 1268ERGO    C117561   8.932  18.585   6.173 -0.3491 -0.0086  0.0431
 1268ERGO    C217562   8.769  18.775   6.576  0.0816 -0.0695  0.3685
 1269ERGO   ROH17563  15.601   9.000   5.651  0.1569 -0.0889  0.0395
 1269ERGO    R117564  15.661   9.232   5.803 -0.1280 -0.0362  0.0770
 1269ERGO    R217565  15.507   9.313   6.017 -0.1369 -0.3577  0.1967
 1269ERGO    R317566  15.744   9.307   6.149 -0.0402 -0.0141  0.0518
 1269ERGO    R417567  15.586   9.511   6.289 -0.2494 -0.2264  0.1361
 1269ERGO    R517568  15.787   9.536   6.206 -0.3301  0.0548  0.0106
 1269ERGO    C117569  15.856   9.619   6.572 -0.2242  0.1726 -0.0351
 1269ERGO    C217570  15.916   9.739   6.720 -0.1552  0.3479  0.3617
 1270ERGO   ROH17571  10.146  13.321   5.653  0.1525  0.0161  0.1045
 1270ERGO    R117572  10.180  13.193   5.903 -0.0628 -0.0367  0.1077
 1270ERGO    R217573  10.428  13.153   6.018 -0.1430 -0.2835  0.1965
 1270ERGO    R317574  10.315  13.281   6.229 -0.0981 -0.1927  0.1663
 1270ERGO    R417575  10.587  13.213   6.319 -0.0333 -0.0474  0.0937
 1270ERGO    R517576  10.400  13.165   6.421  0.0240 -0.0501  0.2026
 1270ERGO    C117577  10.574  13.370   6.692  0.0729  0.1752  0.0055
 1270ERGO    C217578  10.712  13.509   6.941  0.0958 -0.0256  0.0221
 1271ERGO   ROH17579   3.632   6.411   6.225  0.2934  0.3972 -0.3200
 1271ERGO    R117580   3.820   6.441   6.435  0.0879  0.1610 -0.0958
 1271ERGO    R217581   3.988   6.659   6.453  0.3391 -0.0452  0.1014
 1271ERGO    R317582   3.881   6.680   6.703  0.0687  0.0822 -0.0204
 1271ERGO    R417583   4.147   6.804   6.724  0.1584 -0.1459  0.2641
 1271ERGO    R517584   4.067   6.644   6.850 -0.1270 -0.0612  0.2001
 1271ERGO    C117585   4.139   6.908   7.116 -0.2007 -0.0850  0.2447
 1271ERGO    C217586   4.276   7.280   7.342  0.1264  0.4659  0.2601
 1272ERGO   ROH17587   8.492  13.404   5.733  0.2004  0.0838  0.1408
 1272ERGO    R117588   8.313  13.321   5.936  0.1046  0.1742  0.0944
 1272ERGO    R217589   8.373  13.116   6.112 -0.0796  0.0870  0.0565
 1272ERGO    R317590   8.316  13.305   6.300  0.0368  0.0884  0.0915
 1272ERGO    R417591   8.314  13.052   6.447 -0.0255  0.0709  0.0630
 1272ERGO    R517592   8.155  13.200   6.443  0.0298  0.1331  0.1174
 1272ERGO    C117593   8.227  13.191   6.817  0.1153  0.0628  0.0997
 1272ERGO    C217594   8.171  13.060   7.237  0.0287  0.1470  0.1231
 1273ERGO   ROH17595   0.858  10.691   6.081 -0.3685 -0.0150  0.1706
 1273ERGO    R117596   1.050  10.707   6.288 -0.2572  0.0336  0.0643
 1273ERGO    R217597   1.094  10.937   6.433 -0.3151  0.0115  0.1150
 1273ERGO    R317598   1.049  10.774   6.646 -0.0903 -0.0871  0.0890
 1273ERGO    R417599   1.092  11.039   6.764 -0.2388 -0.0858  0.1460
 1273ERGO    R517600   1.197  10.855   6.816 -0.0717 -0.0224  0.0432
 1273ERGO    C117601   1.049  10.944   7.156  0.0168 -0.2350  0.1397
 1273ERGO    C217602   1.148  11.100   7.566 -0.0648  0.0226 -0.3317
 1274ERGO   ROH17603  14.407   4.834   7.433  0.3095 -0.0039  0.0039
 1274ERGO    R117604  14.327   4.807   7.704  0.1284  0.1461 -0.0321
 1274ERGO    R217605  14.506   4.747   7.906 -0.0590 -0.0864  0.0675
 1274ERGO    R317606  14.402   4.971   8.019  0.2046  0.0819 -0.0155
 1274ERGO    R417607  14.504   4.814   8.245 -0.2775 -0.1267  0.0755
 1274ERGO    R517608  14.302   4.894   8.223 -0.1304  0.2201 -0.1180
 1274ERGO    C117609  14.406   5.063   8.549 -0.1573  0.0079  0.0022
 1274ERGO    C217610  14.296   5.145   8.813 -0.0442  0.0040 -0.2686
 1275ERGO   ROH17611   2.062  13.557   5.496 -0.0151 -0.0152 -0.0727
 1275ERGO    R117612   1.826  13.667   5.607 -0.0425 -0.1144 -0.0325
 1275ERGO    R217613   1.755  13.631   5.872  0.1318  0.0380  0.0360
 1275ERGO    R317614   1.743  13.902   5.872 -0.0836  0.0323 -0.1739
 1275ERGO    R417615   1.539  13.818   6.066  0.3590  0.0230  0.3107
 1275ERGO    R517616   1.510  13.951   5.896 -0.0870 -0.1406  0.2462
 1275ERGO    C117617   1.402  14.182   6.179  0.2891  0.0090  0.2734
 1275ERGO    C217618   1.447  14.345   6.374 -0.5894  0.0985 -0.0233
 1276ERGO   ROH17619  16.167   1.060   6.060 -0.0163  0.0553  0.0896
 1276ERGO    R117620  16.287   0.890   6.252 -0.0281  0.0879  0.1261
 1276ERGO    R217621  16.536   0.942   6.361 -0.0333  0.1041  0.1292
 1276ERGO    R317622  16.401   0.919   6.596 -0.0453  0.1479  0.1268
 1276ERGO    R417623  16.684   0.892   6.670 -0.0550  0.0669  0.1340
 1276ERGO    R517624  16.523   0.753   6.719 -0.0966  0.1147  0.1330
 1276ERGO    C117625  16.643   0.842   7.070 -0.0793  0.0863  0.1344
 1276ERGO    C217626  16.649   0.810   7.436 -0.1733  0.0925  0.0829
 1277ERGO   ROH17627   4.129  13.887   5.730 -0.2570  0.4399 -0.1135
 1277ERGO    R117628   4.074  14.062   5.945 -0.2325  0.3221 -0.0108
 1277ERGO    R217629   3.966  13.975   6.184 -0.0635  0.1668  0.0103
 1277ERGO    R317630   4.183  14.098   6.291 -0.0693  0.2316 -0.0513
 1277ERGO    R417631   3.978  14.115   6.499  0.1051 -0.1954  0.1709
 1277ERGO    R517632   4.093  14.281   6.416 -0.1183  0.0083  0.2531
 1277ERGO    C117633   4.190  14.313   6.783  0.1978 -0.3453  0.2065
 1277ERGO    C217634   4.285  14.101   7.037  0.2438  0.0444 -0.1978
 1278ERGO   ROH17635  15.156  18.917   5.144  0.1387 -0.2031 -0.1744
 1278ERGO    R117636  15.139  18.871   5.423 -0.1602 -0.1182 -0.1758
 1278ERGO    R217637  15.347  18.929   5.596 -0.1877 -0.4469 -0.0286
 1278ERGO    R317638  15.156  19.073   5.725 -0.0416 -0.0805 -0.2064
 1278ERGO    R417639  15.331  18.978   5.938 -0.2568 -0.1763 -0.0674
 1278ERGO    R517640  15.115  18.953   5.927 -0.2931  0.1186 -0.1313
 1278ERGO    C117641  15.142  19.141   6.258 -0.1601  0.3251 -0.2569
 1278ERGO    C217642  14.974  19.299   6.514 -0.2120  0.2483 -0.1284
 1279ERGO   ROH17643   8.491   6.662   5.969  0.1205  0.2036  0.0506
 1279ERGO    R117644   8.597   6.683   6.230  0.0692  0.0796  0.0818
 1279ERGO    R217645   8.440   6.658   6.456  0.0198  0.0069  0.0376
 1279ERGO    R317646   8.623   6.469   6.523 -0.0205 -0.0462 -0.0005
 1279ERGO    R417647   8.499   6.547   6.778  0.0505 -0.0059  0.0276
 1279ERGO    R517648   8.713   6.545   6.732  0.0437 -0.0676 -0.0176
 1279ERGO    C117649   8.706   6.304   7.028  0.0307 -0.0631 -0.0141
 1279ERGO    C217650   8.639   6.126   7.239 -0.0208  0.0879 -0.0215
 1280ERGO   ROH17651   9.820   0.229   5.612 -0.0625 -0.1160 -0.1624
 1280ERGO    R117652   9.794   0.434   5.806  0.0514 -0.2432 -0.0105
 1280ERGO    R217653   9.943   0.439   6.039  0.3367 -0.2896 -0.1905
 1280ERGO    R317654  10.009   0.688   5.953  0.0803 -0.1978 -0.1292
 1280ERGO    R417655  10.148   0.659   6.209  0.3050 -0.2159 -0.2468
 1280ERGO    R517656  10.014   0.821   6.152  0.1348 -0.2879 -0.0678
 1280ERGO    C117657  10.329   1.022   6.227  0.0459 -0.0868 -0.2221
 1280ERGO    C217658  10.571   1.165   6.354 -0.1298  0.0456  0.3538
 1281ERGO   ROH17659   4.549   1.937   5.606 -0.0275  0.2850 -0.0088
 1281ERGO    R117660   4.676   1.928   5.858 -0.0017  0.0311 -0.0269
 1281ERGO    R217661   4.601   2.091   6.068  0.3019  0.1330  0.0130
 1281ERGO    R317662   4.578   1.855   6.201 -0.0808  0.1430 -0.0263
 1281ERGO    R417663   4.662   2.049   6.406  0.1388 -0.0106  0.0251
 1281ERGO    R517664   4.759   1.859   6.359 -0.1228 -0.1447  0.0294
 1281ERGO    C117665   4.676   1.803   6.727 -0.3154 -0.0847 -0.0047
 1281ERGO    C217666   4.505   1.949   7.111 -0.2435 -0.0329 -0.0084
 1282ERGO   ROH17667   2.283   5.207   5.686 -0.0130  0.1572 -0.2035
 1282ERGO    R117668   2.321   5.198   5.966  0.0207  0.1601 -0.2078
 1282ERGO    R217669   2.110   5.181   6.144  0.0367  0.2467 -0.1780
 1282ERGO    R317670   2.246   4.964   6.236 -0.0289  0.2021 -0.1857
 1282ERGO    R417671   2.079   5.048   6.462 -0.0949  0.1617 -0.2253
 1282ERGO    R517672   2.295   5.017   6.464 -0.1029  0.1298 -0.1546
 1282ERGO    C117673   2.189   4.768   6.733 -0.2331  0.0702 -0.2601
 1282ERGO    C217674   2.052   4.661   7.043  0.1920 -0.0827  0.4139
 1283ERGO   ROH17675  19.424  11.290   6.210  0.1845  0.0999 -0.1346
 1283ERGO    R117676  19.494  11.310   6.484  0.1395  0.1755 -0.1274
 1283ERGO    R217677  19.501  11.090   6.652  0.0246  0.2331 -0.0411
 1283ERGO    R317678  19.755  11.176   6.700  0.0477  0.1560 -0.0288
 1283ERGO    R417679  19.663  11.068   6.957 -0.0070  0.2139 -0.0266
 1283ERGO    R517680  19.746  11.267   6.921  0.0598  0.1817 -0.0404
 1283ERGO    C117681  19.994  11.136   7.179 -0.0036  0.1303 -0.0066
 1283ERGO    C217682  20.204  10.976   7.311 -0.0369  0.0612  0.0908
 1284ERGO   ROH17683  13.952   6.268   5.724  0.0084 -0.0833 -0.0229
 1284ERGO    R117684  14.080   6.127   5.934 -0.0081  0.0192  0.0582
 1284ERGO    R217685  14.143   6.246   6.176 -0.1331  0.1076  0.0540
 1284ERGO    R317686  14.002   6.037   6.278 -0.0921  0.0818  0.0546
 1284ERGO    R417687  14.141   6.153   6.509 -0.1670  0.1436  0.0626
 1284ERGO    R517688  14.145   5.944   6.445 -0.0990  0.1407  0.0894
 1284ERGO    C117689  14.006   5.903   6.798 -0.1483  0.1402  0.0682
 1284ERGO    C217690  13.743   5.795   6.948 -0.0368 -0.0139 -0.1737
 1285ERGO   ROH17691  13.764   4.681   5.766 -0.1153  0.0165  0.0954
 1285ERGO    R117692  13.904   4.503   5.936  0.1659  0.0171 -0.1244
 1285ERGO    R217693  14.168   4.543   6.009  0.0832  0.4110  0.0169
 1285ERGO    R317694  14.068   4.522   6.261  0.0222 -0.1472 -0.0434
 1285ERGO    R417695  14.357   4.485   6.292  0.0529  0.1900 -0.0080
 1285ERGO    R517696  14.200   4.351   6.363  0.2105 -0.1414 -0.2825
 1285ERGO    C117697  14.373   4.431   6.694 -0.0220 -0.4626 -0.0792
 1285ERGO    C217698  14.615   4.417   6.941  0.0229  0.1029  0.1010
 1286ERGO   ROH17699  11.840   2.210   5.644 -0.0823  0.0334 -0.0368
 1286ERGO    R117700  12.039   2.212   5.846 -0.0737 -0.0421 -0.0442
 1286ERGO    R217701  11.979   2.253   6.112 -0.0385  0.0658 -0.0523
 1286ERGO    R317702  12.113   2.019   6.145 -0.1885 -0.0131  0.0034
 1286ERGO    R417703  12.137   2.156   6.404  0.0070  0.0898 -0.0688
 1286ERGO    R517704  12.301   2.077   6.283 -0.0944 -0.0800 -0.0963
 1286ERGO    C117705  12.355   1.879   6.605 -0.1074  0.0297 -0.0261
 1286ERGO    C217706  12.573   1.733   6.782 -0.0364 -0.1515 -0.1191
 1287ERGO   ROH17707  12.237  15.776   7.693 -0.0931 -0.0293  0.2256
 1287ERGO    R117708  12.034  15.936   7.577  0.0275  0.0109  0.0657
 1287ERGO    R217709  11.879  15.849   7.365  0.0160 -0.0513  0.0949
 1287ERGO    R317710  11.674  15.914   7.531  0.0234  0.1954  0.0098
 1287ERGO    R417711  11.595  16.022   7.271  0.0169 -0.1755 -0.1409
 1287ERGO    R517712  11.605  16.131   7.459  0.0258  0.0947 -0.2983
 1287ERGO    C117713  11.238  16.184   7.371  0.0244 -0.0163 -0.3580
 1287ERGO    C217714  10.995  16.099   7.118 -0.3491 -0.0665 -0.0288
 1288ERGO   ROH17715   0.525   9.799   6.443  0.0134  0.0244 -0.0419
 1288ERGO    R117716   0.298   9.748   6.605  0.0854 -0.0018  0.0530
 1288ERGO    R217717   0.318   9.659   6.865  0.2049  0.0368  0.0624
 1288ERGO    R317718   0.163   9.876   6.918  0.1824  0.0139  0.0868
 1288ERGO    R417719   0.161   9.722   7.167  0.0642 -0.0835  0.0150
 1288ERGO    R517720  -0.013   9.791   7.056  0.1193 -0.0372 -0.0309
 1288ERGO    C117721  -0.076   9.962   7.391 -0.0389 -0.1752  0.0105
 1288ERGO    C217722   0.006   9.928   7.701 -0.0523  0.0174  0.1206
 1289ERGO   ROH17723   2.427  18.733   6.069 -0.1016  0.0046 -0.0708
 1289ERGO    R117724   2.438  18.812   6.341 -0.1209 -0.0724 -0.0485
 1289ERGO    R217725   2.288  18.690   6.538  0.0392 -0.2795 -0.0597
 1289ERGO    R317726   2.530  18.658   6.658  0.0945 -0.0858 -0.1137
 1289ERGO    R417727   2.342  18.704   6.879  0.0980 -0.2072 -0.0711
 1289ERGO    R517728   2.527  18.814   6.839  0.0118 -0.0660 -0.1252
 1289ERGO    C117729   2.601  18.683   7.190  0.1841  0.0168 -0.1285
 1289ERGO    C217730   2.543  18.560   7.586  0.2049  0.0880  0.0932
 1290ERGO   ROH17731   3.130  13.053   5.689 -0.0311 -0.1265 -0.0619
 1290ERGO    R117732   3.181  13.062   5.967 -0.0521 -0.0181 -0.0612
 1290ERGO    R217733   3.318  12.862   6.100 -0.1197  0.0022  0.0386
 1290ERGO    R317734   3.475  13.068   6.182 -0.0685 -0.0060 -0.0383
 1290ERGO    R417735   3.495  12.870   6.397 -0.2177  0.1159  0.0947
 1290ERGO    R517736   3.440  13.080   6.418 -0.1458  0.1534 -0.0549
 1290ERGO    C117737   3.746  13.069   6.646 -0.2266  0.1743  0.0552
 1290ERGO    C217738   4.034  13.244   6.771  0.0475 -0.5941 -0.0875
 1291ERGO   ROH17739   8.205  18.535   5.325  0.0938  0.1309  0.1707
 1291ERGO    R117740   8.094  18.367   5.523 -0.0206 -0.0237 -0.0225
 1291ERGO    R217741   8.117  18.420   5.794  0.0222 -0.3524  0.0389
 1291ERGO    R317742   7.846  18.397   5.787  0.0042 -0.1581  0.0184
 1291ERGO    R417743   7.917  18.361   6.069 -0.0159 -0.4395 -0.0059
 1291ERGO    R517744   7.796  18.226   5.947 -0.1128 -0.2591 -0.1195
 1291ERGO    C117745   7.546  18.306   6.224 -0.0550 -0.3082 -0.0511
 1291ERGO    C217746   7.342  18.144   6.391 -0.1417  0.1082 -0.0845
 1292ERGO   ROH17747  11.379  10.297   5.792  0.0410 -0.0115  0.0026
 1292ERGO    R117748  11.286  10.385   6.045  0.0219  0.1803 -0.0688
 1292ERGO    R217749  11.273  10.218   6.265 -0.2754  0.2642 -0.0144
 1292ERGO    R317750  11.422  10.413   6.381 -0.1010  0.1318 -0.0155
 1292ERGO    R417751  11.279  10.287   6.604 -0.1594  0.2221 -0.0083
 1292ERGO    R517752  11.283  10.499   6.555  0.0008  0.2229  0.0185
 1292ERGO    C117753  11.423  10.510   6.910  0.0720  0.0735 -0.0056
 1292ERGO    C217754  11.462  10.379   7.213  0.1275  0.0123  0.0590
 1293ERGO   ROH17755  13.590   9.354   6.147  0.0913 -0.0870 -0.1131
 1293ERGO    R117756  13.551   9.229   6.398 -0.0165 -0.1633 -0.1670
 1293ERGO    R217757  13.640   8.974   6.453  0.2668 -0.0530 -0.1024
 1293ERGO    R317758  13.763   9.095   6.662 -0.1185  0.0919  0.0499
 1293ERGO    R417759  13.770   8.809   6.727  0.1647  0.0882  0.0331
 1293ERGO    R517760  13.692   8.969   6.854 -0.1816 -0.0113 -0.0382
 1293ERGO    C117761  13.961   8.826   7.084 -0.2563  0.3063  0.2551
 1293ERGO    C217762  14.072   8.514   7.102 -0.3124 -0.0137  0.1985
 1294ERGO   ROH17763  14.863  15.344   5.418  0.0663  0.0222 -0.1031
 1294ERGO    R117764  14.675  15.237   5.601  0.0156  0.1232 -0.0940
 1294ERGO    R217765  14.742  15.045   5.789 -0.0845  0.0621 -0.1111
 1294ERGO    R317766  14.635  15.225   5.962  0.0456  0.1207 -0.0927
 1294ERGO    R417767  14.677  14.985   6.123 -0.0255  0.1242 -0.0888
 1294ERGO    R517768  14.491  15.095   6.102  0.0256  0.2047 -0.0436
 1294ERGO    C117769  14.539  15.118   6.480  0.1311  0.2155 -0.0585
 1294ERGO    C217770  14.772  15.124   6.733 -0.0045 -0.5248  0.3079
 1295ERGO   ROH17771   3.030  11.868   6.027  0.0215 -0.3142  0.0983
 1295ERGO    R117772   3.198  11.941   6.243  0.1418 -0.2649 -0.0108
 1295ERGO    R217773   3.106  11.961   6.502  0.2255  0.0456 -0.0014
 1295ERGO    R317774   3.310  11.789   6.553  0.0922 -0.0867  0.0962
 1295ERGO    R417775   3.222  11.880   6.818  0.1752  0.1548  0.0457
 1295ERGO    R517776   3.425  11.887   6.740  0.1793 -0.0570  0.0287
 1295ERGO    C117777   3.481  11.671   7.049  0.0208  0.0943  0.1647
 1295ERGO    C217778   3.659  11.443   7.370  0.3766  0.1660  0.0614
 1296ERGO   ROH17779  11.569  11.489   6.392 -0.0144  0.1111 -0.1488
 1296ERGO    R117780  11.798  11.454   6.556 -0.0626  0.2816 -0.0429
 1296ERGO    R217781  11.806  11.538   6.821 -0.3182  0.1153  0.0212
 1296ERGO    R317782  11.876  11.280   6.865 -0.0256  0.1669 -0.1168
 1296ERGO    R417783  11.947  11.418   7.112 -0.5805  0.0482  0.1235
 1296ERGO    R517784  12.078  11.293   6.993 -0.2252  0.3363  0.1941
 1296ERGO    C117785  12.095  11.106   7.324 -0.4585  0.0576  0.0534
 1296ERGO    C217786  11.993  10.838   7.595  0.0949 -0.0324 -0.2597
 1297ERGO   ROH17787   0.574   3.979   5.619  0.1304 -0.0564  0.0320
 1297ERGO    R117788   0.383   3.935   5.824  0.0761 -0.0560 -0.0170
 1297ERGO    R217789   0.449   3.822   6.067  0.0348  0.0448  0.0464
 1297ERGO    R317790   0.334   4.047   6.166 -0.0751  0.0397 -0.0700
 1297ERGO    R417791   0.248   3.833   6.348 -0.0758  0.0763 -0.0345
 1297ERGO    R517792   0.119   3.974   6.244 -0.0798 -0.0002 -0.1278
 1297ERGO    C117793   0.023   4.050   6.605 -0.2433  0.0898 -0.1907
 1297ERGO    C217794   0.003   4.056   6.951  0.2288  0.0525  0.1270
 1298ERGO   ROH17795  11.810   3.843   5.710  0.2496  0.0365  0.0988
 1298ERGO    R117796  11.946   3.848   5.958  0.4292 -0.1359  0.0098
 1298ERGO    R217797  11.818   3.903   6.197  0.6879  0.2616  0.0824
 1298ERGO    R317798  11.929   3.667   6.273  0.2291  0.0418  0.0998
 1298ERGO    R417799  11.911   3.823   6.520  0.5098  0.0610  0.0847
 1298ERGO    R517800  12.089   3.728   6.440  0.3302 -0.2813  0.1122
 1298ERGO    C117801  12.069   3.555   6.780 -0.0244 -0.2621  0.1022
 1298ERGO    C217802  12.196   3.639   7.101  0.2258 -0.4454  0.0077
 1299ERGO   ROH17803   6.223   1.394   5.687  0.0255 -0.0949 -0.1103
 1299ERGO    R117804   6.053   1.303   5.894  0.0090 -0.0902 -0.1231
 1299ERGO    R217805   6.087   1.059   6.020  0.0594 -0.0402 -0.0485
 1299ERGO    R317806   6.088   1.212   6.245 -0.0423  0.0204 -0.0872
 1299ERGO    R417807   5.989   0.949   6.332  0.3620 -0.1104  0.0261
 1299ERGO    R517808   5.892   1.142   6.364  0.1041 -0.2301  0.0234
 1299ERGO    C117809   5.932   1.028   6.726  0.4428 -0.0944  0.0330
 1299ERGO    C217810   6.092   0.996   7.037 -0.0277 -0.1184 -0.0211
 1300ERGO   ROH17811   7.984  18.839   5.631  0.0836  0.0547 -0.0346
 1300ERGO    R117812   7.861  18.921   5.873  0.0218 -0.0196 -0.0405
 1300ERGO    R217813   7.713  18.749   6.031  0.0331 -0.0846 -0.0986
 1300ERGO    R317814   7.884  18.832   6.225 -0.0193 -0.0815 -0.0537
 1300ERGO    R417815   7.665  18.705   6.370 -0.0820 -0.0287 -0.1072
 1300ERGO    R517816   7.742  18.905   6.403 -0.0654 -0.0365 -0.1103
 1300ERGO    C117817   7.798  18.758   6.750 -0.1982  0.0070 -0.0701
 1300ERGO    C217818   7.920  18.642   7.049 -0.1474 -0.2457 -0.0582
 1301ERGO   ROH17819  12.133  16.871   5.301  0.1330  0.1156  0.2018
 1301ERGO    R117820  12.155  16.766   5.564  0.2298  0.0451  0.1659
 1301ERGO    R217821  12.372  16.818   5.726  0.1473  0.2559  0.2099
 1301ERGO    R317822  12.181  16.902   5.900  0.0196 -0.0454  0.2205
 1301ERGO    R417823  12.373  16.753   6.066  0.2970  0.2914  0.2174
 1301ERGO    R517824  12.158  16.720   6.055  0.3448 -0.0750  0.2441
 1301ERGO    C117825  12.193  16.794   6.427  0.2643  0.0294  0.2317
 1301ERGO    C217826  12.044  16.766   6.794 -0.0415 -0.1743  0.1131
 1302ERGO   ROH17827  19.328   9.648   6.178 -0.3436  0.0084  0.3135
 1302ERGO    R117828  19.335   9.542   6.440 -0.0925 -0.1505  0.2464
 1302ERGO    R217829  19.433   9.290   6.497  0.1296 -0.1138  0.0263
 1302ERGO    R317830  19.590   9.426   6.672  0.1476 -0.1109  0.0091
 1302ERGO    R417831  19.547   9.164   6.798  0.0965 -0.0901  0.0493
 1302ERGO    R517832  19.509   9.359   6.888  0.1257 -0.0656  0.0182
 1302ERGO    C117833  19.761   9.218   7.138  0.0942 -0.0736  0.0466
 1302ERGO    C217834  19.984   9.257   7.377 -0.0979 -0.3418  0.0828
 1303ERGO   ROH17835   9.253   1.686   5.360 -0.1245  0.0538 -0.0379
 1303ERGO    R117836   9.118   1.601   5.594  0.1789 -0.0261  0.1128
 1303ERGO    R217837   9.234   1.612   5.845  0.3057  0.4297  0.0444
 1303ERGO    R317838   9.009   1.752   5.906  0.0429  0.0275  0.0398
 1303ERGO    R417839   9.144   1.713   6.163  0.1372  0.3163  0.0342
 1303ERGO    R517840   8.938   1.662   6.116  0.2225 -0.0744  0.0577
 1303ERGO    C117841   8.881   1.904   6.405 -0.2077 -0.1272  0.0239
 1303ERGO    C217842   8.903   2.151   6.540  0.0525  0.2074 -0.0849
 1304ERGO   ROH17843  10.784   1.559   5.490 -0.0470  0.0794 -0.0110
 1304ERGO    R117844  10.604   1.356   5.571  0.0058  0.0196 -0.0404
 1304ERGO    R217845  10.659   1.087   5.539  0.0252  0.0366 -0.1896
 1304ERGO    R317846  10.608   1.079   5.806  0.1276 -0.0921 -0.1740
 1304ERGO    R417847  10.652   0.799   5.730  0.2287 -0.0387 -0.2934
 1304ERGO    R517848  10.479   0.879   5.835  0.2327 -0.1614 -0.1994
 1304ERGO    C117849  10.599   0.623   6.091  0.4435 -0.2033 -0.3391
 1304ERGO    C217850  10.766   0.436   6.309 -0.2337  0.1249 -0.0195
 1305ERGO   ROH17851   7.575  10.696   5.459  0.1314  0.0580 -0.0319
 1305ERGO    R117852   7.570  10.508   5.671  0.0587  0.0625 -0.0288
 1305ERGO    R217853   7.690  10.556   5.915  0.1851 -0.0301 -0.0697
 1305ERGO    R317854   7.443  10.498   6.012  0.1713  0.1672  0.0162
 1305ERGO    R417855   7.628  10.360   6.193  0.1189 -0.1448 -0.1647
 1305ERGO    R517856   7.460  10.271   6.086 -0.0297  0.0995 -0.1390
 1305ERGO    C117857   7.360  10.192   6.446  0.0674 -0.0264 -0.1394
 1305ERGO    C217858   7.377   9.893   6.775  0.2212  0.0139  0.0738
 1306ERGO   ROH17859  16.830  19.298   5.244  0.1090 -0.4442  0.0271
 1306ERGO    R117860  16.808  19.129   5.470 -0.0626 -0.3412  0.0909
 1306ERGO    R217861  16.971  19.154   5.691 -0.0046 -0.4513  0.0687
 1306ERGO    R317862  16.735  19.169   5.824  0.0221 -0.1254  0.0836
 1306ERGO    R417863  16.936  19.137   6.034 -0.0039 -0.2215  0.0805
 1306ERGO    R517864  16.758  19.015   6.005 -0.1335 -0.0463  0.1664
 1306ERGO    C117865  16.693  19.142   6.359  0.0213  0.2180  0.1012
 1306ERGO    C217866  16.739  19.211   6.664  0.1111  0.1340  0.0952
 1307ERGO   ROH17867   7.831   4.152   5.642  0.0711  0.2789  0.2118
 1307ERGO    R117868   7.950   3.979   5.830  0.0260  0.1990  0.1676
 1307ERGO    R217869   8.196   3.859   5.788 -0.0813  0.0060  0.0669
 1307ERGO    R317870   8.256   3.973   6.028  0.1118 -0.0240  0.0281
 1307ERGO    R417871   8.407   3.722   6.026 -0.1921 -0.2042  0.0445
 1307ERGO    R517872   8.269   3.789   6.180 -0.0740 -0.0083  0.0583
 1307ERGO    C117873   8.585   3.750   6.389 -0.0753 -0.3547 -0.0049
 1307ERGO    C217874   8.817   3.760   6.593 -0.0379 -0.0095 -0.1827
 1308ERGO   ROH17875   5.750   3.043   5.457  0.1844 -0.1673  0.1303
 1308ERGO    R117876   5.591   3.039   5.691  0.0898  0.0097  0.0704
 1308ERGO    R217877   5.630   2.855   5.893 -0.1522  0.0048  0.1098
 1308ERGO    R317878   5.646   3.077   6.049 -0.0140  0.0132  0.0873
 1308ERGO    R417879   5.670   2.852   6.237 -0.0822  0.0114  0.1027
 1308ERGO    R517880   5.528   3.018   6.249 -0.0040  0.0834  0.1179
 1308ERGO    C117881   5.708   3.060   6.583  0.0883  0.0232  0.0775
 1308ERGO    C217882   5.833   2.825   6.970  0.3490  0.0829  0.2163
 1309ERGO   ROH17883  17.226  11.686   5.788  0.1726  0.0124 -0.1765
 1309ERGO    R117884  17.223  11.465   5.966  0.1004 -0.0455 -0.2488
 1309ERGO    R217885  17.109  11.477   6.216  0.3045 -0.0186 -0.1539
 1309ERGO    R317886  16.971  11.260   6.129  0.0283  0.1405 -0.1241
 1309ERGO    R417887  16.808  11.369   6.347  0.3366  0.1780  0.0895
 1309ERGO    R517888  16.879  11.164   6.328  0.1416  0.1247 -0.0806
 1309ERGO    C117889  16.503  11.102   6.341  0.0958  0.4419  0.2592
 1309ERGO    C217890  16.164  11.108   6.215 -0.3536  0.1018  0.0001
 1310ERGO   ROH17891   1.416   1.915   5.584 -0.0636 -0.0408 -0.0614
 1310ERGO    R117892   1.225   1.973   5.784  0.0004 -0.2113  0.0515
 1310ERGO    R217893   0.954   1.946   5.743 -0.0247  0.0455  0.0344
 1310ERGO    R317894   0.968   1.790   5.965 -0.1096 -0.3120 -0.2012
 1310ERGO    R417895   0.680   1.833   5.921 -0.0844  0.1617  0.0177
 1310ERGO    R517896   0.791   1.872   6.105  0.0820 -0.2666  0.0215
 1310ERGO    C117897   0.534   1.621   6.234 -0.1988 -0.1062 -0.2133
 1310ERGO    C217898   0.421   1.366   6.506 -0.1521  0.3378  0.0439
 1311ERGO   ROH17899  18.559  15.648   5.413  0.0664  0.2010  0.0594
 1311ERGO    R117900  18.651  15.840   5.599  0.0571  0.1799  0.0863
 1311ERGO    R217901  18.592  15.826   5.869 -0.0784  0.2277  0.0622
 1311ERGO    R317902  18.862  15.841   5.896 -0.0838  0.1162  0.1873
 1311ERGO    R417903  18.756  15.905   6.162 -0.1831  0.3155  0.0978
 1311ERGO    R517904  18.896  16.025   6.046 -0.0701  0.1835  0.0993
 1311ERGO    C117905  19.106  15.965   6.359 -0.2491  0.2620  0.2360
 1311ERGO    C217906  19.452  15.935   6.456  0.1812  0.1558  0.0916
 1312ERGO   ROH17907  15.940  19.342   5.586  0.0608 -0.3637 -0.2745
 1312ERGO    R117908  15.797  19.211   5.792  0.0757 -0.1864 -0.1497
 1312ERGO    R217909  15.884  19.208   6.055  0.1269 -0.0114 -0.1626
 1312ERGO    R317910  15.636  19.308   6.104  0.1555  0.0731 -0.1865
 1312ERGO    R417911  15.752  19.261   6.369  0.1104  0.0324 -0.1764
 1312ERGO    R517912  15.560  19.186   6.296  0.0930  0.0985 -0.1957
 1312ERGO    C117913  15.442  19.385   6.599  0.1276  0.1373 -0.2069
 1312ERGO    C217914  15.271  19.460   6.951  0.1845  0.1074  0.0425
 1313ERGO   ROH17915  10.028  19.134   5.274  0.0959 -0.2938  0.0293
 1313ERGO    R117916   9.863  19.104   5.502  0.0574 -0.2494  0.0084
 1313ERGO    R217917   9.883  18.888   5.674  0.0092 -0.2345  0.0410
 1313ERGO    R317918   9.911  19.082   5.862  0.0037 -0.2110  0.0165
 1313ERGO    R417919   9.798  18.855   6.007  0.0583 -0.2006  0.0566
 1313ERGO    R517920   9.719  19.058   6.003  0.0305 -0.2181  0.0444
 1313ERGO    C117921   9.774  19.017   6.378  0.0818 -0.1589  0.0426
 1313ERGO    C217922   9.894  18.745   6.655 -0.3267 -0.2006 -0.0339
 1314ERGO   ROH17923  15.091   1.622   5.386  0.1951  0.0488 -0.0594
 1314ERGO    R117924  15.043   1.460   5.613  0.1648 -0.1965 -0.2347
 1314ERGO    R217925  15.120   1.195   5.627  0.4861 -0.1206 -0.3740
 1314ERGO    R317926  15.245   1.276   5.854  0.1578 -0.1347 -0.1843
 1314ERGO    R417927  15.210   0.987   5.888  0.3088 -0.1624 -0.3459
 1314ERGO    R517928  15.147   1.143   6.027  0.0396 -0.2670 -0.3570
 1314ERGO    C117929  15.379   0.943   6.254 -0.1025 -0.2000 -0.1515
 1314ERGO    C217930  15.386   0.631   6.483 -0.0686 -0.1583 -0.3596
 1315ERGO   ROH17931   2.312  10.459   6.205 -0.0807  0.0048 -0.1227
 1315ERGO    R117932   2.273  10.510   6.481 -0.1310 -0.0575 -0.1178
 1315ERGO    R217933   2.054  10.416   6.621 -0.1569 -0.0893 -0.1784
 1315ERGO    R317934   2.244  10.312   6.785 -0.1865 -0.1264 -0.1678
 1315ERGO    R417935   1.994  10.290   6.937 -0.1709  0.0951 -0.1062
 1315ERGO    R517936   2.178  10.384   7.004 -0.1003  0.0164 -0.1877
 1315ERGO    C117937   2.137  10.119   7.275 -0.2069  0.1678 -0.0542
 1315ERGO    C217938   2.114  10.013   7.605  0.0087  0.0587 -0.1232
 1316ERGO   ROH17939  15.214  17.873   5.318  0.0988 -0.2404 -0.0755
 1316ERGO    R117940  15.244  17.981   5.578  0.0842 -0.2129 -0.0849
 1316ERGO    R217941  15.036  17.990   5.760  0.0463 -0.1049 -0.1296
 1316ERGO    R317942  15.214  17.860   5.920 -0.0375 -0.1515 -0.0739
 1316ERGO    R417943  15.004  17.952   6.102 -0.0741 -0.1127 -0.1414
 1316ERGO    R517944  15.218  17.989   6.122 -0.0744 -0.1628 -0.0679
 1316ERGO    C117945  15.152  17.808   6.451 -0.2228 -0.1608 -0.0961
 1316ERGO    C217946  15.018  17.696   6.739  0.1563 -0.2028  0.2809
 1317ERGO   ROH17947   5.542  16.041   5.211  0.2088  0.1925  0.0061
 1317ERGO    R117948   5.412  16.241   5.364  0.1047  0.0922  0.0515
 1317ERGO    R217949   5.192  16.187   5.523  0.0790 -0.0416 -0.0206
 1317ERGO    R317950   5.345  16.302   5.717 -0.0019 -0.0679  0.0583
 1317ERGO    R417951   5.080  16.272   5.839 -0.0768  0.0337 -0.0954
 1317ERGO    R517952   5.197  16.455   5.826 -0.0133 -0.0093 -0.0462
 1317ERGO    C117953   5.158  16.429   6.205 -0.2434  0.0525 -0.0649
 1317ERGO    C217954   5.166  16.461   6.569  0.1150 -0.1857  0.0751
 1318ERGO   ROH17955   8.623  12.344   5.689  0.0191  0.1577  0.0212
 1318ERGO    R117956   8.642  12.277   5.963  0.0071  0.1130  0.0104
 1318ERGO    R217957   8.883  12.225   6.087 -0.0040  0.0638  0.0034
 1318ERGO    R317958   8.800  12.417   6.260  0.0204  0.0457  0.0367
 1318ERGO    R417959   9.002  12.266   6.409  0.1184  0.0840 -0.0434
 1318ERGO    R517960   8.798  12.309   6.473  0.1298  0.0393  0.0383
 1318ERGO    C117961   8.993  12.471   6.758  0.2126  0.0786 -0.0394
 1318ERGO    C217962   9.057  12.572   7.067  0.0313 -0.0381 -0.0547
 1319ERGO   ROH17963   8.271  16.318   5.430 -0.0232 -0.0736  0.0341
 1319ERGO    R117964   8.348  16.588   5.472  0.0944 -0.1067  0.0289
 1319ERGO    R217965   8.214  16.756   5.645  0.0766 -0.0037 -0.0873
 1319ERGO    R317966   8.462  16.790   5.752  0.0302 -0.1120  0.0598
 1319ERGO    R417967   8.290  16.975   5.902  0.0480  0.0857 -0.1539
 1319ERGO    R517968   8.475  17.025   5.798  0.1542 -0.0933 -0.0597
 1319ERGO    C117969   8.567  17.134   6.151 -0.0123  0.0359 -0.0545
 1319ERGO    C217970   8.562  17.292   6.485  0.0681  0.1786 -0.0618
 1320ERGO   ROH17971   6.065   1.689   5.371  0.2669 -0.0047  0.1294
 1320ERGO    R117972   5.925   1.849   5.559  0.2170 -0.0704  0.1479
 1320ERGO    R217973   5.970   1.832   5.831  0.3024 -0.0098  0.1362
 1320ERGO    R317974   6.010   2.099   5.808  0.1261  0.0152  0.0945
 1320ERGO    R417975   6.039   2.045   6.094  0.2135  0.0666  0.0988
 1320ERGO    R517976   5.908   2.193   6.003  0.0999 -0.0274  0.1029
 1320ERGO    C117977   6.118   2.420   6.226 -0.0038  0.1345  0.0378
 1320ERGO    C217978   6.052   2.536   6.485 -0.0513 -0.1437 -0.1724
 1321ERGO   ROH17979   1.980  14.322   5.879  0.0804 -0.1320 -0.1529
 1321ERGO    R117980   1.923  14.321   6.157  0.0293 -0.0571 -0.1625
 1321ERGO    R217981   2.049  14.149   6.333  0.0025 -0.0052 -0.0916
 1321ERGO    R317982   2.108  14.380   6.464 -0.0289  0.0334 -0.1447
 1321ERGO    R417983   2.056  14.185   6.677 -0.0454  0.0881 -0.0999
 1321ERGO    R517984   1.962  14.379   6.654 -0.0537  0.0760 -0.1643
 1321ERGO    C117985   2.116  14.422   7.000 -0.1028  0.1787 -0.1547
 1321ERGO    C217986   2.413  14.613   7.224  0.1499  0.1528  0.2577
 1322ERGO   ROH17987   8.181  17.260   5.572 -0.2039  0.1050  0.0247
 1322ERGO    R117988   8.115  17.394   5.812 -0.0174  0.1154  0.0741
 1322ERGO    R217989   7.964  17.276   6.011 -0.1096  0.2188  0.0788
 1322ERGO    R317990   8.175  17.344   6.168  0.0029 -0.0465  0.0462
 1322ERGO    R417991   7.943  17.353   6.348  0.0109  0.5053  0.0221
 1322ERGO    R517992   8.088  17.513   6.315  0.3008  0.2188 -0.0813
 1322ERGO    C117993   8.130  17.462   6.690  0.1866  0.4231 -0.0415
 1322ERGO    C217994   8.101  17.218   6.949 -0.1815  0.0645 -0.2337
 1323ERGO   ROH17995   6.135  17.474   5.224 -0.0135  0.0731  0.0961
 1323ERGO    R117996   5.884  17.426   5.346 -0.0627  0.1040  0.0088
 1323ERGO    R217997   5.860  17.320   5.600 -0.1657  0.0097 -0.0374
 1323ERGO    R317998   5.708  17.541   5.643 -0.1053  0.0426  0.0067
 1323ERGO    R417999   5.599  17.339   5.825 -0.0812  0.0795  0.0555
 1323ERGO    R518000   5.487  17.455   5.678 -0.1096  0.0930  0.0917
 1323ERGO    C118001   5.304  17.558   5.997  0.0247  0.1510  0.1509
 1323ERGO    C218002   5.308  17.471   6.341  0.2757 -0.0220  0.2245
 1324ERGO   ROH18003  16.421  19.502   5.654  0.0124  0.1811  0.0152
 1324ERGO    R118004  16.265  19.449   5.884  0.0187  0.1168  0.0044
 1324ERGO    R218005  16.376  19.384   6.129  0.0256  0.0807 -0.0105
 1324ERGO    R318006  16.226  19.592   6.217  0.0009  0.0447  0.0343
 1324ERGO    R418007  16.296  19.444   6.459  0.1414  0.0775  0.0189
 1324ERGO    R518008  16.095  19.501   6.395  0.0975  0.0172  0.0935
 1324ERGO    C118009  16.107  19.675   6.734  0.1858  0.0422  0.0782
 1324ERGO    C218010  16.189  19.967   6.941 -0.0464  0.0796 -0.0939
 1325ERGO   ROH18011  13.286  18.708   5.893 -0.1946 -0.3330  0.0529
 1325ERGO    R118012  13.098  18.889   6.003 -0.0575 -0.1770  0.0337
 1325ERGO    R218013  12.909  18.811   6.190 -0.1322 -0.0196  0.0189
 1325ERGO    R318014  13.016  19.016   6.334  0.0182 -0.0986  0.0240
 1325ERGO    R418015  12.727  19.030   6.387  0.0208  0.0993  0.0316
 1325ERGO    R518016  12.854  19.192   6.315  0.1364  0.0167  0.0324
 1325ERGO    C118017  12.721  19.349   6.637  0.2511  0.0944  0.0437
 1325ERGO    C218018  12.461  19.527   6.794  0.0348 -0.0201  0.0915
 1326ERGO   ROH18019   6.900   6.889   7.332  0.1063  0.0570 -0.0100
 1326ERGO    R118020   6.689   6.799   7.498  0.1026  0.1174  0.0178
 1326ERGO    R218021   6.704   6.564   7.643 -0.0023  0.0380 -0.0999
 1326ERGO    R318022   6.643   6.727   7.852  0.1753 -0.0208  0.0002
 1326ERGO    R418023   6.524   6.468   7.922  0.0129  0.0263 -0.0938
 1326ERGO    R518024   6.422   6.661   7.916  0.1463  0.1034  0.0323
 1326ERGO    C118025   6.362   6.565   8.281  0.1884 -0.0356  0.0038
 1326ERGO    C218026   6.319   6.240   8.450  0.1693  0.0645  0.1996
 1327ERGO   ROH18027  16.804  16.144   5.790 -0.1250  0.0645  0.0244
 1327ERGO    R118028  16.692  16.318   5.984 -0.1929  0.0202  0.0264
 1327ERGO    R218029  16.557  16.224   6.206 -0.0132 -0.0414  0.1190
 1327ERGO    R318030  16.736  16.379   6.340 -0.0835  0.1546 -0.0111
 1327ERGO    R418031  16.511  16.349   6.525  0.1144 -0.1327  0.1731
 1327ERGO    R518032  16.601  16.536   6.460 -0.1639 -0.0201  0.1218
 1327ERGO    C118033  16.652  16.567   6.837  0.1227 -0.0015  0.0824
 1327ERGO    C218034  16.762  16.571   7.124  0.1922 -0.2908  0.2590
 1328ERGO   ROH18035  12.523  18.539   5.567 -0.1441  0.1563  0.0594
 1328ERGO    R118036  12.681  18.376   5.736 -0.3930 -0.0257  0.1215
 1328ERGO    R218037  12.938  18.445   5.811 -0.1202 -0.5813 -0.2421
 1328ERGO    R318038  12.839  18.410   6.062  0.0282  0.0294 -0.0813
 1328ERGO    R418039  13.107  18.291   6.071 -0.1900 -0.5081 -0.1524
 1328ERGO    R518040  12.920  18.194   6.129 -0.3482 -0.0426  0.1860
 1328ERGO    C118041  13.113  18.169   6.457 -0.0914  0.1076  0.0507
 1328ERGO    C218042  13.307  18.236   6.772 -0.0650 -0.1578  0.2639
 1329ERGO   ROH18043   9.769   6.165   5.876  0.1461  0.1269  0.0731
 1329ERGO    R118044   9.622   6.112   6.112 -0.0841  0.2868 -0.0317
 1329ERGO    R218045   9.743   6.066   6.357 -0.2864 -0.1915 -0.0138
 1329ERGO    R318046   9.580   6.268   6.438  0.1455  0.1392  0.0721
 1329ERGO    R418047   9.652   6.128   6.684 -0.1298 -0.1214  0.0181
 1329ERGO    R518048   9.451   6.173   6.615 -0.0514  0.3404  0.0451
 1329ERGO    C118049   9.446   6.353   6.951  0.3668  0.2299  0.1175
 1329ERGO    C218050   9.532   6.486   7.267 -0.4018 -0.0148 -0.0368
 1330ERGO   ROH18051  13.761   1.926   5.651  0.0762 -0.0469 -0.0110
 1330ERGO    R118052  13.785   1.902   5.932 -0.1204  0.0072  0.0127
 1330ERGO    R218053  13.590   1.785   6.088 -0.1177 -0.2053 -0.1308
 1330ERGO    R318054  13.796   1.630   6.174 -0.0029  0.0387  0.0413
 1330ERGO    R418055  13.566   1.540   6.331 -0.1131 -0.4757 -0.3973
 1330ERGO    R518056  13.759   1.606   6.409 -0.3320 -0.2408 -0.0357
 1330ERGO    C118057  13.746   1.253   6.553 -0.0025 -0.4041 -0.3911
 1330ERGO    C218058  14.062   1.157   6.924  0.0966 -0.0847  0.2723
 1331ERGO   ROH18059   6.286  10.816   5.650 -0.0480  0.2239 -0.0863
 1331ERGO    R118060   6.450  10.767   5.875 -0.0980  0.5306  0.0226
 1331ERGO    R218061   6.395  10.871   6.125 -0.5964  0.2443  0.0449
 1331ERGO    R318062   6.412  10.610   6.201  0.0358  0.2256 -0.1045
 1331ERGO    R418063   6.405  10.761   6.453 -0.5296  0.0731 -0.0134
 1331ERGO    R518064   6.555  10.614   6.394 -0.0926  0.4896 -0.0090
 1331ERGO    C118065   6.427  10.453   6.715  0.1028 -0.0441 -0.1876
 1331ERGO    C218066   6.416  10.126   6.827 -0.1467 -0.1923  0.0055
 1332ERGO   ROH18067   3.107   8.570   5.725  0.2920 -0.2779  0.0577
 1332ERGO    R118068   3.095   8.495   5.998  0.1767 -0.1875  0.0785
 1332ERGO    R218069   3.205   8.648   6.199  0.2556 -0.2122  0.0543
 1332ERGO    R318070   2.955   8.632   6.304  0.2197  0.0152  0.0092
 1332ERGO    R418071   3.130   8.677   6.535  0.2370 -0.2648  0.0547
 1332ERGO    R518072   2.985   8.516   6.512  0.0646 -0.1014 -0.0316
 1332ERGO    C118073   2.852   8.679   6.830  0.1924 -0.0820  0.0127
 1332ERGO    C218074   2.743   8.564   7.119 -0.2184 -0.1126 -0.0153
 1333ERGO   ROH18075   5.697   4.132   5.580 -0.0003 -0.1136 -0.0781
 1333ERGO    R118076   5.673   3.994   5.826 -0.1481 -0.0568 -0.0593
 1333ERGO    R218077   5.869   4.002   6.020 -0.1655 -0.1912 -0.0354
 1333ERGO    R318078   5.664   4.083   6.179 -0.1199  0.0063 -0.0741
 1333ERGO    R418079   5.875   4.001   6.366 -0.1703 -0.0366 -0.0341
 1333ERGO    R518080   5.669   3.930   6.364 -0.2142  0.0867 -0.0037
 1333ERGO    C118081   5.686   4.076   6.716 -0.1303  0.2388 -0.0698
 1333ERGO    C218082   5.836   4.097   7.050 -0.1207  0.1657  0.0244
 1334ERGO   ROH18083   7.436  14.658   5.705  0.0437  0.0048  0.0847
 1334ERGO    R118084   7.439  14.761   5.968  0.0141  0.0626  0.0645
 1334ERGO    R218085   7.341  14.619   6.185 -0.1596  0.1704  0.0686
 1334ERGO    R318086   7.588  14.667   6.287 -0.1616  0.0314  0.1362
 1334ERGO    R418087   7.418  14.621   6.521 -0.2278  0.0852  0.0839
 1334ERGO    R518088   7.547  14.793   6.486 -0.1368  0.0198  0.1413
 1334ERGO    C118089   7.696  14.667   6.813 -0.2694 -0.0950  0.1563
 1334ERGO    C218090   7.864  14.547   7.076  0.0382 -0.0985  0.0239
 1335ERGO   ROH18091  18.879  12.070   5.532 -0.1887  0.1891  0.0362
 1335ERGO    R118092  19.051  12.102   5.754 -0.1308  0.3376 -0.0266
 1335ERGO    R218093  19.027  12.311   5.933 -0.3225  0.2587  0.0543
 1335ERGO    R318094  19.017  12.111   6.116  0.0041  0.1779 -0.0110
 1335ERGO    R418095  19.082  12.350   6.272 -0.2330  0.1899  0.0470
 1335ERGO    R518096  19.192  12.162   6.271 -0.0009  0.3323 -0.0648
 1335ERGO    C118097  19.104  12.184   6.641  0.1259  0.0739 -0.0186
 1335ERGO    C218098  18.762  12.056   6.794  0.1108 -0.0231 -0.0343
 1336ERGO   ROH18099   2.152   8.303   5.866  0.1017 -0.0683 -0.0534
 1336ERGO    R118100   2.034   8.153   6.075  0.1214 -0.0991 -0.0637
 1336ERGO    R218101   2.115   8.176   6.338  0.0910 -0.0763 -0.0535
 1336ERGO    R318102   1.851   8.226   6.381  0.0738 -0.1445 -0.0823
 1336ERGO    R418103   1.964   8.187   6.649  0.0854  0.0655 -0.0609
 1336ERGO    R518104   1.792   8.082   6.564  0.1245 -0.0487  0.0069
 1336ERGO    C118105   1.628   8.240   6.870  0.0659  0.0840 -0.0922
 1336ERGO    C218106   1.533   8.047   7.119  0.2874 -0.0095 -0.0136
 1337ERGO   ROH18107   4.162  12.455   5.750  0.0412 -0.0889 -0.0242
 1337ERGO    R118108   4.246  12.476   6.019 -0.0411 -0.0265 -0.0037
 1337ERGO    R218109   4.233  12.263   6.196 -0.0290 -0.0044  0.0207
 1337ERGO    R318110   4.497  12.319   6.231 -0.0541  0.0772  0.0904
 1337ERGO    R418111   4.395  12.267   6.501 -0.0531 -0.2145  0.0382
 1337ERGO    R518112   4.505  12.443   6.435 -0.1230 -0.1049  0.2073
 1337ERGO    C118113   4.737  12.321   6.711 -0.0907 -0.2603  0.1139
 1337ERGO    C218114   4.759  12.254   7.103  0.3260  0.0550  0.3507
 1338ERGO   ROH18115  11.271  14.221   5.660  0.0354 -0.0879 -0.1724
 1338ERGO    R118116  11.423  14.300   5.886  0.0062 -0.2419 -0.0984
 1338ERGO    R218117  11.659  14.175   5.957  0.1151 -0.1433 -0.2911
 1338ERGO    R318118  11.759  14.427   5.947 -0.0842 -0.0464  0.0058
 1338ERGO    R418119  11.958  14.273   6.098  0.0650 -0.0907 -0.2195
 1338ERGO    R518120  11.861  14.458   6.161 -0.0721 -0.2383  0.0329
 1338ERGO    C118121  12.227  14.568   6.171 -0.1515  0.0309  0.1010
 1338ERGO    C218122  12.411  14.739   6.352 -0.0196 -0.3144  0.2041
 1339ERGO   ROH18123   5.332   7.892   5.951  0.0728 -0.0604 -0.1471
 1339ERGO    R118124   5.434   7.926   6.212 -0.0459  0.0078 -0.1098
 1339ERGO    R218125   5.372   7.755   6.420 -0.0056 -0.0341 -0.1372
 1339ERGO    R318126   5.642   7.735   6.442  0.0017  0.1486 -0.0330
 1339ERGO    R418127   5.538   7.610   6.686 -0.0345 -0.3357 -0.2790
 1339ERGO    R518128   5.685   7.770   6.675 -0.1522 -0.1909  0.0555
 1339ERGO    C118129   5.889   7.507   6.862 -0.0444 -0.3399 -0.2639
 1339ERGO    C218130   6.187   7.421   6.973 -0.3813 -0.3070 -0.1489
 1340ERGO   ROH18131   9.573  11.572   5.746 -0.2781 -0.0739 -0.0490
 1340ERGO    R118132   9.451  11.436   5.963 -0.2042 -0.1510 -0.0563
 1340ERGO    R218133   9.477  11.163   6.001  0.0395 -0.1200 -0.0066
 1340ERGO    R318134   9.564  11.239   6.247 -0.0899 -0.0021  0.0043
 1340ERGO    R418135   9.425  10.985   6.293  0.2699 -0.2160 -0.0208
 1340ERGO    R518136   9.388  11.173   6.395 -0.0146 -0.2679 -0.0144
 1340ERGO    C118137   9.476  10.953   6.694  0.2827 -0.1609 -0.0189
 1340ERGO    C218138   9.468  10.835   7.028 -0.0009 -0.1580  0.0620
 1341ERGO   ROH18139  10.059   8.122   5.762 -0.0363 -0.1221 -0.1241
 1341ERGO    R118140  10.231   7.909   5.833  0.1340  0.0083 -0.1371
 1341ERGO    R218141  10.494   7.949   5.908  0.0638  0.2276  0.0134
 1341ERGO    R318142  10.419   7.808   6.128  0.0830  0.0555 -0.0891
 1341ERGO    R418143  10.703   7.866   6.171  0.0993 -0.0342 -0.0950
 1341ERGO    R518144  10.608   7.670   6.178  0.0659 -0.0223 -0.2412
 1341ERGO    C118145  10.755   7.686   6.530  0.1381 -0.3481 -0.2544
 1341ERGO    C218146  10.999   7.614   6.684 -0.3080  0.2045 -0.1886
 1342ERGO   ROH18147   4.294   0.472   5.671  0.0303  0.1404  0.0604
 1342ERGO    R118148   4.181   0.386   5.915 -0.0641  0.1425  0.0179
 1342ERGO    R218149   4.250   0.147   6.035 -0.1067  0.1460  0.0493
 1342ERGO    R318150   4.301   0.306   6.249 -0.1936  0.1503  0.0673
 1342ERGO    R418151   4.344   0.032   6.347  0.0076  0.1618  0.0209
 1342ERGO    R518152   4.214   0.184   6.436 -0.0890  0.0596  0.0585
 1342ERGO    C118153   4.447   0.115   6.730 -0.0075  0.1751  0.0213
 1342ERGO    C218154   4.714   0.093   6.979 -0.0117  0.2036 -0.0661
 1343ERGO   ROH18155  10.684  17.718   5.700  0.0372  0.0602 -0.0322
 1343ERGO    R118156  10.492  17.722   5.908 -0.0455  0.3513 -0.1104
 1343ERGO    R218157  10.506  17.553   6.127 -0.4791  0.2064 -0.1867
 1343ERGO    R318158  10.491  17.786   6.266 -0.0562  0.1761 -0.0781
 1343ERGO    R418159  10.371  17.587   6.443 -0.2875  0.2866 -0.1115
 1343ERGO    R518160  10.282  17.775   6.380 -0.0268  0.4558  0.0093
 1343ERGO    C118161  10.279  17.826   6.758  0.2210  0.3050  0.0342
 1343ERGO    C218162   9.993  17.915   6.996 -0.0111  0.2534  0.3971
 1344ERGO   ROH18163   4.371   6.896   5.687 -0.4686 -0.1199  0.1025
 1344ERGO    R118164   4.370   6.922   5.969 -0.4110 -0.1880  0.1072
 1344ERGO    R218165   4.381   6.704   6.138  0.0612 -0.2094  0.0477
 1344ERGO    R318166   4.594   6.837   6.242 -0.1424  0.1656  0.0085
 1344ERGO    R418167   4.540   6.622   6.434  0.2762  0.0289  0.0034
 1344ERGO    R518168   4.556   6.834   6.479 -0.0915  0.0683  0.0230
 1344ERGO    C118169   4.833   6.699   6.704  0.2104  0.5197 -0.0592
 1344ERGO    C218170   5.038   6.520   6.971 -0.3573  0.1015  0.2990
 1345ERGO   ROH18171  18.514   6.983   5.687  0.1688  0.0452  0.0655
 1345ERGO    R118172  18.715   6.977   5.887  0.1060  0.0740  0.1301
 1345ERGO    R218173  18.721   7.156   6.097  0.0343  0.0987  0.1127
 1345ERGO    R318174  18.727   6.930   6.247 -0.0074  0.1155  0.1395
 1345ERGO    R418175  18.742   7.149   6.442  0.0866  0.1332  0.1104
 1345ERGO    R518176  18.879   6.981   6.425  0.0346  0.0921  0.1092
 1345ERGO    C118177  18.759   6.932   6.784  0.0778  0.1690  0.1342
 1345ERGO    C218178  18.629   6.835   7.141  0.0261 -0.1266  0.0322
 1346ERGO   ROH18179  15.930  11.820   6.088  0.0518 -0.0304  0.0472
 1346ERGO    R118180  15.773  11.659   6.260  0.0049 -0.0235  0.0106
 1346ERGO    R218181  15.697  11.402   6.194  0.0375 -0.0296  0.0067
 1346ERGO    R318182  15.812  11.341   6.432 -0.0366 -0.0085  0.0490
 1346ERGO    R418183  15.681  11.093   6.347 -0.2250  0.0512  0.1489
 1346ERGO    R518184  15.655  11.194   6.538 -0.1674  0.1633  0.1007
 1346ERGO    C118185  15.780  10.855   6.660 -0.4475  0.1179  0.2716
 1346ERGO    C218186  15.725  10.499   6.713 -0.0790  0.0423  0.1010
 1347ERGO   ROH18187   5.605   7.449   6.112  0.1884 -0.1617  0.1662
 1347ERGO    R118188   5.372   7.361   6.247  0.1664 -0.1924  0.1088
 1347ERGO    R218189   5.343   7.103   6.341  0.2259 -0.1659  0.2035
 1347ERGO    R318190   5.292   7.228   6.577  0.0848 -0.0862  0.1322
 1347ERGO    R418191   5.321   6.945   6.647  0.4035 -0.0170  0.2954
 1347ERGO    R518192   5.152   7.075   6.696  0.2559 -0.1764  0.2191
 1347ERGO    C118193   5.260   6.970   7.047  0.3745  0.1444  0.2818
 1347ERGO    C218194   5.275   6.749   7.335 -0.1115  0.3560 -0.2696
 1348W        W18195   2.843   9.210   0.552  0.1019 -0.0506  0.1219
 1349W        W18196  14.957  12.511   2.934  0.3009 -0.0809  0.4261
 1350W        W18197   9.396   1.723  14.482 -0.1282 -0.0982  0.3149
 1351W        W18198  16.017  12.073   2.754  0.1765 -0.3604 -0.1630
 1352W        W18199   2.277  14.449  10.353  0.1988  0.1788 -0.0129
 1353W        W18200  10.220   4.040  13.962 -0.2563 -0.0936  0.4017
 1354W        W18201  12.630   6.695  10.932  0.0095  0.0909 -0.1511
 1355W        W18202  10.068  18.271   2.150  0.1303 -0.0410  0.1543
 1356W        W18203   6.345   8.265  13.964  0.0052  0.0735  0.0424
 1357W        W18204   2.678  16.645   4.420  0.0510 -0.1248 -0.1186
 1358W        W18205  19.613  13.463  11.327  0.2301  0.3578 -0.1204
 1359W        W18206   3.876  16.489  12.334 -0.0256  0.0164 -0.0762
 1360W        W18207  10.734   7.531  10.138 -0.1946  0.1609  0.2524
 1361W        W18208   0.218   2.471  13.898 -0.0176 -0.1290  0.0089
 1362W        W18209  16.633  17.329   1.554  0.2809  0.0330 -0.3097
 1363W        W18210  17.112   4.227  11.519  0.2108  0.1438 -0.0187
 1364W        W18211   3.296  15.217  11.196 -0.3143 -0.2281 -0.2528
 1365W        W18212  14.487   3.688   2.086  0.4847  0.3328  0.0733
 1366W        W18213  12.271  11.337   0.089 -0.3770  0.2289 -0.1672
 1367W        W18214   6.856   3.413   2.988  0.0032 -0.0066  0.0515
 1368W        W18215  13.107   4.898   9.618  0.0728 -0.0674 -0.0696
 1369W        W18216  18.396   0.076  13.841 -0.2098  0.0225  0.2802
 1370W        W18217   9.866  16.656   4.246 -0.0609  0.2375  0.1036
 1371W        W18218   8.382  16.619   1.623 -0.0488 -0.1706  0.1642
 1372W        W18219   5.241   5.343  12.795 -0.1285 -0.0617  0.1107
 1373W        W18220  11.717   7.546   4.695 -0.0133 -0.2178 -0.1078
 1374W        W18221  18.276  19.018  11.833  0.2786  0.1302  0.0863
 1375W        W18222  14.318   9.819  13.432  0.0168  0.0978 -0.0071
 1376W        W18223   3.364   0.620   1.141  0.1993  0.0423 -0.0490
 1377W        W18224   5.680   9.657   4.553  0.1204  0.0243 -0.0878
 1378W        W18225  17.156  12.654  12.482  0.1830 -0.0911  0.2982
 1379W        W18226  18.357  19.459  11.532 -0.0347  0.3244 -0.1394
 1380W        W18227   8.118   8.123   1.992  0.2257  0.1905  0.3792
 1381W        W18228  10.935  12.425   1.554 -0.1367  0.0483  0.3131
 1382W        W18229  12.696   9.900  13.626 -0.3870 -0.0042 -0.2972
 1383W        W18230  16.483  12.566  11.500 -0.0800 -0.3276  0.1086
 1384W        W18231  12.228   5.792  14.020  0.5239 -0.1715  0.3524
 1385W        W18232  15.244  17.074   0.137 -0.0167 -0.0790 -0.1278
 1386W        W18233   3.377   1.360  14.569 -0.0288  0.0035 -0.3868
 1387W        W18234   5.971  13.218  12.438  0.2024  0.2444 -0.1971
 1388W        W18235   4.042  10.881   0.118 -0.0956  0.1856 -0.0972
 1389W        W18236   2.409  11.648  10.663  0.2211 -0.3934 -0.0171
 1390W        W18237   6.460  10.610   4.972 -0.3083  0.1443 -0.5024
 1391W        W18238  10.256  11.657  12.683 -0.1275  0.1088 -0.0599
 1392W        W18239  10.540  14.745   2.359 -0.0165  0.1941  0.0399
 1393W        W18240   0.516  13.090   1.152 -0.1494  0.3559  0.3548
 1394W        W18241  13.754   5.834   0.558 -0.0976  0.1598  0.0274
 1395W        W18242   1.672   2.841  14.092  0.3017 -0.4690 -0.3169
 1396W        W18243  19.021   1.826   0.439  0.1862  0.4651 -0.1692
 1397W        W18244   9.650   6.024   1.156  0.1626  0.0647 -0.0431
 1398W        W18245   3.749   2.199  14.519  0.0921  0.0247 -0.1322
 1399W        W18246  11.673   5.795   1.501 -0.1500  0.1252 -0.2476
 1400W        W18247  17.668  18.089  11.696 -0.0247  0.0614 -0.1245
 1401W        W18248  15.056   3.327  12.055 -0.1911 -0.0624 -0.1949
 1402W        W18249  10.961  11.912   3.517 -0.0098  0.2511  0.1368
 1403W        W18250  15.020  18.826  13.693 -0.2789 -0.0204 -0.1169
 1404W        W18251  18.469  18.249  10.599 -0.1057  0.4151  0.0586
 1405W        W18252  14.295   7.876  11.718  0.0197  0.3756 -0.2470
 1406W        W18253   4.518  17.888   2.396 -0.1868 -0.1199 -0.1661
 1407W        W18254  17.616   9.074  13.236  0.2427 -0.0607  0.1438
 1408W        W18255   6.909  12.567   2.355  0.3800  0.1500  0.0991
 1409W        W18256   0.454  15.654   2.916  0.1205  0.4960  0.0805
 1410W        W18257  12.242   7.549   4.312  0.0333  0.0007 -0.0005
 1411W        W18258  17.701   5.838   1.190 -0.0338  0.3236  0.1278
 1412W        W18259   3.093   8.497   0.625 -0.1883 -0.1857 -0.1037
 1413W        W18260   3.552  10.900  11.018  0.2072  0.0372  0.1247
 1414W        W18261   5.176  17.831   1.802  0.3268 -0.3236 -0.2378
 1415W        W18262  13.535   1.273  12.367 -0.0084  0.1022 -0.2082
 1416W        W18263   3.328   6.746  14.332  0.1998  0.1613  0.2446
 1417W        W18264  13.944   0.504   0.142  0.4234  0.0998 -0.1535
 1418W        W18265   8.484  12.164   1.917 -0.3611 -0.2987 -0.3593
 1419W        W18266  15.951  11.669   2.394 -0.3073  0.0030  0.1543
 1420W        W18267  18.880   8.519   1.424 -0.2962  0.1147  0.0807
 1421W        W18268   6.316   1.314  13.787 -0.1189  0.1957 -0.3607
 1422W        W18269   0.520   1.895   2.496  0.2563 -0.0190  0.1299
 1423W        W18270   8.339  10.904  11.727 -0.0613  0.2662  0.0897
 1424W        W18271  13.529   2.139   2.605  0.2274  0.0328  0.0032
 1425W        W18272   5.670   3.409   4.588  0.0141  0.4939  0.0578
 1426W        W18273   6.792  16.178   2.883 -0.1062  0.3897  0.3645
 1427W        W18274   8.832   8.618   0.045 -0.1073 -0.0054 -0.1096
 1428W        W18275  18.063  13.681   2.045 -0.2953 -0.1123  0.1338
 1429W        W18276   5.811  16.027  14.303 -0.1927  0.1803 -0.0704
 1430W        W18277   0.152   0.329   0.263 -0.0587 -0.1559  0.1585
 1431W        W18278   0.272   9.027   2.891  0.2700 -0.1798  0.0672
 1432W        W18279   3.468   4.229   3.472 -0.4052  0.0364  0.2476
 1433W        W18280   8.753   6.209   0.645 -0.0615 -0.1722  0.1184
 1434W        W18281  12.901  19.290  13.270  0.0740 -0.1951  0.0344
 1435W        W18282  11.201   9.315   2.368  0.0365  0.3009  0.1418
 1436W        W18283  13.177  11.346   2.542  0.0109  0.0333 -0.0281
 1437W        W18284  11.213  12.064  11.235 -0.0345  0.0643  0.2576
 1438W        W18285   7.091  15.176   4.634  0.2227 -0.0544  0.4028
 1439W        W18286   6.456   8.427  14.399 -0.3296  0.0836  0.0233
 1440W        W18287   2.594  17.443   2.386 -0.2171 -0.0209  0.2490
 1441W        W18288  12.676   5.826  12.340 -0.0155 -0.2877  0.1168
 1442W        W18289  12.042  14.103   4.572 -0.0744 -0.1725 -0.3937
 1443W        W18290  14.182  13.382  13.801 -0.0121  0.1489  0.0634
 1444W        W18291  16.111  19.513  14.037 -0.2869 -0.0105  0.0944
 1445W        W18292  13.387   1.716  11.511  0.1327  0.6210  0.0391
 1446W        W18293   2.848   6.551   5.551  0.0073  0.0438 -0.0132
 1447W        W18294  14.402  17.607   2.094 -0.1142  0.1769  0.0639
 1448W        W18295  13.340   8.659   1.061 -0.0398  0.1066 -0.3075
 1449W        W18296   3.109  17.327   3.942 -0.0202 -0.2300 -0.1428
 1450W        W18297  11.678  11.019  12.784 -0.1017 -0.0683 -0.0799
 1451W        W18298   3.577   5.374   4.749 -0.0911  0.2855 -0.0164
 1452W        W18299  13.166   6.037  13.703  0.2309  0.1530 -0.1434
 1453W        W18300   3.931  17.012  12.299 -0.1062 -0.0947  0.0207
 1454W        W18301   2.423   3.860   4.208 -0.4332 -0.0436 -0.3254
 1455W        W18302   7.999   3.866  11.604 -0.1967 -0.3942  0.1344
 1456W        W18303   3.353  12.112   0.824 -0.1490 -0.0039 -0.1865
 1457W        W18304  18.526   6.889   1.445 -0.0066 -0.0782 -0.2132
 1458W        W18305   9.971  16.943   2.311  0.1211 -0.1268 -0.0533
 1459W        W18306  14.448  12.609   3.098 -0.2116  0.0100 -0.0445
 1460W        W18307   3.397  14.787  12.057  0.0171  0.1592  0.1528
 1461W        W18308  14.007  15.493   4.170 -0.0044 -0.2640 -0.0088
 1462W        W18309   9.862  18.278   1.702 -0.2811 -0.1746  0.1178
 1463W        W18310  17.527  12.007   0.140  0.0295  0.2529  0.0921
 1464W        W18311  16.889   1.128   2.571 -0.0894 -0.0020  0.1675
 1465W        W18312  16.722   2.535  11.640 -0.3073  0.0407 -0.1139
 1466W        W18313  15.374   6.141   5.373 -0.2240 -0.1167 -0.3249
 1467W        W18314   1.685  18.594  14.577  0.0259  0.0173  0.1238
 1468W        W18315   7.987  19.210  14.070  0.0724 -0.1149 -0.1411
 1469W        W18316  15.190  11.753   0.819 -0.1372  0.1355 -0.0543
 1470W        W18317  16.502   7.939  10.884  0.0124 -0.0935  0.0112
 1471W        W18318   3.441   6.938  12.627 -0.0834  0.0001  0.1017
 1472W        W18319  14.010   7.458   0.936  0.0296 -0.0148  0.0273
 1473W        W18320  14.988   1.642   1.087  0.0565  0.2431  0.5378
 1474W        W18321  11.153   2.620  10.711 -0.0221  0.1267 -0.1230
 1475W        W18322   9.132   2.145   2.483  0.2969 -0.3263 -0.1933
 1476W        W18323  10.771  12.883  12.275  0.0347  0.0126 -0.1556
 1477W        W18324  10.697   2.739   3.373 -0.0023  0.5670  0.1402
 1478W        W18325   7.960   9.672   0.375 -0.2037  0.6166 -0.0582
 1479W        W18326   6.567   8.771   2.446  0.3159 -0.0223 -0.0477
 1480W        W18327   4.416  19.534  13.956 -0.1345 -0.1804 -0.1745
 1481W        W18328   4.403   2.617  10.948 -0.1166 -0.1698  0.2657
 1482W        W18329  15.980   9.550  12.312 -0.1490 -0.1322  0.0278
 1483W        W18330   4.556   7.803   3.076  0.0628  0.1462 -0.2605
 1484W        W18331   4.742   0.843   2.972  0.0968 -0.1695  0.1533
 1485W        W18332  11.724  16.624  14.211 -0.5308  0.0508  0.0457
 1486W        W18333   4.136   0.302   0.471 -0.3479 -0.0812  0.3133
 1487W        W18334   6.195  15.589  14.488 -0.5431  0.0334 -0.0813
 1488W        W18335   0.995  15.933   9.249  0.5342  0.0195  0.1404
 1489W        W18336  18.166   7.439   3.463 -0.2743  0.1197 -0.1798
 1490W        W18337  11.248  12.878  12.957  0.0787  0.1773 -0.2143
 1491W        W18338   9.338  13.895  13.024  0.2489  0.1426 -0.1488
 1492W        W18339  18.181  16.536  13.351 -0.2144 -0.0777  0.2143
 1493W        W18340  19.118   8.811  11.454 -0.0491  0.0923  0.1348
 1494W        W18341  17.639   4.427  13.922  0.0701 -0.2644  0.2673
 1495W        W18342  18.489  13.190   4.650  0.0471 -0.0706  0.0196
 1496W        W18343   1.754   7.384  11.944 -0.0149  0.0192  0.0178
 1497W        W18344  18.224   0.295   1.676  0.0126  0.0690 -0.0479
 1498W        W18345  14.375  13.962   4.161  0.1675  0.0555 -0.0102
 1499W        W18346   5.838   0.031   4.649  0.3439  0.0717 -0.1652
 1500W        W18347   3.386   8.143  10.826 -0.0111  0.3965  0.0465
 1501W        W18348  18.770   8.012   4.479 -0.1828 -0.0885 -0.2985
 1502W        W18349   7.903  14.396   0.681 -0.0016  0.0607  0.1180
 1503W        W18350   1.103  12.023   9.925 -0.0158  0.0640 -0.1261
 1504W        W18351   6.154   9.747   9.577  0.2114  0.2812  0.2016
 1505W        W18352   2.332   9.308  12.983 -0.2689  0.1184 -0.0330
 1506W        W18353  18.051  13.442   4.521 -0.1679  0.1804  0.1588
 1507W        W18354  16.429   5.387  13.355  0.1710 -0.1717 -0.0148
 1508W        W18355  13.455   9.828  13.080 -0.0658 -0.0848  0.1459
 1509W        W18356   3.417  13.211  11.235  0.3931 -0.0600  0.1005
 1510W        W18357   8.818   3.740   2.265  0.0635  0.1856 -0.5914
 1511W        W18358  11.344   2.615   0.681  0.1136  0.2157  0.2303
 1512W        W18359  15.982   8.188   3.768  0.2863  0.0303 -0.5038
 1513W        W18360  13.100  11.009  14.484 -0.3441 -0.2465  0.0085
 1514W        W18361  12.551  10.360   0.705  0.5700  0.2422  0.1513
 1515W        W18362  16.853   4.897  10.878  0.0659  0.1350 -0.0823
 1516W        W18363   5.973   3.663  12.122 -0.1397 -0.4452 -0.0549
 1517W        W18364  15.186  18.123   4.728  0.1184  0.1482  0.0609
 1518W        W18365  13.673   2.888   1.299 -0.2160  0.1573 -0.1758
 1519W        W18366  13.598  10.357   4.388  0.0996 -0.3757 -0.0257
 1520W        W18367  19.496  13.579  10.827 -0.1000  0.3166  0.0620
 1521W        W18368   2.542  14.772  10.810  0.1255 -0.2654  0.2662
 1522W        W18369   1.041  16.849   1.886  0.0969  0.3637 -0.0240
 1523W        W18370  18.807  10.890   4.922  0.2319 -0.0469 -0.3924
 1524W        W18371   4.890   9.452   3.691  0.1447 -0.2157 -0.0786
 1525W        W18372  17.551  11.268   2.499  0.0428  0.0592  0.2453
 1526W        W18373   1.362   5.116   4.285 -0.2571  0.2024 -0.1429
 1527W        W18374   2.443  11.451  11.126 -0.0969 -0.2504  0.0935
 1528W        W18375   8.998  12.799  12.464 -0.0677 -0.1903 -0.2080
 1529W        W18376   5.325  12.243  10.592 -0.1867  0.2190 -0.0659
 1530W        W18377   6.309  17.966  10.940  0.0033 -0.0279 -0.4377
 1531W        W18378   2.782   8.502   2.926 -0.0457 -0.0186 -0.1191
 1532W        W18379   8.179   9.455  11.875  0.0950 -0.0368 -0.0893
 1533W        W18380   5.686   6.773   3.122 -0.1371  0.4893 -0.3777
 1534W        W18381   8.394   3.339   3.991 -0.1531  0.2113  0.2539
 1535W        W18382   3.806  11.560  13.112 -0.2391  0.0322  0.1186
 1536W        W18383   0.371  13.572   0.363  0.2063  0.1445 -0.0311
 1537W        W18384   1.899   5.151   0.104  0.1172 -0.0914 -0.0098
 1538W        W18385   3.694   9.997  13.812 -0.0962 -0.1188 -0.3128
 1539W        W18386  10.044  17.740   0.537 -0.2727  0.0365 -0.0242
 1540W        W18387  15.607  17.416  11.419 -0.1172 -0.0793 -0.2822
 1541W        W18388   5.352  17.075   2.147 -0.0535 -0.0077  0.0030
 1542W        W18389  18.302  14.525  12.961 -0.1379 -0.2071  0.1767
 1543W        W18390  15.685  15.907  12.380  0.1343  0.0481  0.0495
 1544W        W18391   4.320  11.123   3.314  0.1983  0.1239 -0.2229
 1545W        W18392   8.968  12.177  11.870 -0.0819  0.0377  0.3141
 1546W        W18393   1.963   0.811   4.397  0.0403  0.0447  0.1346
 1547W        W18394   4.274  13.897   3.846 -0.0462 -0.2659 -0.2725
 1548W        W18395  12.509   5.631  11.126  0.0383 -0.0588 -0.0001
 1549W        W18396  17.713   5.582   0.134  0.0505 -0.0891  0.1878
 1550W        W18397   1.128   2.344  12.853 -0.2591 -0.1172  0.3179
 1551W        W18398   6.716   1.177   1.901 -0.0832 -0.3970  0.1775
 1552W        W18399  10.791  11.566   0.800 -0.3152  0.3234  0.1420
 1553W        W18400  17.428   2.102  10.507 -0.1788  0.1306  0.0280
 1554W        W18401  17.551  17.175   1.100 -0.0389  0.1937 -0.3373
 1555W        W18402  15.903  10.146   2.190  0.1363 -0.0894 -0.2703
 1556W        W18403  11.052  17.788   3.442  0.1420 -0.1739 -0.0187
 1557W        W18404  18.659   9.864  14.201  0.0552  0.1786  0.0283
 1558W        W18405  18.545   1.396   9.667 -0.0320 -0.2363 -0.2266
 1559W        W18406  10.492   7.860   5.402  0.0218  0.0213 -0.1744
 1560W        W18407  12.028   1.101  14.529  0.1453  0.0306  0.2425
 1561W        W18408   3.090   5.603  12.380 -0.2705  0.2403 -0.2011
 1562W        W18409   9.667   4.029   5.271 -0.1280  0.3708 -0.2290
 1563W        W18410  19.519   2.588  12.526  0.1957  0.1708 -0.2022
 1564W        W18411   1.064   4.530  11.394 -0.4133 -0.0847  0.0546
 1565W        W18412  18.620   6.394  13.050  0.2881 -0.2306 -0.3935
 1566W        W18413   6.706   2.918   4.824 -0.0166  0.1692 -0.0963
 1567W        W18414   0.492   8.119   1.193 -0.3100 -0.0545  0.0016
 1568W        W18415  12.165   1.438   2.279  0.2446  0.0280 -0.0035
 1569W        W18416   7.500   9.625  11.821  0.0246 -0.0892 -0.2455
 1570W        W18417  18.956  16.357  11.786 -0.0235  0.0299 -0.3554
 1571W        W18418   7.601   7.986   1.901 -0.0482 -0.3408 -0.0511
 1572W        W18419  11.051   9.189  12.380 -0.0682  0.1351  0.1046
 1573W        W18420  16.048  10.104   4.662  0.1672 -0.5569  0.0879
 1574W        W18421  12.083   0.109   0.753 -0.2169 -0.4446 -0.0346
 1575W        W18422  12.952   1.118  14.491 -0.3106  0.0309 -0.2039
 1576W        W18423  10.050  10.206   0.633 -0.0095  0.0524  0.3628
 1577W        W18424  14.243   8.662  11.357  0.1216  0.1292  0.1809
 1578W        W18425   5.281   7.114   2.846  0.1848 -0.1705  0.0309
 1579W        W18426  14.088  16.487   3.476  0.0350  0.0167  0.1132
 1580W        W18427   0.370  10.033   5.512 -0.1269 -0.0799  0.1962
 1581W        W18428   3.258  13.332   2.497  0.0644  0.3228  0.0233
 1582W        W18429   6.789  12.870   2.021  0.2583  0.2620  0.3011
 1583W        W18430   4.492   5.885   3.366  0.2575  0.2269 -0.0331
 1584W        W18431   3.329  18.549   0.155 -0.0918 -0.0808 -0.0686
 1585W        W18432   6.851   4.823   0.347  0.0780  0.1418  0.0030
 1586W        W18433  17.082  19.493  14.497 -0.1938  0.2628  0.1032
 1587W        W18434   8.244   7.564   3.079  0.3855 -0.4268  0.0789
 1588W        W18435  18.999   3.607  13.947  0.0585  0.0451  0.2037
 1589W        W18436   2.155   8.626  12.338  0.4708 -0.3160  0.2125
 1590W        W18437  14.918  17.813   4.332 -0.0171  0.0067  0.1191
 1591W        W18438   3.254   1.498   3.571  0.1584  0.1163 -0.0143
 1592W        W18439   7.156  11.599   3.610 -0.1814  0.3645 -0.0581
 1593W        W18440  13.885  17.141  14.178 -0.0062 -0.0238 -0.0495
 1594W        W18441   0.237   6.148   2.347  0.2409 -0.1547 -0.1634
 1595W        W18442   1.517  11.106   1.558  0.0755 -0.0524 -0.1711
 1596W        W18443   0.185  15.447   2.417  0.0138  0.0556  0.2196
 1597W        W18444  14.971   7.989   0.694 -0.1750  0.2361 -0.2938
 1598W        W18445   2.377   7.058  12.650  0.0743  0.3066  0.0800
 1599W        W18446   8.455  10.687  14.043 -0.0229  0.0356  0.1431
 1600W        W18447   4.411  13.512  13.952  0.2265 -0.0077 -0.1092
 1601W        W18448   3.526   2.317  10.583  0.0790 -0.2102  0.1205
 1602W        W18449  15.609   0.326   4.102 -0.3763 -0.0512 -0.0511
 1603W        W18450   7.707   6.695  12.893 -0.3533 -0.0314  0.1307
 1604W        W18451   9.426   4.685  10.608 -0.3127 -0.2426 -0.0993
 1605W        W18452  11.234   1.028   4.143 -0.2326 -0.2474 -0.0897
 1606W        W18453  17.725   6.203   3.298 -0.3051 -0.1704  0.0074
 1607W        W18454  16.388  14.248   4.869  0.5548 -0.0311  0.1072
 1608W        W18455  13.506  16.507   1.939 -0.1931  0.1696  0.2277
 1609W        W18456   1.352   1.111  11.584  0.0598  0.0240  0.2442
 1610W        W18457  17.391  12.378  13.291  0.2270  0.2802 -0.2790
 1611W        W18458   2.042   7.602   4.575  0.1093  0.1561  0.0820
 1612W        W18459   6.837  17.273  10.705  0.1280  0.2358 -0.0766
 1613W        W18460   9.747   7.618  14.271  0.1509  0.0714  0.1222
 1614W        W18461  12.817   5.234   3.809 -0.2344  0.1691 -0.1009
 1615W        W18462  19.381  19.183   2.735  0.1855 -0.0570 -0.1146
 1616W        W18463  10.622   5.669  11.100 -0.2701 -0.0161  0.0469
 1617W        W18464   8.516  14.213   2.761  0.1156 -0.0137  0.0303
 1618W        W18465   4.933   6.812   4.555 -0.1148  0.1740 -0.0181
 1619W        W18466  11.229   8.825  12.694 -0.3436 -0.1623  0.0499
 1620W        W18467   5.192  18.100   0.074  0.2530 -0.0225  0.0908
 1621W        W18468   9.839  16.753  10.835 -0.1718  0.0532 -0.5934
 1622W        W18469   2.466  10.611  12.608 -0.1826  0.0958 -0.3851
 1623W        W18470  18.352  18.101  13.822 -0.6426  0.0084  0.0930
 1624W        W18471  10.989   3.656  11.481  0.0877 -0.6273  0.3346
 1625W        W18472  13.287   4.493   1.504  0.1113 -0.5877 -0.0671
 1626W        W18473  15.469   0.828   9.244 -0.0965  0.0481 -0.4102
 1627W        W18474  14.079   2.022   0.838  0.0005 -0.2816  0.0863
 1628W        W18475   0.296  17.637  12.022 -0.0545  0.0679 -0.0588
 1629W        W18476   6.527   6.813   9.446  0.1172 -0.1555  0.3027
 1630W        W18477  11.484   2.807  11.663  0.0371  0.0257 -0.1850
 1631W        W18478   7.110   0.396   3.224 -0.1472  0.1636 -0.2240
 1632W        W18479  15.625  15.820   2.238 -0.1078  0.2261 -0.1188
 1633W        W18480  12.546   0.260  13.889 -0.2794  0.1519  0.2327
 1634W        W18481  16.681   8.250   0.411  0.0295 -0.2214 -0.2697
 1635W        W18482   6.550   6.469  12.578  0.0042 -0.3019 -0.1987
 1636W        W18483   6.672   4.149   3.641  0.0068 -0.1885  0.0107
 1637W        W18484  19.293   0.793   3.481 -0.1650  0.2096 -0.2881
 1638W        W18485  14.219  11.869  11.750 -0.0866 -0.1314  0.0666
 1639W        W18486   4.784   2.218   2.922  0.0520  0.2512  0.2280
 1640W        W18487  16.370  19.323  14.395  0.1151  0.0026 -0.1505
 1641W        W18488   1.456  15.372  14.465 -0.0871  0.2005 -0.0323
 1642W        W18489   7.469   4.156   2.639 -0.3289  0.2741 -0.2070
 1643W        W18490  19.299  11.047   0.161  0.0618 -0.0260 -0.2034
 1644W        W18491  15.022   3.717  11.240 -0.1304 -0.1604 -0.0758
 1645W        W18492  13.510  18.199   1.781 -0.2989 -0.2494  0.0074
 1646W        W18493   1.060   4.443  10.850  0.1327  0.0976 -0.2640
 1647W        W18494   6.041   5.935  11.330 -0.3553 -0.0078  0.2337
 1648W        W18495   9.349  13.686  14.042  0.5067  0.1118 -0.0185
 1649W        W18496   3.793  11.610  10.737  0.0434 -0.3256  0.0097
 1650W        W18497  13.490   9.187   2.014  0.1042 -0.0808  0.3068
 1651W        W18498  19.132  16.581  11.364  0.3132 -0.0552 -0.0588
 1652W        W18499  13.348   5.170   2.669 -0.0906 -0.0442 -0.1801
 1653W        W18500   2.489   2.381  10.042  0.0096 -0.1685  0.1505
 1654W        W18501   0.770   2.797  10.841 -0.1168 -0.2680  0.4710
 1655W        W18502  18.188  13.993   9.877 -0.2599 -0.1507  0.1008
 1656W        W18503   7.908   3.559   1.508 -0.0246 -0.0086  0.2642
 1657W        W18504  13.288   0.925  11.276 -0.0305  0.2631 -0.3251
 1658W        W18505  17.697  18.832  10.434  0.3316  0.2626 -0.0872
 1659W        W18506   9.514   8.901  12.491 -0.2308 -0.0050  0.0659
 1660W        W18507  11.337   3.837  11.830 -0.1170  0.0976  0.3224
 1661W        W18508  17.226   0.767  11.472 -0.1883 -0.0823  0.1829
 1662W        W18509   0.670   8.891   3.859 -0.1064 -0.1510  0.0061
 1663W        W18510  18.309   1.224   3.777  0.1150 -0.0029 -0.0253
 1664W        W18511   4.590  10.956  12.185  0.0828  0.6004 -0.1459
 1665W        W18512  14.790   7.717  13.373  0.1963  0.1804 -0.2776
 1666W        W18513  13.078   8.164  13.877 -0.2145  0.1498 -0.0050
 1667W        W18514  14.909  19.471   3.228  0.3332 -0.2537  0.2894
 1668W        W18515  14.215   3.454   0.226 -0.1092 -0.1709  0.0877
 1669W        W18516  19.269   2.667  10.563  0.3293 -0.0858 -0.0881
 1670W        W18517  17.888  11.550   2.723  0.0156  0.0831 -0.0362
 1671W        W18518   7.129  15.617  13.912  0.3011 -0.1353 -0.1208
 1672W        W18519  15.535  13.818   1.979 -0.1106  0.0158 -0.0910
 1673W        W18520   0.686   1.040  13.926  0.0656  0.0930  0.0062
 1674W        W18521  13.996  12.573  10.226 -0.0667  0.0732 -0.1246
 1675W        W18522  18.444   3.210   1.306  0.1346  0.2666 -0.1743
 1676W        W18523  18.024   2.393   0.753  0.2053  0.1803 -0.2562
 1677W        W18524  11.426   1.947   3.953 -0.2284  0.1027  0.0160
 1678W        W18525  11.849  15.281   1.398 -0.1457 -0.0675 -0.0497
 1679W        W18526   7.628   8.604   3.844  0.0084 -0.3077 -0.2716
 1680W        W18527  16.772   7.630  13.158 -0.0949 -0.1715 -0.1880
 1681W        W18528  16.381  10.757  11.784  0.1444  0.1485  0.2557
 1682W        W18529   3.231   1.389  10.672  0.5233  0.1076  0.3308
 1683W        W18530  18.394  12.707  11.162  0.0302 -0.2222  0.2176
 1684W        W18531   1.175   0.999  12.072 -0.1016  0.1393  0.2801
 1685W        W18532   2.123   0.370  12.922  0.1770  0.1209 -0.1406
 1686W        W18533   1.551   1.841   2.735 -0.0319  0.0272 -0.2693
 1687W        W18534   8.634  18.991   9.129  0.1174 -0.1315  0.1198
 1688W        W18535  16.722  16.899   2.531 -0.2567  0.2745 -0.0528
 1689W        W18536   2.126  16.298   5.092  0.1695  0.1388 -0.0308
 1690W        W18537  19.553   2.679  13.415 -0.3081 -0.1035 -0.1168
 1691W        W18538  14.198  12.637  11.194  0.0683 -0.1873  0.5610
 1692W        W18539  16.186   6.628  14.591 -0.0285 -0.0426 -0.1495
 1693W        W18540   5.621   3.937   1.918 -0.0198  0.0441 -0.0868
 1694W        W18541  16.180  12.071   4.793  0.1517 -0.5461 -0.0572
 1695W        W18542  19.351   0.620   0.180  0.1811  0.0700 -0.3292
 1696W        W18543  16.991  17.130   1.261  0.3582 -0.1235  0.2119
 1697W        W18544  16.689   7.550   0.174 -0.0076  0.0836  0.0587
 1698W        W18545  16.340  18.614   2.690 -0.1641  0.1523 -0.1672
 1699W        W18546   3.688  12.077  14.332  0.1293 -0.1230 -0.0957
 1700W        W18547  10.741   0.012  14.374  0.1041 -0.1654 -0.0891
 1701W        W18548   9.867   2.144  13.036  0.0530  0.3209 -0.0505
 1702W        W18549   2.166  12.127  12.277  0.2246  0.3220 -0.2684
 1703W        W18550  16.577   0.984  13.541  0.1040 -0.0083 -0.3500
 1704W        W18551  17.640   0.272  10.162 -0.0740 -0.3445  0.0204
 1705W        W18552  14.563  16.778   0.022 -0.0646 -0.4920 -0.0390
 1706W        W18553   0.810   6.907   1.037 -0.0628 -0.1709  0.2734
 1707W        W18554   3.773  16.163   2.538 -0.0685  0.4998 -0.3487
 1708W        W18555  18.549   1.143   0.881 -0.2332  0.2907  0.1647
 1709W        W18556  12.639   3.903   5.219  0.1153 -0.3344 -0.0899
 1710W        W18557   5.124   1.854   2.578  0.3267  0.0918  0.2361
 1711W        W18558  10.354   7.429   4.349 -0.0103 -0.0851  0.0468
 1712W        W18559   2.165   2.909   3.309 -0.1461  0.0365  0.0338
 1713W        W18560   1.925  18.924   2.056  0.0232  0.2460  0.3235
 1714W        W18561  17.837  18.706  12.200  0.2415 -0.0875  0.0525
 1715W        W18562   3.032   7.011   5.525  0.0543 -0.1904  0.0575
 1716W        W18563   1.229  18.403   3.103  0.0813  0.1330 -0.1491
 1717W        W18564  16.850  16.725   1.546  0.0419  0.2552 -0.0904
 1718W        W18565   2.924  13.325  12.971 -0.1596  0.0294  0.2331
 1719W        W18566  12.448  19.499  14.592  0.1328  0.1483  0.0485
 1720W        W18567   7.117   4.586   1.546  0.1297 -0.2265 -0.2299
 1721W        W18568   9.999   9.576   0.007 -0.1343 -0.0586 -0.0619
 1722W        W18569  12.998   2.051  10.701  0.1054  0.1393  0.0937
 1723W        W18570   9.281  18.093   0.632 -0.1321  0.2401 -0.1661
 1724W        W18571   3.312  18.041   2.786  0.3120  0.4330 -0.4007
 1725W        W18572  12.072   4.880  12.740  0.1671 -0.0914  0.0481
 1726W        W18573  11.802   0.305  11.758  0.0405  0.0531 -0.1999
 1727W        W18574  12.596   4.396  14.374 -0.0518 -0.0226 -0.2139
 1728W        W18575  10.467   2.074   2.110 -0.1092 -0.0460 -0.0102
 1729W        W18576  16.760  18.333   0.153 -0.1414  0.0966  0.1028
 1730W        W18577  12.413   4.218   3.912  0.3395 -0.3002  0.4661
 1731W        W18578  17.363   6.350  11.089  0.0800 -0.1369  0.2378
 1732W        W18579  12.341  12.713   0.107 -0.2872 -0.1988 -0.0114
 1733W        W18580   9.426  17.655   2.790 -0.2779  0.5894 -0.0502
 1734W        W18581  10.194  11.746   4.484 -0.0206  0.3049 -0.0556
 1735W        W18582   9.432  14.426  10.824  0.2606  0.3050  0.1296
 1736W        W18583   2.071   5.408   3.461  0.2836 -0.2301  0.1719
 1737W        W18584   6.556   3.386  11.068 -0.2162 -0.1543  0.1224
 1738W        W18585   0.708  11.301   2.291 -0.0220  0.1590 -0.0026
 1739W        W18586  18.613   9.286  10.791 -0.1817  0.0764 -0.1150
 1740W        W18587  17.790   0.448   1.769  0.1415  0.0539 -0.4529
 1741W        W18588  16.124  14.543  13.443  0.2487  0.2583 -0.4133
 1742W        W18589  17.245   5.907   3.074  0.0304 -0.1731 -0.1176
 1743W        W18590   3.783   1.440  12.637 -0.2882  0.4424  0.1502
 1744W        W18591   2.607   0.167   3.232 -0.0161 -0.3785  0.1712
 1745W        W18592  16.249  17.050   0.535 -0.1622 -0.1717 -0.2288
 1746W        W18593   7.464   4.304   2.151  0.2424 -0.1221  0.1005
 1747W        W18594  17.521   6.104   0.230 -0.2567 -0.2657 -0.1029
 1748W        W18595   2.651   7.631  10.994 -0.1656  0.0034 -0.1400
 1749W        W18596   7.331  13.496   2.716  0.1003 -0.3947 -0.0576
 1750W        W18597  15.892   3.104  11.751  0.2675 -0.2342 -0.1083
 1751W        W18598  17.698  16.744  10.978  0.1453 -0.1348  0.1561
 1752W        W18599  12.719   1.509  12.533  0.1194 -0.0270 -0.1234
 1753W        W18600   4.558  11.829   2.597 -0.0881  0.0662  0.1838
 1754W        W18601   3.779  17.636   0.156 -0.0807  0.1964  0.1672
 1755W        W18602   6.184  19.311   3.334  0.0069 -0.2675 -0.1470
 1756W        W18603  14.013   4.816  12.388 -0.2240  0.0468 -0.0844
 1757W        W18604   1.221   9.660  13.814  0.0014 -0.0931 -0.1469
 1758W        W18605   7.187  11.378  10.377  0.0548  0.1483  0.2116
 1759W        W18606  18.760   0.228   0.686 -0.0528 -0.1625  0.0236
 1760W        W18607  14.328  14.468   5.256 -0.2115  0.0392  0.0280
 1761W        W18608   1.795   0.257  12.587  0.0232  0.0790  0.0607
 1762W        W18609  11.138  19.083  11.752  0.2810 -0.1744  0.1899
 1763W        W18610  12.898  18.371  10.345 -0.3148 -0.2562 -0.0309
 1764W        W18611   4.611   0.363  13.692  0.2102 -0.1161 -0.0148
 1765W        W18612  12.556  10.276   2.363 -0.1184 -0.1595  0.0359
 1766W        W18613  16.815  19.113  14.570  0.5455 -0.1974  0.3196
 1767W        W18614   6.656  12.681  13.850 -0.0530 -0.1114  0.1767
 1768W        W18615  11.306   7.438   4.347 -0.1833  0.2564  0.1448
 1769W        W18616  15.545  14.334  12.032 -0.2128  0.1059 -0.3240
 1770W        W18617   3.397   3.884   3.760  0.0021 -0.2426 -0.0071
 1771W        W18618  18.979   7.095   2.423  0.0440 -0.1674 -0.1192
 1772W        W18619   2.843   5.180   1.284  0.1798 -0.0481  0.1263
 1773W        W18620  17.904   1.865  13.401  0.0148  0.1137  0.3263
 1774W        W18621   9.169   2.364   1.249 -0.1140 -0.3564 -0.6195
 1775W        W18622   4.879  15.979   4.509  0.2515  0.2037  0.1653
 1776W        W18623   0.711   7.344  12.908 -0.0444  0.1213  0.2866
 1777W        W18624  13.668  13.565  10.227  0.0017  0.1718 -0.0662
 1778W        W18625   2.906  16.668  12.251 -0.1047  0.0075 -0.0898
 1779W        W18626  11.604   9.162   3.853 -0.1177  0.1933  0.0652
 1780W        W18627  18.249   3.234  11.270  0.1318 -0.1455 -0.0095
 1781W        W18628  12.407  14.622  12.962  0.3926 -0.1328 -0.2697
 1782W        W18629   7.669   6.197   5.061 -0.1215  0.1732  0.1839
 1783W        W18630   7.593  11.368   3.806 -0.2766  0.4418 -0.1665
 1784W        W18631   9.343  10.508  12.266  0.0573 -0.2530  0.0806
 1785W        W18632  13.186   7.450  10.705 -0.0665 -0.3533  0.1590
 1786W        W18633  12.799  19.619  10.554  0.4948  0.1391  0.1459
 1787W        W18634  16.806  17.423  14.157 -0.0999  0.0468 -0.0471
 1788W        W18635  17.237  10.639  11.464  0.1030  0.0625 -0.0412
 1789W        W18636  15.909  11.030   1.709  0.1356 -0.1603  0.1398
 1790W        W18637  16.531  19.399   3.827 -0.1078  0.3760 -0.0481
 1791W        W18638   4.525   9.188   2.855  0.1123  0.2010 -0.2137
 1792W        W18639   3.906   5.827  11.539  0.1822 -0.2051 -0.1753
 1793W        W18640   2.405   9.770  14.269 -0.2685  0.0016  0.0324
 1794W        W18641  10.779  13.267   0.670 -0.1559  0.6533 -0.1552
 1795W        W18642   2.030  18.218   3.345 -0.2220 -0.2074  0.0438
 1796W        W18643  12.742  17.685  10.072  0.0194  0.0864 -0.1441
 1797W        W18644  16.568   4.425  13.112 -0.2574 -0.0077  0.0494
 1798W        W18645  12.619  16.687   3.861 -0.1100  0.1369 -0.1192
 1799W        W18646  17.843   6.056  13.355 -0.1165 -0.0963 -0.2351
 1800W        W18647  11.002  12.855  14.200 -0.2595 -0.1684 -0.0471
 1801W        W18648  18.555  19.241  14.003 -0.1309  0.3600  0.3126
 1802W        W18649   7.324  12.529  10.855 -0.2416  0.2815  0.3513
 1803W        W18650  14.282  18.957   1.533 -0.2583 -0.2749  0.1927
 1804W        W18651  15.377  15.675  10.267  0.3872 -0.0519  0.1864
 1805W        W18652  13.513  15.557  13.381  0.0382  0.1343 -0.0740
 1806W        W18653  17.727  15.202   0.566  0.0267  0.0311  0.1606
 1807W        W18654  12.290  15.792   0.231  0.0372  0.2392 -0.1733
 1808W        W18655   8.544   5.940   1.554 -0.1903 -0.1312 -0.0905
 1809W        W18656  15.949   6.511   0.499 -0.1502 -0.2832 -0.0813
 1810W        W18657  11.745  14.457  14.242 -0.1093  0.1030  0.1537
 1811W        W18658   1.016   6.031  10.818  0.0929  0.1268 -0.0788
 1812W        W18659  11.520   2.224  10.757 -0.0546 -0.2238 -0.1345
 1813W        W18660  16.650  12.024   3.972 -0.1502  0.3588 -0.2084
 1814W        W18661   1.101   7.694  12.872 -0.0578  0.0764  0.0707
 1815W        W18662  17.834   2.246   1.658 -0.1330  0.0580  0.0867
 1816W        W18663  13.192   2.449   2.922  0.2390  0.1644  0.1573
 1817W        W18664   5.678   3.789   3.536 -0.2538  0.0696  0.5855
 1818W        W18665  19.264   2.286  13.622 -0.2414  0.0625 -0.0230
 1819W        W18666   2.691  15.539   4.625  0.2235  0.0670 -0.2404
 1820W        W18667   0.404   3.672  14.417  0.2334 -0.1392  0.1287
 1821W        W18668   9.877  18.582  14.541 -0.0190 -0.1838 -0.0513
 1822W        W18669  16.360   2.710  13.203 -0.1212  0.1189  0.2189
 1823W        W18670  10.817  10.898   1.945  0.2645  0.2306  0.1439
 1824W        W18671   1.552  14.933   1.912 -0.1102 -0.2571 -0.2410
 1825W        W18672  14.555  16.912   4.248 -0.1619  0.0340 -0.0855
 1826W        W18673  18.887  13.954   3.423  0.1693 -0.1835  0.1088
 1827W        W18674  10.099  10.245   9.900  0.1149 -0.0567  0.0486
 1828W        W18675  19.531   2.640   2.465  0.0371  0.2036 -0.0067
 1829W        W18676  15.165  12.312  12.615  0.1812  0.1212 -0.3990
 1830W        W18677  15.757  15.455   3.175  0.2568  0.3861 -0.1056
 1831W        W18678   3.405  10.101   0.671  0.1342 -0.0567  0.0945
 1832W        W18679  16.131   2.072  11.193  0.1329 -0.0363 -0.0370
 1833W        W18680   8.766   6.961  12.144 -0.1389  0.1599  0.1178
 1834W        W18681  10.493   9.680  10.972  0.3878 -0.2306 -0.2515
 1835W        W18682   9.130   8.718  13.470  0.1702  0.0436  0.0766
 1836W        W18683   1.332   1.701   2.134  0.2144 -0.0581 -0.0122
 1837W        W18684  15.477  13.118  13.699  0.1240 -0.0565 -0.2627
 1838W        W18685  16.749  14.003  14.293  0.3732 -0.1131  0.0114
 1839W        W18686  14.715   3.927  14.115 -0.1441  0.0804 -0.1787
 1840W        W18687   5.517  10.703  11.215  0.0175 -0.0648 -0.1490
 1841W        W18688   2.936   2.119   4.599 -0.0359  0.2645  0.3047
 1842W        W18689  15.700  14.799   0.513  0.4957 -0.0954 -0.0733
 1843W        W18690   1.720  12.707   5.279 -0.3723  0.2632 -0.3146
 1844W        W18691  18.694  11.114  11.212  0.1517  0.1172  0.0099
 1845W        W18692   6.311   4.633   2.770  0.1314 -0.2410  0.2797
 1846W        W18693   6.170  13.587   4.694  0.0777  0.0956 -0.4262
 1847W        W18694  15.942  13.975  11.396  0.2402 -0.4181  0.1494
 1848W        W18695  18.689   2.454  12.657 -0.0483  0.2190 -0.1500
 1849W        W18696  17.288  11.668  11.867  0.0869 -0.1176 -0.2226
 1850W        W18697  18.375   1.984   0.534  0.2742 -0.2249  0.0552
 1851W        W18698   1.542  14.439  14.136 -0.0186  0.1325  0.1111
 1852W        W18699  10.102   0.341  11.110  0.1048  0.0632 -0.2840
 1853W        W18700  13.967  13.374   2.563 -0.0829 -0.1328 -0.1423
 1854W        W18701   8.334  16.676   0.644  0.0210 -0.2023  0.1730
 1855W        W18702   8.728   2.664  10.734  0.0207  0.5166  0.0034
 1856W        W18703   8.529  19.002  12.692 -0.0092  0.0019 -0.3170
 1857W        W18704  10.484   4.510  11.645  0.2741 -0.0050 -0.1241
 1858W        W18705  19.602  11.331   3.752  0.1416  0.3071 -0.1470
 1859W        W18706  17.339   1.132   1.063 -0.2082  0.0161  0.0165
 1860W        W18707  13.360   9.679   1.670  0.1614 -0.2119 -0.5456
 1861W        W18708   4.215   9.528   3.023  0.1207  0.1657 -0.0434
 1862W        W18709  15.507   2.111   2.184 -0.0019 -0.1377  0.3301
 1863W        W18710   9.051  11.535  12.042  0.0703  0.0812 -0.1022
 1864W        W18711  13.287  15.723   2.978  0.1287 -0.0602  0.2310
 1865W        W18712   8.342   7.529   2.504  0.0192  0.1023  0.0780
 1866W        W18713  17.113  13.270  12.585 -0.1224 -0.1336  0.1131
 1867W        W18714   2.166   7.424   3.065  0.0898 -0.2272 -0.1465
 1868W        W18715   8.444  15.271   3.969 -0.0156 -0.0546 -0.2315
 1869W        W18716  11.311  14.994   4.358  0.1186  0.1717 -0.2812
 1870W        W18717  14.831  17.366  13.487 -0.1691  0.1043 -0.2860
 1871W        W18718   9.520  12.603   0.656 -0.0751 -0.1173  0.1233
 1872W        W18719   4.160   9.778  13.710  0.0375  0.1600 -0.0435
 1873W        W18720  15.423  17.262   3.032 -0.1411  0.2160  0.1451
 1874W        W18721  10.565   2.190   8.800  0.1380  0.0798  0.1116
 1875W        W18722  18.044   7.422   2.116  0.1757  0.1288  0.2786
 1876W        W18723  15.216  19.097  14.065 -0.1020 -0.3294  0.0477
 1877W        W18724   3.538   0.099   4.210 -0.1752 -0.3380  0.0567
 1878W        W18725  11.859   7.321   4.032 -0.1327  0.2674 -0.0804
 1879W        W18726  18.963   4.350   9.829 -0.1465 -0.0558 -0.3136
 1880W        W18727  10.274  18.728  12.569 -0.0660  0.0019 -0.2738
 1881W        W18728  11.163   8.594   4.292  0.1825  0.1027 -0.1484
 1882W        W18729   3.271   2.704   0.444  0.0151 -0.0127 -0.3228
 1883W        W18730   1.976   6.720   4.182 -0.1416 -0.3450 -0.2296
 1884W        W18731   5.281   0.135   3.026  0.1991 -0.0439 -0.0156
 1885W        W18732  17.726  11.644   4.039 -0.4436  0.0344  0.1770
 1886W        W18733  12.506  18.499  11.381  0.0443 -0.1457  0.5370
 1887W        W18734  16.580  11.982  10.726  0.1660  0.1135 -0.1668
 1888W        W18735  18.490  17.177   4.213  0.4730 -0.1633 -0.1130
 1889W        W18736   2.976  18.400   3.527 -0.0213  0.1034 -0.0732
 1890W        W18737  17.757   5.614  12.406  0.0787  0.3680 -0.1872
 1891W        W18738  17.945  14.515  13.900 -0.2634 -0.0176  0.1582
 1892W        W18739  19.051  17.016   3.247 -0.0208  0.0952  0.0831
 1893W        W18740   4.105  10.859   0.612  0.1360 -0.0932  0.1307
 1894W        W18741   2.067   5.874   4.741 -0.0366  0.1998  0.0845
 1895W        W18742  14.712  16.162  14.035 -0.0440 -0.0890 -0.1309
 1896W        W18743   8.377   8.239  12.091  0.2353  0.0240 -0.3161
 1897W        W18744   2.366  10.085   5.896  0.2140  0.0546 -0.2573
 1898W        W18745  16.244  18.296   0.251  0.2719  0.3156  0.0056
 1899W        W18746   9.891  15.851  11.433  0.2932  0.3472 -0.2040
 1900W        W18747  12.563  16.863  11.704  0.1839 -0.2174 -0.4553
 1901W        W18748   8.011  10.571  14.213 -0.3884 -0.0180 -0.4372
 1902W        W18749   0.586   9.793   0.891  0.3229  0.2005  0.2607
 1903W        W18750  10.960   0.100   0.446  0.1069  0.1755  0.1060
 1904W        W18751   8.939  12.672  11.911 -0.2526 -0.0994 -0.3102
 1905W        W18752  10.411   8.131  13.434  0.1535  0.1322 -0.0991
 1906W        W18753  17.501  17.865  10.329 -0.1055 -0.2814 -0.0069
 1907W        W18754   1.037   9.505   0.953 -0.4052 -0.0311  0.0492
 1908W        W18755  16.623   0.043  12.734 -0.0394 -0.1779 -0.0741
 1909W        W18756  10.320  18.569   0.183  0.0178 -0.4844 -0.0745
 1910W        W18757   4.840  17.785  13.322  0.0446 -0.2633  0.0826
 1911W        W18758  19.389   4.136  11.519 -0.1683 -0.1794 -0.0418
 1912W        W18759   4.414  18.112   1.318 -0.2251  0.4508  0.1306
 1913W        W18760   5.982  15.319  10.797 -0.0193 -0.1758  0.3673
 1914W        W18761   1.582   6.979   3.917  0.3457 -0.0022  0.0144
 1915W        W18762   5.337  11.409  11.211 -0.1002  0.0301 -0.1344
 1916W        W18763   1.207  10.723   3.734 -0.0709 -0.1341 -0.2126
 1917W        W18764  16.023  17.754   0.496 -0.0770 -0.0677  0.1258
 1918W        W18765  18.193   4.796   2.557  0.0877  0.0025  0.0982
 1919W        W18766  11.401  15.246   1.717 -0.1617  0.0370  0.0623
 1920W        W18767  11.715  13.989   1.693 -0.1057  0.1598  0.0466
 1921W        W18768  15.251  14.679   0.659  0.0881 -0.1501 -0.4936
 1922W        W18769  12.371   6.498   2.512 -0.1315  0.0446 -0.3359
 1923W        W18770   2.520  12.518   0.559 -0.1928 -0.5251 -0.1383
 1924W        W18771   9.439   5.578   3.834  0.0428  0.2150  0.0263
 1925W        W18772  15.033   9.498  12.237  0.1077 -0.2851 -0.0862
 1926W        W18773  18.154   1.380  12.655  0.0590  0.1518 -0.3738
 1927W        W18774   5.858   6.765   0.449  0.4384 -0.2896 -0.0051
 1928W        W18775   0.428  13.164   5.537  0.2639 -0.1451  0.0159
 1929W        W18776   3.418   2.106  13.526 -0.2546  0.1193  0.0456
 1930W        W18777  19.494   4.684   0.518 -0.1891 -0.1802  0.1618
 1931W        W18778   1.189   1.345  13.073 -0.3933 -0.0085  0.0007
 1932W        W18779  17.376  12.500   0.605  0.1873 -0.0655  0.4776
 1933W        W18780   5.354   6.598  12.943  0.0061  0.0440  0.2316
 1934W        W18781   9.994  10.010  10.819  0.2700  0.1044 -0.0823
 1935W        W18782   0.987   7.127  11.328 -0.0459  0.1143 -0.0673
 1936W        W18783   5.924   0.847   1.839  0.2904 -0.1251 -0.4162
 1937W        W18784   9.159   9.142   4.194 -0.2408  0.3542 -0.1492
 1938W        W18785   3.631  11.412  12.425  0.0332 -0.2299  0.0689
 1939W        W18786  11.723  11.338   3.894  0.1689 -0.3177 -0.0183
 1940W        W18787  10.569   9.198   2.680 -0.0119 -0.0161 -0.1920
 1941W        W18788   5.719   1.841   1.838 -0.0685 -0.2509  0.0538
 1942W        W18789   0.052  17.205  12.110 -0.3281 -0.3011  0.0324
 1943W        W18790  13.794   6.854   2.899 -0.0220  0.2070 -0.0784
 1944W        W18791   7.332  12.773   2.124  0.1692  0.1561 -0.2104
 1945W        W18792  13.748   9.755  13.586 -0.2701 -0.2000  0.2179
 1946W        W18793  19.130  13.886  11.544  0.2557 -0.2255  0.1708
 1947W        W18794  14.826   7.231   0.298  0.0084  0.0115 -0.0179
 1948W        W18795  12.379  18.603   4.873  0.2131 -0.1142  0.1400
 1949W        W18796   8.892   0.626   3.971  0.2462  0.4265  0.1203
 1950W        W18797   8.008  17.371   3.055  0.1802  0.1020  0.1273
 1951W        W18798   8.591  16.145  12.468  0.0575 -0.0917 -0.0370
 1952W        W18799  15.886   8.695   4.853 -0.0906  0.0629 -0.2620
 1953W        W18800  13.462  17.977  12.582  0.1687 -0.2724  0.0307
 1954W        W18801  11.462  16.214  14.473 -0.2353  0.1259  0.2670
 1955W        W18802  15.642   6.885  14.149 -0.1892  0.3599 -0.0585
 1956W        W18803  16.333   2.528   3.010  0.4548  0.2170  0.1709
 1957W        W18804   2.070  16.137  10.942 -0.1215 -0.0101 -0.1406
 1958W        W18805  18.257   5.174   0.854 -0.2207  0.0718 -0.2711
 1959W        W18806   9.517  14.724  12.820  0.0595  0.1994 -0.1256
 1960W        W18807   0.867  12.336  13.325  0.0545  0.2158 -0.0755
 1961W        W18808  15.433   0.871   1.183 -0.2093  0.4804  0.0227
 1962W        W18809  11.319  10.515   3.018  0.1657 -0.0668  0.0520
 1963W        W18810  13.104   2.886   3.154 -0.4884 -0.1403 -0.1545
 1964W        W18811  15.702   9.577   1.236 -0.0808 -0.1777  0.1155
 1965W        W18812   2.177  16.241   1.112 -0.1276 -0.0631  0.2339
 1966W        W18813   6.671  10.511  13.114  0.0154  0.1242  0.1562
 1967W        W18814  10.283   2.736   2.739  0.2002 -0.2751  0.2197
 1968W        W18815  13.193   5.624   3.852 -0.0990  0.4930  0.0300
 1969W        W18816   7.289  17.528   1.197 -0.1277  0.1050 -0.1359
 1970W        W18817  10.518  16.813   2.401 -0.2005 -0.1396  0.1376
 1971W        W18818  14.526  14.275  13.110 -0.1608 -0.0576 -0.1236
 1972W        W18819  11.761   0.827   1.890 -0.3183  0.0063  0.1567
 1973W        W18820  15.693   2.143  12.553 -0.1209 -0.0192 -0.2498
 1974W        W18821  16.412  11.678  12.720 -0.0945 -0.0391  0.0745
 1975W        W18822  15.648   2.499   0.997  0.0995 -0.2858  0.2586
 1976W        W18823   6.279  14.325   1.865 -0.0628  0.1408 -0.0488
 1977W        W18824  10.006   7.271   4.006  0.0214  0.0717  0.3629
 1978W        W18825  14.565  15.725   1.530 -0.1771  0.2025  0.0785
 1979W        W18826   5.312  11.207  10.277 -0.1104 -0.1593 -0.1902
 1980W        W18827  13.840   7.598   0.110 -0.2355  0.2356 -0.0923
 1981W        W18828  17.966  10.923   2.161 -0.1544  0.1590  0.0881
 1982W        W18829  15.017  18.365   1.413 -0.1241  0.0669 -0.1596
 1983W        W18830   3.998   7.877   4.932 -0.1195  0.0019 -0.1187
 1984W        W18831  10.287   4.963  13.414  0.2540  0.2916 -0.0171
 1985W        W18832   3.297   7.154   1.542 -0.5983 -0.0814 -0.2350
 1986W        W18833   5.671   1.530   3.083 -0.0942 -0.1208 -0.1890
 1987W        W18834   7.824  18.029  14.161  0.6507 -0.0976  0.1344
 1988W        W18835  14.128   1.510   1.096 -0.0323 -0.1079  0.3212
 1989W        W18836   8.841  19.457  11.818 -0.3960 -0.1198  0.3036
 1990W        W18837   9.993   4.992   0.528 -0.1159 -0.1686 -0.1590
 1991W        W18838  15.993  12.593   4.010  0.3537  0.0288 -0.2542
 1992W        W18839  19.590   7.484  12.108 -0.1310 -0.0185 -0.0209
 1993W        W18840  10.315  11.874   1.947 -0.0949 -0.1410  0.3538
 1994W        W18841   4.941   6.176   3.262 -0.1839  0.3585 -0.2474
 1995W        W18842   6.345  14.433  13.604  0.4228  0.0296 -0.1671
 1996W        W18843  19.512  11.817   4.434 -0.0056 -0.0181  0.1293
 1997W        W18844   1.165   1.669  10.312 -0.6011  0.0862  0.4128
 1998W        W18845   5.561  14.716   3.575  0.3412  0.2656 -0.0148
 1999W        W18846  15.500   8.998   0.947  0.1989 -0.0396 -0.0849
 2000W        W18847  17.995   7.286   4.451 -0.0179 -0.0910 -0.1891
 2001W        W18848  17.514  16.526   0.322 -0.1877 -0.2378 -0.1148
 2002W        W18849   1.294   9.582   4.017 -0.3926 -0.0633 -0.1059
 2003W        W18850  19.072  17.995  10.934  0.1364 -0.0084  0.1050
 2004W        W18851  15.287  14.173   4.006  0.2749 -0.0230 -0.1321
 2005W        W18852  19.180  10.680  14.467 -0.0607  0.0885  0.0590
 2006W        W18853  17.898   0.427   2.702  0.1402 -0.2310 -0.0658
 2007W        W18854   2.702  17.504   1.171 -0.1280 -0.1843 -0.1843
 2008W        W18855  11.730  13.047  11.967  0.0723  0.0439  0.0071
 2009W        W18856   6.152  10.228  13.768  0.1391 -0.2915 -0.0117
 2010W        W18857  10.866   1.207   9.971 -0.3293 -0.2177  0.2028
 2011W        W18858  15.915  13.494   3.719 -0.0654 -0.1453 -0.1686
 2012W        W18859  19.579   3.781  13.532 -0.0297 -0.2632 -0.0829
 2013W        W18860  13.877  14.149  12.542 -0.1760  0.1089  0.0866
 2014W        W18861  14.976  15.120  13.693 -0.0667 -0.0214 -0.2671
 2015W        W18862   4.019  17.563   2.577 -0.0396  0.2197 -0.1919
 2016W        W18863   3.295  13.546   4.791  0.0031  0.0040  0.2448
 2017W        W18864   7.422   9.856  12.772 -0.0510 -0.1858  0.0282
 2018W        W18865  15.567   8.052  13.655 -0.0712 -0.0344  0.1374
 2019W        W18866   8.075   5.325   5.327 -0.2247  0.2168 -0.0915
 2020W        W18867  11.992   4.866   4.435  0.0578 -0.0457  0.3235
 2021W        W18868   1.194   6.981   4.355  0.3223  0.1367  0.4656
 2022W        W18869  19.579   6.246  12.876  0.4872 -0.2743  0.0921
 2023W        W18870  16.862  17.419  13.612 -0.2201 -0.0705 -0.3185
 2024W        W18871  13.861  16.086  14.268 -0.0637 -0.0739  0.1093
 2025W        W18872   2.702   9.718   4.165  0.1879 -0.0434  0.2521
 2026W        W18873   8.158  14.780  11.498  0.2015  0.0698 -0.0393
 2027W        W18874   0.538  11.743   2.530 -0.2424  0.2372 -0.1150
 2028W        W18875   1.796   6.613  10.182  0.0441  0.0851 -0.0463
 2029W        W18876   8.289   8.432  11.639 -0.1807  0.3797  0.0411
 2030W        W18877   8.094   9.643  10.033 -0.0173 -0.2807  0.2983
 2031W        W18878   2.078   3.955  13.288 -0.1943  0.2649 -0.1652
 2032W        W18879  12.119   3.168  12.775  0.0030  0.0096 -0.1364
 2033W        W18880   4.470  10.642   3.704  0.0581 -0.3426  0.1125
 2034W        W18881  13.477  11.048  10.948 -0.2328 -0.1247 -0.2386
 2035W        W18882  12.581  11.211   1.037  0.4076 -0.0158  0.0440
 2036W        W18883  14.038  12.597   3.822 -0.0435 -0.2979 -0.1278
 2037W        W18884   2.075   7.782   0.600 -0.2801  0.2209  0.0024
 2038W        W18885   1.396   8.033  10.889 -0.2059  0.0569 -0.3167
 2039W        W18886  19.574   8.747   3.725  0.1416 -0.1622  0.1997
 2040W        W18887  16.380   4.127   4.518 -0.1949 -0.0435  0.0258
 2041W        W18888   7.759   7.748   0.274 -0.2028  0.0016 -0.1989
 2042W        W18889   2.575   6.066   2.801  0.0228 -0.2314  0.1614
 2043W        W18890  16.215  18.754   0.520  0.0541  0.0717 -0.0004
 2044W        W18891  13.020   3.768   1.758  0.0538  0.2022  0.3670
 2045W        W18892  10.475  12.426  12.273  0.1390 -0.1221 -0.0475
 2046W        W18893   7.849  17.542   3.911  0.3201 -0.2744  0.2937
 2047W        W18894  11.020  14.939   1.658 -0.1708  0.0165 -0.1169
 2048W        W18895   6.822  11.698  13.063 -0.1323 -0.1368 -0.0807
 2049W        W18896   4.491  16.534  10.487  0.1468 -0.0589  0.1848
 2050W        W18897   2.160  14.138   0.267  0.2922 -0.0565  0.0960
 2051W        W18898   5.823   1.281  13.824 -0.2647  0.2463 -0.3444
 2052W        W18899   7.052   3.559  13.834  0.0661 -0.0464  0.0760
 2053W        W18900   3.444  10.081  12.598  0.3136 -0.2197 -0.0973
 2054W        W18901  10.593  16.452   5.171  0.0185  0.0811  0.0346
 2055W        W18902   5.905  10.953  11.440  0.1106 -0.0734 -0.3874
 2056W        W18903   0.775   5.710   1.558 -0.1886 -0.1771 -0.0030
 2057W        W18904  12.913   0.147  12.989  0.1014 -0.2845  0.0726
 2058W        W18905   0.387  10.513   5.277  0.0787  0.0053  0.1442
 2059W        W18906  16.228  17.550   3.989  0.1228  0.3904 -0.4175
 2060W        W18907  13.096   9.181  13.620 -0.0064  0.0044 -0.2480
 2061W        W18908  13.289   9.089  10.035 -0.2053  0.5153 -0.0043
 2062W        W18909   0.522  16.468  14.316  0.2609  0.0129 -0.3233
 2063W        W18910  10.385  11.859  12.190  0.2762 -0.2966 -0.2806
 2064W        W18911   0.224   0.696  13.947  0.2522  0.0230  0.1104
 2065W        W18912   0.060   8.929  14.037 -0.3278 -0.0047 -0.0654
 2066W        W18913   7.611   5.367  12.284 -0.2659 -0.2426 -0.1912
 2067W        W18914  12.546  14.821   4.101  0.0612 -0.1889 -0.1846
 2068W        W18915   9.118   4.050   3.649  0.2350  0.1458  0.0005
 2069W        W18916  18.737  16.783   4.232  0.0032 -0.0137 -0.0038
 2070W        W18917   5.975  18.245   1.313 -0.0182 -0.2318  0.1549
 2071W        W18918  17.156   2.299   2.877  0.0647 -0.1481 -0.1951
 2072W        W18919  10.834  19.046  10.534 -0.0732  0.0551 -0.0361
 2073W        W18920  19.414   1.195  13.556  0.1608 -0.0018 -0.0257
 2074W        W18921  18.348  17.729   1.089  0.1605 -0.2951  0.1033
 2075W        W18922   4.909   9.262  12.708  0.1983 -0.0076 -0.0210
 2076W        W18923   3.793  19.273  11.134 -0.1651  0.0662 -0.1971
 2077W        W18924   9.750   6.105  12.662  0.1218  0.2366  0.0987
 2078W        W18925   1.263  18.147   9.421  0.0324  0.1016  0.0916
 2079W        W18926   9.034  14.529   3.605  0.1091  0.3397 -0.2284
 2080W        W18927  14.422   2.865   4.886 -0.3651  0.1779  0.0084
 2081W        W18928  10.782   6.114   4.160 -0.2479  0.0916  0.0272
 2082W        W18929   6.792   8.533  11.288  0.0327 -0.1117 -0.1474
 2083W        W18930  17.231  10.297   4.996  0.0654 -0.0298 -0.1085
 2084W        W18931   0.337   0.005   5.346 -0.4345  0.0941 -0.2202
 2085W        W18932   8.997   3.829  12.709 -0.0255 -0.0083  0.3617
 2086W        W18933   0.736   5.422   3.784  0.1058  0.0816  0.2366
 2087W        W18934  19.320  16.945   1.575 -0.2043  0.1359 -0.0834
 2088W        W18935   8.503  12.502  11.815  0.1567 -0.0469  0.2406
 2089W        W18936  12.030  17.235   3.207  0.5927 -0.1506 -0.4817
 2090W        W18937  11.661   6.170   4.198  0.1270  0.0102  0.1760
 2091W        W18938   2.462   2.578   2.195 -0.2082  0.1051 -0.3057
 2092W        W18939   3.803   9.766  12.297 -0.0392 -0.2489 -0.0299
 2093W        W18940  18.098   9.864   0.935  0.3867 -0.5404  0.4713
 2094W        W18941   6.956  14.847  14.583 -0.0878  0.0893 -0.1660
 2095W        W18942  14.210   7.398   1.860  0.1448  0.0582  0.3199
 2096W        W18943   9.676  16.763  14.166  0.1794  0.0008 -0.3041
 2097W        W18944   0.704   1.069   4.242  0.0113  0.3463 -0.1773
 2098W        W18945  14.005   6.341  13.431 -0.0737  0.1751  0.0694
 2099W        W18946   1.696  12.035   3.855  0.0838 -0.0706 -0.4649
 2100W        W18947   7.437   9.927  11.411 -0.0935 -0.0437 -0.0098
 2101W        W18948   1.187   8.236   4.434  0.1143 -0.1591  0.0928
 2102W        W18949  17.237   6.126  11.872 -0.2784  0.0991 -0.2541
 2103W        W18950  17.222  11.745   3.185  0.1417  0.2647  0.0693
 2104W        W18951   7.386  12.531  11.375 -0.3457 -0.2102 -0.0242
 2105W        W18952  18.108  16.264   1.527 -0.0436 -0.1236  0.1046
 2106W        W18953  15.188  14.158   0.652  0.1268 -0.0189  0.0183
 2107W        W18954   6.765  15.375   2.817  0.3158  0.0572  0.1614
 2108W        W18955   0.620   4.399   1.635 -0.3881  0.0035  0.3430
 2109W        W18956   9.090  12.272   3.495 -0.1935 -0.1227 -0.0273
 2110W        W18957  19.368   6.240  14.341  0.0893 -0.1262 -0.2600
 2111W        W18958   6.544  14.773  11.084 -0.4432  0.2196  0.0008
 2112W        W18959   5.833  10.158  13.314  0.0060 -0.3353  0.3333
 2113W        W18960   0.754   6.219   1.438  0.0115 -0.3293  0.1937
 2114W        W18961  10.857  10.283  11.146  0.1650 -0.0606 -0.2707
 2115W        W18962  14.454  18.477   0.204 -0.2336  0.2733 -0.0484
 2116W        W18963  11.919  17.909   0.546 -0.0871  0.0259 -0.0211
 2117W        W18964   8.898  14.978   3.350 -0.3755 -0.0079  0.3828
 2118W        W18965   2.809   2.954   3.981 -0.0596 -0.1211 -0.1204
 2119W        W18966   2.175  16.696   0.034  0.1847  0.0665  0.1902
 2120W        W18967   2.531  12.483   1.785  0.0797  0.1781 -0.0605
 2121W        W18968  15.374   1.654  13.658  0.0001 -0.1147  0.2075
 2122W        W18969  16.612  14.462  14.327  0.0719  0.0677 -0.1092
 2123W        W18970   7.333  17.355  10.620 -0.1034 -0.2970 -0.1565
 2124W        W18971  10.178   1.176   0.431 -0.0065  0.2033  0.0478
 2125W        W18972   5.759  12.231  12.898 -0.0858 -0.0376  0.0448
 2126W        W18973  15.386   1.170  13.955  0.2422  0.0401  0.2761
 2127W        W18974   4.757  15.579  14.288 -0.2161  0.3769 -0.1799
 2128W        W18975  18.194  18.896  11.365  0.1001  0.0548 -0.2311
 2129W        W18976   6.922   0.824   0.193  0.2464 -0.0865  0.0646
 2130W        W18977  12.553  15.317   3.898  0.1404 -0.1149  0.0855
 2131W        W18978   1.557  19.607   4.525  0.3564 -0.0352  0.3430
 2132W        W18979  13.072   0.472   3.730  0.2370  0.0935  0.2327
 2133W        W18980  18.605   1.563   2.173  0.1424  0.0872  0.1489
 2134W        W18981  10.280   3.097   2.302 -0.0701  0.0257  0.0801
 2135W        W18982  17.535   8.953   1.048  0.1968 -0.1973 -0.0548
 2136W        W18983  13.452   8.960   9.580 -0.0757 -0.0785  0.2861
 2137W        W18984  16.998   9.293   3.676 -0.0425  0.0417 -0.2611
 2138W        W18985   0.779  11.930   2.162  0.1227  0.0486 -0.1296
 2139W        W18986   7.871  11.513   4.178  0.1543  0.1077 -0.1499
 2140W        W18987   5.705   4.379  10.106  0.1716  0.2470  0.0556
 2141W        W18988   5.258   7.353   1.992  0.0100  0.2405  0.1698
 2142W        W18989  13.969   7.894  10.868 -0.2887  0.0354  0.1238
 2143W        W18990  15.313   1.916  10.194  0.0416 -0.0677  0.0757
 2144W        W18991  16.481  14.326   9.015 -0.2517 -0.1248 -0.2431
 2145W        W18992   5.904   2.686  13.134 -0.2033 -0.0172 -0.1389
 2146W        W18993   1.576  16.275   3.317 -0.0635 -0.1121  0.1602
 2147W        W18994   4.689   3.290  12.506  0.0551  0.0691  0.0001
 2148W        W18995   0.874  19.077   0.334  0.2157 -0.0360 -0.1738
 2149W        W18996  12.797   8.512  12.123  0.3308 -0.2067 -0.2911
 2150W        W18997  13.183  18.359  12.368  0.2319 -0.5554 -0.0946
 2151W        W18998   7.847   8.503  11.035 -0.0594 -0.1215  0.3486
 2152W        W18999   3.762  14.649   3.658  0.0675  0.0272 -0.3349
 2153W        W19000  15.301   9.145   3.650  0.0227  0.0464  0.0803
 2154W        W19001   3.922  19.233   2.111 -0.0832 -0.3642 -0.1492
 2155W        W19002   5.360   5.840  14.401  0.2666  0.2323 -0.7237
 2156W        W19003   4.729   1.495   2.742 -0.0211 -0.0670  0.0503
 2157W        W19004   3.630  18.886   0.801 -0.0616 -0.1146 -0.3087
 2158W        W19005   2.808  16.015  14.120 -0.0841  0.0171  0.0758
 2159W        W19006  11.703   1.757   3.520 -0.1430 -0.0771  0.2783
 2160W        W19007   4.812  19.464  14.328 -0.0204  0.1023  0.4104
 2161W        W19008   6.851  11.079   3.532  0.3244  0.1345 -0.0462
 2162W        W19009  12.667   2.317   0.049 -0.1635  0.2347 -0.0067
 2163W        W19010  11.339   8.367  10.417 -0.1827  0.0148  0.0135
 2164W        W19011  15.949   6.530  10.761 -0.2131 -0.0535  0.1879
 2165W        W19012   6.263   5.007  12.302  0.2974 -0.1995  0.1391
 2166W        W19013   3.230  17.525   2.224  0.2162 -0.3284 -0.2131
 2167W        W19014  10.139   6.807  10.434  0.1125  0.1718  0.1581
 2168W        W19015   7.177  19.085   3.513 -0.1236  0.3039  0.0899
 2169W        W19016  11.502  14.090  12.512  0.0156  0.0786  0.1432
 2170W        W19017  16.453   6.520   1.666 -0.2534 -0.0354 -0.0693
 2171W        W19018   8.913   6.556   2.468 -0.1671  0.1098 -0.0582
 2172W        W19019   0.158  13.216  10.022 -0.1373 -0.0189  0.1509
 2173W        W19020   9.829   4.022  11.239  0.1994  0.1779  0.1582
 2174W        W19021  12.885  16.342   2.474 -0.1770 -0.2987  0.2242
 2175W        W19022   5.835   2.548   2.643 -0.1207  0.2645  0.1662
 2176W        W19023  10.674   1.993   0.317 -0.0079 -0.1105  0.1896
 2177W        W19024  18.629   3.924  13.631  0.4746 -0.4470  0.1039
 2178W        W19025  18.211  17.977  14.461  0.0779  0.0715 -0.1388
 2179W        W19026   9.549   0.691  14.325  0.0456  0.1128  0.1414
 2180W        W19027   8.271  13.250  12.405 -0.2823 -0.1869 -0.0138
 2181W        W19028   4.632   3.266  10.227  0.2226  0.3092  0.2968
 2182W        W19029   0.652   2.502   1.269 -0.1881  0.1996 -0.1937
 2183W        W19030  14.013  10.892  12.607 -0.3150  0.1622 -0.2750
 2184W        W19031  18.725   5.489  14.331  0.1047  0.0968 -0.0352
 2185W        W19032  14.513   8.441   2.912  0.3055  0.2639  0.4935
 2186W        W19033  15.799   6.359   3.233 -0.0996 -0.0045  0.1536
 2187W        W19034   7.114  16.498  11.234 -0.1437 -0.2144  0.0828
 2188W        W19035  12.499   5.041  10.467  0.2258 -0.0033 -0.0402
 2189W        W19036   1.377  11.900  13.215  0.0915  0.0169  0.1399
 2190W        W19037  10.790   8.468   3.398 -0.0049 -0.0199 -0.1100
 2191W        W19038   9.926   6.660   4.706 -0.2737 -0.3569 -0.1267
 2192W        W19039   1.907  12.799  11.413 -0.2849  0.0401 -0.0891
 2193W        W19040   5.179   1.605  11.121 -0.0022  0.0501  0.2145
 2194W        W19041   0.816   9.797   3.783 -0.1671 -0.0716  0.0205
 2195W        W19042   7.351  18.090  13.342  0.1983  0.0921 -0.0798
 2196W        W19043   5.006  18.525   3.069  0.0014  0.2113  0.6074
 2197W        W19044  10.344  16.796   4.304  0.0279  0.2064  0.1120
 2198W        W19045   8.273  11.214   0.990 -0.1375 -0.4517  0.3169
 2199W        W19046   0.831  14.270   3.552  0.0244 -0.0194  0.0352
 2200W        W19047  16.919  10.864  12.535  0.3134  0.0694  0.2546
 2201W        W19048   3.417  14.265  10.738 -0.0384  0.1522 -0.1664
 2202W        W19049   6.256  11.502  13.878  0.1360 -0.1704  0.2518
 2203W        W19050   4.333   4.976  11.589 -0.2121 -0.0405 -0.0371
 2204W        W19051   3.901   8.199  10.792 -0.2193 -0.1452  0.0722
 2205W        W19052   2.554   2.494  13.934  0.2015  0.0607  0.2241
 2206W        W19053   7.176   8.306   4.650  0.0901  0.1763  0.4448
 2207W        W19054  13.528   8.611   1.870 -0.0305  0.1591 -0.0220
 2208W        W19055   9.320  12.026   1.037  0.1604 -0.2586  0.2536
 2209W        W19056  19.566   2.298   0.034 -0.4285 -0.1187  0.1415
 2210W        W19057  14.434  16.011   1.085 -0.0714 -0.0679  0.1285
 2211W        W19058  15.459   6.296  14.045  0.2458 -0.0941 -0.1991
 2212W        W19059   1.367  19.121   3.714  0.1134  0.4257  0.1648
 2213W        W19060  18.643  13.900  11.334 -0.3277  0.0401  0.1328
 2214W        W19061  10.568   6.757   3.340 -0.1697  0.2161  0.3071
 2215W        W19062   5.179  17.390  14.601  0.1388  0.0475 -0.0253
 2216W        W19063   0.539  10.537   2.702 -0.2825  0.2097  0.0788
 2217W        W19064  15.692  11.510  12.555 -0.0312  0.0009 -0.2264
 2218W        W19065  18.243   3.223  12.227 -0.2934  0.0110 -0.1950
 2219W        W19066  10.308   4.485   1.164  0.1583  0.2735  0.1123
 2220W        W19067  14.188   0.538   1.420 -0.3410  0.1402  0.1799
 2221W        W19068  14.229   3.366  14.300  0.0585  0.0639  0.0321
 2222W        W19069   7.972  11.811  13.978  0.0022 -0.0121  0.1011
 2223W        W19070  16.905   0.765  13.235  0.2445  0.1385 -0.0874
 2224W        W19071  13.950  17.530   2.209 -0.1213  0.2188 -0.0454
 2225W        W19072  18.223   4.877   3.183 -0.1365  0.0313 -0.1610
 2226W        W19073  11.617   7.697   1.958  0.2141  0.2848 -0.1666
 2227W        W19074  12.974  17.867   3.184  0.0145 -0.0184 -0.1112
 2228W        W19075   5.120   8.466   2.724  0.2171 -0.1353  0.3221
 2229W        W19076  10.354   1.501   9.077  0.0527 -0.0390 -0.1478
 2230W        W19077  19.491   6.777   4.544 -0.1883  0.0242  0.4001
 2231W        W19078   5.326   8.344   3.496  0.1158  0.0885 -0.0467
 2232W        W19079   4.391  15.105  11.967  0.4118  0.1369  0.0209
 2233W        W19080   5.109  14.422   0.932 -0.0311 -0.3117  0.0405
 2234W        W19081  16.009  16.098  14.299  0.1083  0.0781  0.2897
 2235W        W19082  17.712  10.768   4.342 -0.1031  0.2643  0.0525
 2236W        W19083   2.306   7.531   1.050 -0.2274  0.0002 -0.3339
 2237W        W19084  17.911   5.306   3.242  0.0580  0.1775 -0.1394
 2238W        W19085  10.666   6.763   3.826 -0.0683  0.0605 -0.0090
 2239W        W19086   5.463   2.647  11.652 -0.0397  0.0451 -0.2252
 2240W        W19087   8.684   5.217  13.369  0.0040 -0.2667 -0.1617
 2241W        W19088   9.991   7.975   3.139  0.1407  0.4618 -0.1951
 2242W        W19089   9.333   8.624  12.003 -0.1613 -0.3231  0.0176
 2243W        W19090  16.806   8.641  11.076  0.3849  0.2675  0.0008
 2244W        W19091  18.370   6.466  10.853  0.1268 -0.0604 -0.1260
 2245W        W19092   6.365   2.305   2.784  0.0671 -0.0931  0.0329
 2246W        W19093   2.625   1.049   4.679  0.0722 -0.0677  0.3582
 2247W        W19094  13.539   6.005   1.445  0.0144 -0.0941  0.3487
 2248W        W19095  10.528  15.960  10.887  0.1460  0.5226 -0.0690
 2249W        W19096  18.729   0.687   0.965 -0.1175  0.0125  0.1503
 2250W        W19097  16.300  14.921   2.679  0.2094  0.2330 -0.1028
 2251W        W19098  16.236  13.498  11.822 -0.1491 -0.1410  0.1505
 2252W        W19099  14.932   9.221   9.735 -0.2016 -0.0339 -0.2181
 2253W        W19100  11.580   4.486   4.316 -0.0342  0.1190 -0.1953
 2254W        W19101   9.072  14.224   1.479  0.0297  0.3694  0.0707
 2255W        W19102  18.888  10.160  11.149  0.1918  0.1594 -0.0156
 2256W        W19103  10.211   5.827   4.420 -0.1351  0.1412  0.0292
 2257W        W19104  13.564   0.433   3.773 -0.1362 -0.0110  0.0185
 2258W        W19105  12.991  17.246   3.088  0.2304 -0.1054  0.3235
 2259W        W19106   3.354  13.668  10.596  0.0574  0.0174 -0.0008
 2260W        W19107   0.113  16.149   4.529 -0.1140  0.0395  0.1012
 2261W        W19108   5.360   1.717  11.549 -0.1322 -0.0625  0.1900
 2262W        W19109  14.093   0.182   2.023  0.3688  0.1314  0.1166
 2263W        W19110  16.825  10.091  13.715 -0.3035 -0.4302  0.0750
 2264W        W19111  13.166   6.138   3.762 -0.0014  0.3368 -0.0552
 2265W        W19112  14.767  15.933   3.995  0.0483 -0.0074 -0.2118
 2266W        W19113  17.953   8.429   1.643 -0.1649  0.2386  0.1814
 2267W        W19114   9.166  10.032   3.231 -0.3874  0.1023 -0.2783
 2268W        W19115  11.213   3.278  12.873 -0.1192  0.2664 -0.1127
 2269W        W19116  14.543   8.060  10.243 -0.0430 -0.0628 -0.2877
 2270W        W19117   4.447   5.268  11.117  0.1618  0.0914  0.2062
 2271W        W19118   0.578   9.070  14.175 -0.0707  0.0178 -0.1140
 2272W        W19119  18.908  10.007   2.622  0.1849  0.2007  0.0715
 2273W        W19120  12.342  15.329  14.252 -0.0048  0.2992  0.0769
 2274W        W19121  15.987  15.865  13.871  0.0756  0.0621 -0.1715
 2275W        W19122   5.458  15.951  12.006 -0.0085  0.0898 -0.1787
 2276W        W19123   0.426  11.478   2.955  0.1821  0.0507 -0.1471
 2277W        W19124   7.407   2.463   9.260 -0.1809  0.0636 -0.0410
 2278W        W19125   8.094   3.077  11.244 -0.0193 -0.2417  0.0661
 2279W        W19126   1.858  17.592  13.635  0.2841 -0.0562  0.1294
 2280W        W19127  18.343  15.181  12.267  0.1105  0.1146  0.2476
 2281W        W19128  13.383   5.150   3.658  0.0052 -0.1317 -0.0384
 2282W        W19129  12.179   1.414  13.925 -0.1996 -0.3225 -0.0991
 2283W        W19130  10.113   3.655   3.878  0.3705  0.0718  0.2071
 2284W        W19131   8.882   1.712  12.057  0.1622 -0.0189  0.0845
 2285W        W19132  11.265  16.434  13.405 -0.0561 -0.2485  0.2612
 2286W        W19133  14.098   0.226  11.342  0.0333 -0.0850  0.2873
 2287W        W19134   2.443   1.889   3.760  0.1232  0.2696  0.2599
 2288W        W19135   9.605  13.540  12.772 -0.0369  0.1645 -0.0786
 2289W        W19136  15.958  17.837  13.396 -0.1445 -0.2328  0.1092
 2290W        W19137   7.231  16.953  11.438  0.0065 -0.3710  0.0114
 2291W        W19138  19.585   0.362   4.459 -0.0246 -0.3072  0.0591
 2292W        W19139  10.009   6.647  13.073  0.2377  0.0852  0.0021
 2293W        W19140   1.625   3.953  13.454  0.1166 -0.1439 -0.0288
 2294W        W19141  12.263   5.997   1.065  0.7280 -0.0687 -0.0688
 2295W        W19142   8.387   3.444  11.483  0.1922  0.2112  0.0459
 2296W        W19143  17.307   5.485   1.017 -0.4657 -0.0824 -0.1058
 2297W        W19144   9.651  17.777  13.347  0.2277 -0.2256  0.0142
 2298W        W19145   3.050  10.996  13.099 -0.1391  0.1246 -0.1726
 2299W        W19146   9.727  16.716   1.352 -0.2815 -0.3394 -0.1817
 2300W        W19147  15.217   2.022   1.252  0.1339  0.2667  0.0963
 2301W        W19148  10.153   5.192   1.473 -0.2727  0.1831  0.0522
 2302W        W19149  16.956   4.415  12.791  0.0294  0.0554 -0.1491
 2303W        W19150   7.278  14.251   1.453 -0.0091  0.1480 -0.1720
 2304W        W19151   4.169   5.538   2.564 -0.3422 -0.0463 -0.0188
 2305W        W19152  18.685  14.192   4.943  0.1206 -0.0705  0.0625
 2306W        W19153   7.934   9.157   0.557  0.1826  0.1167 -0.2494
 2307W        W19154  11.044  16.899  13.253  0.0266  0.3173  0.0187
 2308W        W19155   2.533  10.615   0.849 -0.1895 -0.1215  0.1154
 2309W        W19156   3.013  19.315   9.899 -0.2042  0.2410 -0.1261
 2310W        W19157   5.310   3.453   1.023 -0.0508  0.3169  0.1312
 2311W        W19158   4.578  12.705  10.664 -0.0227  0.1604  0.0237
 2312W        W19159  14.666  16.681   5.370  0.1075  0.3319 -0.0597
 2313W        W19160  16.826   6.996   1.419  0.1256 -0.0109  0.1494
 2314W        W19161  16.310  15.106   3.770  0.2131 -0.0836 -0.1271
 2315W        W19162  18.185   7.639   0.606 -0.0644 -0.1973 -0.0721
 2316W        W19163   7.508  10.294   0.876  0.2806  0.0627 -0.3375
 2317W        W19164  16.301  11.370   1.382 -0.2158  0.0900 -0.0813
 2318W        W19165   1.795   3.457   9.679  0.5404  0.3434  0.0702
 2319W        W19166  15.901   8.930   2.265 -0.3466 -0.4674 -0.2360
 2320W        W19167   2.205  17.746   1.433 -0.1120 -0.2349  0.0005
 2321W        W19168  19.597   0.433  14.341  0.2023  0.2667  0.1034
 2322W        W19169   3.941   4.817  13.384 -0.3443 -0.3585  0.1254
 2323W        W19170  18.698  10.680  13.635  0.1005 -0.2159  0.1037
 2324W        W19171   8.308   0.478  11.133  0.1592 -0.0606 -0.1328
 2325W        W19172   0.945   4.936  12.690 -0.1869  0.1636 -0.2486
 2326W        W19173   2.230   2.107   3.329  0.3029 -0.1028  0.3038
 2327W        W19174  18.875  19.273  11.389 -0.1592  0.1028  0.0243
 2328W        W19175   0.085   3.604  12.187  0.0048 -0.0181  0.0320
 2329W        W19176  18.351   3.705  10.927 -0.1697  0.1464  0.0568
 2330W        W19177   4.810  19.339  13.022 -0.1901 -0.1288 -0.0942
 2331W        W19178  16.971  13.042   0.492 -0.3603  0.2630 -0.2015
 2332W        W19179  11.775   3.265   2.121 -0.1725  0.0985 -0.4423
 2333W        W19180  14.913  17.455  14.077  0.1740 -0.2488  0.2898
 2334W        W19181   9.831   4.862  14.258  0.0165 -0.1249  0.1547
 2335W        W19182   2.494  15.393   4.120  0.0207 -0.4637 -0.3952
 2336W        W19183   4.752   8.212  12.016  0.1485 -0.1153 -0.3188
 2337W        W19184  15.134  17.434   1.156 -0.1059  0.0179 -0.0838
 2338W        W19185   4.550   0.561  12.759 -0.1197 -0.0572  0.1303
 2339W        W19186  16.704  12.127   1.452  0.1058 -0.1041  0.0214
 2340W        W19187   7.697   8.356   2.924  0.0932  0.1002  0.2513
 2341W        W19188   8.956  12.605  11.038  0.1536 -0.1761 -0.2868
 2342W        W19189  17.638  18.214   0.931  0.2823 -0.1301  0.1303
 2343W        W19190  14.460   0.164   1.673 -0.0427 -0.1028 -0.1822
 2344W        W19191  16.426   3.555   1.045  0.1340  0.0556  0.2183
 2345W        W19192   7.295  14.380  12.602  0.2128  0.2706  0.0390
 2346W        W19193  12.692  18.872  13.099 -0.3241 -0.0155  0.3522
 2347W        W19194  17.043  11.805   1.795  0.1159  0.1027 -0.1620
 2348W        W19195  17.839  12.218  14.148 -0.2873 -0.0216 -0.1994
 2349W        W19196   6.757   6.297  13.061 -0.2694 -0.0575  0.2369
 2350W        W19197   0.512   0.486  10.207  0.2367 -0.2146 -0.2519
 2351W        W19198  12.850  14.120   3.554  0.2378 -0.4182  0.3054
 2352W        W19199  12.000   7.294  10.354  0.2445 -0.1536 -0.1590
 2353W        W19200   2.233   6.424   1.825  0.0736 -0.1778  0.0157
 2354W        W19201   5.959  14.617  13.314 -0.2310  0.0903 -0.0505
 2355W        W19202   0.060   1.400   3.664 -0.0141  0.1902 -0.3922
 2356W        W19203   3.977   7.230   3.082 -0.1099 -0.2762 -0.1425
 2357W        W19204   8.840   3.756  13.439 -0.2835 -0.0117 -0.3603
 2358W        W19205   5.013   7.443   4.462 -0.2232 -0.1736  0.3783
 2359W        W19206  17.413  15.802   3.411  0.2941 -0.0428  0.0540
 2360W        W19207  19.170  10.748   2.560  0.0591  0.0022 -0.0825
 2361W        W19208  14.745  18.930  14.137 -0.2025  0.2084 -0.0309
 2362W        W19209   2.429  10.145   2.728  0.3061 -0.1373 -0.2571
 2363W        W19210   2.854  15.257   0.758  0.0336 -0.2820  0.1597
 2364W        W19211  17.365  13.267   3.965  0.1022 -0.1442 -0.1127
 2365W        W19212  19.164  14.780   3.479  0.1055  0.0327 -0.1328
 2366W        W19213   0.858   5.011  13.319  0.0232  0.2263 -0.1903
 2367W        W19214  17.997  14.159   3.639  0.2154  0.0011  0.7940
 2368W        W19215  15.323  12.320   4.204  0.0097  0.1089  0.1309
 2369W        W19216   1.139   2.817  13.934 -0.0341 -0.0590 -0.1218
 2370W        W19217  18.995  13.599   2.625 -0.1202  0.1222  0.0172
 2371W        W19218  14.657   9.973   0.535 -0.3065  0.0363 -0.0326
 2372W        W19219  16.376  14.184  10.004 -0.0306 -0.1742 -0.1957
 2373W        W19220  18.013  18.341   2.227  0.0534  0.0637 -0.1704
 2374W        W19221   2.505  19.523  12.257 -0.2142 -0.3159 -0.1529
 2375W        W19222   5.211   0.637   2.965  0.0338 -0.0427 -0.2103
 2376W        W19223   7.184  11.193  11.350 -0.1494  0.0113  0.1177
 2377W        W19224  16.295  18.938  13.215  0.0415 -0.1680 -0.0403
 2378W        W19225   0.720  17.496   3.964  0.0542 -0.2137  0.1660
 2379W        W19226  12.606  11.165  14.348 -0.0523  0.1605  0.1663
 2380W        W19227  19.397   1.902   2.912 -0.1311 -0.0737  0.0586
 2381W        W19228   3.172  15.971  11.061  0.2520 -0.0195 -0.2398
 2382W        W19229   1.105   2.718  13.197  0.1298  0.2975 -0.2796
 2383W        W19230   0.411  19.144  10.264  0.0779  0.2531  0.2398
 2384W        W19231  11.823   4.723  10.151 -0.0214  0.0570 -0.0713
 2385W        W19232  18.935  15.439  10.833  0.2996 -0.0266 -0.2032
 2386W        W19233  15.326  17.333  14.344 -0.2885 -0.0441  0.2897
 2387W        W19234   4.661   1.688   2.182  0.0708  0.2185 -0.0598
 2388W        W19235   6.417  15.287  10.445  0.4638  0.1349 -0.0723
 2389W        W19236   9.716  16.481   2.975  0.0587 -0.1675  0.1848
 2390W        W19237  16.823  14.013  13.168 -0.3487  0.2222  0.3597
 2391W        W19238   3.845   3.336  12.027  0.1552 -0.2243  0.1581
 2392W        W19239  14.927  17.626   4.811  0.1262 -0.1145 -0.1585
 2393W        W19240   6.179   0.121   4.973  0.0711  0.0783  0.1026
 2394W        W19241   8.586  17.265  10.428  0.1784 -0.2249  0.1367
 2395W        W19242  18.122  13.647  14.343 -0.0517  0.0233 -0.2455
 2396W        W19243   2.036  18.635   1.401  0.2284 -0.2348 -0.0253
 2397W        W19244  12.830  18.362   4.508 -0.4191 -0.0097  0.1731
 2398W        W19245  13.531  19.162  10.728 -0.1253  0.1801  0.2924
 2399W        W19246   7.889   9.668   5.450 -0.0232 -0.0866  0.0956
 2400W        W19247   5.198   8.302  10.184  0.2078 -0.1129 -0.0057
 2401W        W19248   6.701   7.701  10.710  0.0470  0.2039 -0.0081
 2402W        W19249  17.822   6.963  14.551 -0.0834 -0.0167 -0.0610
 2403W        W19250   9.150  16.432   0.663 -0.0249 -0.4674 -0.2415
 2404W        W19251   5.067  11.286  13.851 -0.2290  0.2490 -0.0703
 2405W        W19252   9.164   9.362   0.508  0.0623 -0.3132  0.0027
 2406W        W19253  19.163   4.781   4.289 -0.1208 -0.1197 -0.1346
 2407W        W19254   7.495   3.036  14.031 -0.2576  0.1051 -0.1515
 2408W        W19255  18.036  16.929  12.977 -0.1554 -0.0381  0.2651
 2409W        W19256  11.971  14.617   4.682 -0.0428  0.1784 -0.2394
 2410W        W19257   5.494   4.746   0.397 -0.2590  0.0521 -0.0592
 2411W        W19258   5.892  18.962   2.836 -0.1754  0.1366  0.3494
 2412W        W19259   1.340   5.143  12.507 -0.2903  0.0063  0.1259
 2413W        W19260   7.707  12.998   3.325 -0.2153  0.2516 -0.5084
 2414W        W19261  17.709  15.359  14.480  0.3230 -0.3301  0.4187
 2415W        W19262   2.124   4.193  10.741  0.2056  0.0773 -0.0497
 2416W        W19263  12.047   9.940  12.808 -0.0505  0.2455  0.2927
 2417W        W19264  10.888   6.907  13.816 -0.1247  0.3618 -0.0885
 2418W        W19265   6.955  10.893   3.064  0.0201 -0.0001  0.1541
 2419W        W19266   7.783  17.750   9.272  0.0381  0.1977 -0.0035
 2420W        W19267   4.703   3.268   3.869  0.0358 -0.1284 -0.0787
 2421W        W19268   5.672   2.897   5.018 -0.1059  0.0616  0.1359
 2422W        W19269   4.989   6.206  10.223  0.1314 -0.0503 -0.0428
 2423W        W19270   1.200  14.086  14.342 -0.1230 -0.0911  0.1292
 2424W        W19271   1.645  12.032   0.311  0.0260 -0.2753 -0.1539
 2425W        W19272  11.143   0.383  12.281 -0.1392  0.1656  0.0659
 2426W        W19273  15.280   6.155  14.570 -0.1465  0.2605  0.0523
 2427W        W19274  14.432   9.509   9.520 -0.2205 -0.3307 -0.1775
 2428W        W19275  16.222   6.141  12.853 -0.1596 -0.1347 -0.2150
 2429W        W19276  13.000   3.819  11.326 -0.2191 -0.1111 -0.2842
 2430W        W19277  18.784  17.269   2.041 -0.4376 -0.0809  0.3859
 2431W        W19278  11.869  16.877  10.674 -0.0478  0.0760  0.2446
 2432W        W19279  10.116  12.225  12.521  0.0317 -0.0293 -0.0055
 2433W        W19280  12.705   6.229   4.676  0.2224 -0.0637  0.1035
 2434W        W19281  12.886  13.878   1.105  0.2006  0.2260 -0.0595
 2435W        W19282   4.783   3.910   1.678 -0.1690 -0.0317 -0.1201
 2436W        W19283   6.170  15.014  10.002  0.0943 -0.1343 -0.4513
 2437W        W19284   0.628   1.095  10.266 -0.2025 -0.2407 -0.2601
 2438W        W19285   0.885  13.790   1.513  0.2470 -0.0039 -0.2292
 2439W        W19286   8.019  12.448   4.436 -0.2814 -0.0944  0.2773
 2440W        W19287   3.111   1.239   4.738  0.0057  0.1015  0.1053
 2441W        W19288   9.772   5.612   2.622 -0.0053  0.1352  0.1713
 2442W        W19289  12.704   4.257  11.286 -0.3605  0.1014 -0.3678
 2443W        W19290  11.940   8.549  14.513 -0.2703  0.1171  0.1045
 2444W        W19291  16.981   3.013  14.353  0.2407 -0.7601 -0.2763
 2445W        W19292   5.822  15.353  12.575 -0.2832  0.1997 -0.2503
 2446W        W19293  13.662   4.519   4.164 -0.0381  0.2242  0.3386
 2447W        W19294   4.868   3.460  10.594  0.1162  0.1579  0.0242
 2448W        W19295   2.862  11.435   1.064  0.1341  0.2052  0.1052
 2449W        W19296  14.086  17.015   1.463  0.1497  0.0450 -0.0885
 2450W        W19297   2.609  11.417   2.948 -0.2005 -0.1461 -0.0509
 2451W        W19298  19.297   2.300   3.679 -0.1169 -0.0330  0.2265
 2452W        W19299   0.553   9.596   1.827  0.0219  0.0418 -0.3537
 2453W        W19300  13.130  19.298  10.402  0.2591 -0.0473 -0.1400
 2454W        W19301   5.269   9.047  11.912 -0.1040 -0.0502  0.1989
 2455W        W19302  18.596   6.046   3.500  0.0263 -0.2825 -0.1421
 2456W        W19303   9.047   6.075   3.419  0.0633  0.1162  0.0561
 2457W        W19304  16.555   6.347  14.285  0.0626 -0.1899 -0.1485
 2458W        W19305   3.206  19.068   0.551  0.0510  0.1686  0.0798
 2459W        W19306   4.007   8.862  13.442 -0.0455  0.1191  0.2086
 2460W        W19307   2.516  12.418  13.374  0.4448  0.2434  0.0011
 2461W        W19308   5.977  12.811   4.702 -0.0619  0.0393 -0.1984
 2462W        W19309   7.397   0.060  10.175 -0.0793 -0.3022  0.0155
 2463W        W19310  11.230   3.752   1.462 -0.2564 -0.0925 -0.1562
 2464W        W19311  10.119  15.111   1.630  0.0914 -0.1699  0.0101
 2465W        W19312  11.696   8.102  12.367 -0.0971  0.0689  0.1222
 2466W        W19313  10.992   0.252   4.826  0.2319 -0.3314 -0.2182
 2467W        W19314   8.451   5.219   0.741 -0.3597 -0.1510 -0.0145
 2468W        W19315   1.123  11.506  14.081  0.4117 -0.1124  0.1311
 2469W        W19316   6.763   8.779   3.013  0.1699  0.2369  0.2664
 2470W        W19317   3.603   0.087   3.643  0.0080  0.0914 -0.0039
 2471W        W19318  15.438  11.693  10.383  0.3032 -0.1646  0.0255
 2472W        W19319   3.010  10.302  10.709  0.1941  0.3679 -0.2361
 2473W        W19320   8.907  16.871   0.578  0.1270  0.3897  0.0636
 2474W        W19321  19.189   2.851   1.834  0.0290 -0.1556  0.1624
 2475W        W19322  14.276  10.791  13.458  0.0242  0.0716  0.2478
 2476W        W19323  19.619   3.159   5.091  0.2840 -0.1656 -0.2622
 2477W        W19324  11.820  10.800   3.356  0.0728  0.2179 -0.1735
 2478W        W19325  18.103  10.528   4.231 -0.1001 -0.1933  0.0821
 2479W        W19326  10.210  11.317  14.259 -0.0724 -0.2302 -0.0071
 2480W        W19327   9.409  17.330   3.191  0.2468  0.1280  0.2172
 2481W        W19328   0.311   5.450  14.123  0.0150  0.1160  0.0317
 2482W        W19329   0.808   4.100   1.218  0.0765  0.0266  0.3104
 2483W        W19330   5.845  15.108  14.540  0.2812 -0.1043  0.0930
 2484W        W19331  16.841   0.064   3.423  0.3671  0.2595  0.1293
 2485W        W19332  15.071   0.810  13.680  0.2945  0.0599 -0.0809
 2486W        W19333   7.663  18.433   3.916  0.0270 -0.2217  0.3002
 2487W        W19334  12.049   9.784   4.588  0.3690  0.1092  0.0495
 2488W        W19335  12.074  13.454   2.237  0.4549 -0.0318 -0.1019
 2489W        W19336   8.872  16.412  11.132 -0.2024  0.2130 -0.2233
 2490W        W19337   6.430   0.753  13.903 -0.3490 -0.0891  0.0509
 2491W        W19338   0.168  10.540   0.585  0.0531  0.1456  0.4346
 2492W        W19339   7.696  15.027  11.372  0.2288 -0.0312 -0.1726
 2493W        W19340  18.524   6.580   0.489 -0.0655  0.0984  0.1372
 2494W        W19341   2.130  17.615   0.941 -0.1110  0.1651  0.0469
 2495W        W19342  14.449   7.704  12.282 -0.0410 -0.3303  0.1730
 2496W        W19343   2.276   0.357  13.660 -0.1698 -0.0431 -0.0446
 2497W        W19344   0.313  18.917   0.146 -0.2491  0.1742  0.2433
 2498W        W19345  11.462  10.707   2.036 -0.0575 -0.0841 -0.2141
 2499W        W19346  19.051  16.834  12.703 -0.4350 -0.4503 -0.1765
 2500W        W19347   1.094  19.547  11.476  0.2457  0.0400 -0.0720
 2501W        W19348  18.158   3.610   2.545  0.1775 -0.2234  0.0853
 2502W        W19349   0.519  17.414  11.174 -0.0612  0.1914  0.0521
 2503W        W19350   0.759  11.972   1.127 -0.1995 -0.4265  0.0900
 2504W        W19351  17.348  17.690   3.226  0.0221  0.0862  0.1445
 2505W        W19352   4.380  11.496   2.042 -0.0611 -0.1496  0.3158
 2506W        W19353   6.508  10.082  12.891  0.0081  0.0116 -0.0432
 2507W        W19354  14.508  14.664  14.239 -0.1810 -0.3198 -0.3017
 2508W        W19355  18.798   6.092  14.295  0.0657 -0.0701 -0.5727
 2509W        W19356  10.920   9.058  10.271 -0.1469 -0.0499  0.0870
 2510W        W19357   8.106  13.888  13.280  0.0364 -0.1461  0.0097
 2511W        W19358   4.653   7.989   1.118  0.3508 -0.0880  0.1240
 2512W        W19359  13.203   0.007   3.809 -0.0405  0.0373  0.1321
 2513W        W19360   0.520   4.391  10.795  0.2769 -0.0822  0.2112
 2514W        W19361   1.280   7.734   2.084  0.2278  0.0397 -0.1738
 2515W        W19362  18.161   1.244  11.114 -0.1536 -0.4670 -0.0612
 2516W        W19363   5.904   7.996  13.995  0.1052  0.0177  0.2414
 2517W        W19364  14.463   8.801  10.798  0.0750 -0.2147 -0.0086
 2518W        W19365  14.289  18.874  13.835  0.2592 -0.0643 -0.0465
 2519W        W19366   5.915   0.180  10.188  0.0546  0.1858  0.0437
 2520W        W19367  10.364  14.844   9.426 -0.0086  0.2896 -0.0913
 2521W        W19368   6.025  13.588  11.821  0.0107  0.0680  0.0148
 2522W        W19369  13.165  19.115   0.605  0.1108 -0.0008 -0.2802
 2523W        W19370   9.002  12.573   1.026 -0.1043 -0.1035  0.1857
 2524W        W19371  14.955   7.702   2.586 -0.0948 -0.4220  0.3339
 2525W        W19372   3.151  15.991  14.572 -0.0392 -0.0691 -0.0142
 2526W        W19373   6.088   4.206   2.951  0.1905 -0.1072 -0.1625
 2527W        W19374  17.724   3.278   3.704 -0.0003 -0.1444  0.0418
 2528W        W19375  13.315   3.228   1.098  0.1409  0.0058 -0.0961
 2529W        W19376  17.672  16.770  14.369  0.0944 -0.0193  0.0495
 2530W        W19377   7.496   1.592  12.040  0.1668  0.3901 -0.0730
 2531W        W19378  15.379  19.167  13.468  0.0783 -0.0853 -0.0126
 2532W        W19379  13.958  13.834   4.354 -0.3470 -0.2182  0.1745
 2533W        W19380   1.186   9.502  11.325  0.0555 -0.1080 -0.1416
 2534W        W19381  12.433   9.057   0.968 -0.0200 -0.0447 -0.1635
 2535W        W19382  16.676  12.826  13.384  0.0076 -0.0234  0.0250
 2536W        W19383   7.797  13.923   3.772  0.1958  0.0358  0.0209
 2537W        W19384  18.824  15.505   3.297  0.4089  0.1258  0.0657
 2538W        W19385  12.923  16.981  12.040 -0.0584  0.0545 -0.0652
 2539W        W19386  16.991   1.735   3.101  0.0655  0.1795  0.1194
 2540W        W19387  11.269   1.292  13.454 -0.3467 -0.1929  0.2936
 2541W        W19388  13.054   9.407   4.342  0.0264 -0.0897 -0.1552
 2542W        W19389  19.614  17.480  14.413  0.4383  0.2471  0.1868
 2543W        W19390   2.056   5.260  14.247 -0.1347 -0.1140 -0.0534
 2544W        W19391   1.341   9.888   2.168 -0.0660 -0.0580 -0.0220
 2545W        W19392  17.144  16.755  14.563 -0.0258  0.0285 -0.0237
 2546W        W19393   3.207  18.505   0.700 -0.1632 -0.1508  0.2176
 2547W        W19394  16.357   3.429   1.651  0.1333 -0.0653  0.2657
 2548W        W19395  17.078  15.781  13.708  0.0561  0.0557 -0.0322
 2549W        W19396   6.308  13.722   2.528  0.2353 -0.0643  0.1836
 2550W        W19397   9.246  15.374   1.696 -0.2709 -0.1745  0.3141
 2551W        W19398  10.524   3.158   4.658  0.2353  0.1518  0.0196
 2552W        W19399  12.054  11.363  14.058  0.1523 -0.2108  0.2017
 2553W        W19400  13.461   9.638  10.739  0.2085 -0.1296 -0.1757
 2554W        W19401   6.025   9.857  14.174  0.2995 -0.1592 -0.0156
 2555W        W19402  10.114   1.602  10.091 -0.0873  0.0990  0.1684
 2556W        W19403  11.979  10.667  10.947  0.0250  0.0201  0.2661
 2557W        W19404   2.279   5.154  12.790  0.1032  0.0155  0.1640
 2558W        W19405  10.727   1.517  12.173  0.0301  0.1167 -0.0645
 2559W        W19406   6.023   0.301   2.589 -0.2151  0.1181 -0.1952
 2560W        W19407  15.026  17.488  10.528 -0.0123  0.0770 -0.2856
 2561W        W19408   2.831   2.915   3.492 -0.1403  0.1111  0.2457
 2562W        W19409  10.623  14.147   4.335 -0.0767  0.1870  0.1812
 2563W        W19410  11.833  18.226  12.592  0.1454  0.1904  0.2089
 2564W        W19411   5.112  10.318   1.371 -0.0032  0.1087  0.3004
 2565W        W19412  16.434   6.759   3.159  0.0463 -0.3569  0.4036
 2566W        W19413  14.049  11.814   2.790 -0.0616  0.0875  0.0244
 2567W        W19414  17.694   1.649  12.901 -0.1301  0.1392 -0.0744
 2568W        W19415   4.566  17.190   1.653  0.2473  0.2370  0.0908
 2569W        W19416  13.197  10.826  12.115  0.1011 -0.3002  0.1488
 2570W        W19417   4.450   3.917  13.372  0.0414 -0.1386 -0.0627
 2571W        W19418   0.923   3.672  11.548  0.0289  0.1538 -0.0745
 2572W        W19419   2.095   1.814   4.243 -0.3077 -0.2138  0.1129
 2573W        W19420   9.229   5.310   0.169 -0.0796 -0.0593 -0.0531
 2574W        W19421   3.318   3.270  10.713  0.0620 -0.1099 -0.0325
 2575W        W19422   7.050   4.250  11.781 -0.1065 -0.0080  0.0288
 2576W        W19423  17.181  18.322  14.494  0.2759 -0.0319  0.0872
 2577W        W19424  10.292  17.320   2.405  0.1625  0.1400  0.0080
 2578W        W19425  10.721  10.630   2.420 -0.2940  0.2805 -0.4150
 2579W        W19426  15.155   7.034   9.581  0.3652  0.5171  0.0483
 2580W        W19427   3.381   4.257  12.772 -0.0730  0.0120 -0.0472
 2581W        W19428   4.480   8.413  13.357 -0.0446  0.0513  0.0881
 2582W        W19429  18.714   0.532   0.272 -0.1956  0.1302 -0.4091
 2583W        W19430  12.521  11.501  10.203 -0.0989 -0.0594 -0.2469
 2584W        W19431  12.254   7.620   4.791  0.1429  0.0905  0.1625
 2585W        W19432   5.382  13.714   0.327 -0.1673 -0.4085 -0.1570
 2586W        W19433  15.869   9.920  14.095 -0.3446 -0.1387  0.4126
 2587W        W19434  10.953   5.770  10.736 -0.1016 -0.2721 -0.0468
 2588W        W19435   0.669   4.767   4.876  0.1771 -0.2242 -0.0700
 2589W        W19436  10.100   2.958   1.820  0.0990  0.0446  0.1554
 2590W        W19437   5.679   4.524  13.585 -0.0372 -0.1474  0.2884
 2591W        W19438  15.166   2.637   1.021  0.0854 -0.0399 -0.1502
 2592W        W19439  14.940   9.197   2.845  0.2736 -0.2143 -0.0360
 2593W        W19440   9.420  15.964  12.478 -0.2574  0.1915 -0.1290
 2594W        W19441  12.337   5.516   2.473  0.1824 -0.0285 -0.0316
 2595W        W19442  12.020   6.948   2.084  0.0419 -0.1264 -0.3282
 2596W        W19443   7.022  11.657  11.342 -0.2503  0.2200 -0.0633
 2597W        W19444  15.841   3.867  13.411 -0.1992 -0.2425  0.0525
 2598W        W19445  19.217   8.832  13.925  0.1230 -0.3338  0.1785
 2599W        W19446   7.186  14.396  11.600 -0.2534 -0.2073 -0.1958
 2600W        W19447   1.055  13.048  12.248  0.3596 -0.2617 -0.1786
 2601W        W19448  19.165  12.096  13.975  0.1844 -0.1875  0.0624
 2602W        W19449   4.713  19.061   0.127 -0.2238 -0.1248 -0.0248
 2603W        W19450  10.890   8.586  14.402 -0.0286 -0.0472 -0.3309
 2604W        W19451   4.574   5.696  12.723 -0.0563  0.0751 -0.0834
 2605W        W19452   1.425  10.030  11.406 -0.0429 -0.2062  0.1206
 2606W        W19453  12.083  14.811   1.828 -0.0988 -0.3187  0.1027
 2607W        W19454   3.482  14.383  12.619 -0.2969 -0.0835 -0.2923
 2608W        W19455   7.167  14.816  11.908 -0.2644  0.2611 -0.0317
 2609W        W19456  17.009  18.893   2.459 -0.1197  0.2340  0.1116
 2610W        W19457   9.821  12.662   4.583  0.1310 -0.0661 -0.0157
 2611W        W19458   4.365   9.227  11.538 -0.4180 -0.1874  0.1490
 2612W        W19459  13.453  15.123  13.073 -0.0243 -0.1991 -0.2369
 2613W        W19460   9.511   6.668   5.261 -0.1422  0.0090 -0.2789
 2614W        W19461  17.832   5.571  13.682  0.0607 -0.1001  0.1754
 2615W        W19462   0.827   0.605   1.676 -0.0565  0.0258  0.3363
 2616W        W19463   0.070  18.413  13.386 -0.1584 -0.0843 -0.2130
 2617W        W19464  18.242  15.257  14.165  0.2165 -0.0916  0.3067
 2618W        W19465   7.317  12.937  10.373 -0.4012 -0.1914 -0.0770
 2619W        W19466   7.812   7.923  11.273 -0.1241 -0.0785 -0.1513
 2620W        W19467   7.141   8.364   2.845 -0.0900  0.0096 -0.4102
 2621W        W19468  18.794   4.586  11.326 -0.3884 -0.1890  0.0327
 2622W        W19469   5.247  16.152  11.279 -0.1328 -0.2693 -0.0598
 2623W        W19470   6.085   0.408   4.517  0.0490  0.0616 -0.4443
 2624W        W19471  13.437  15.788  14.239 -0.0574 -0.0594  0.1329
 2625W        W19472  17.842  18.782  13.648  0.1456 -0.1240 -0.3056
 2626W        W19473  19.470   3.133   4.125  0.0773 -0.2757  0.0637
 2627W        W19474  16.697   0.099   2.597  0.0406  0.1069  0.1508
 2628W        W19475  19.014   6.124  11.900  0.0858  0.0323 -0.0855
 2629W        W19476  13.102  11.235  11.280 -0.0834 -0.0871  0.0582
 2630W        W19477   0.762   1.540  13.896  0.0792 -0.0476 -0.1419
 2631W        W19478  15.902  17.082  10.193 -0.3548 -0.1131  0.0860
 2632W        W19479   5.972  18.161  10.589  0.0380  0.3395 -0.0786
 2633W        W19480  11.514   3.932  10.378 -0.0177  0.0362 -0.1277
 2634W        W19481  15.948  16.590   2.431 -0.0872 -0.1341  0.0050
 2635W        W19482   7.333   4.633   2.917  0.1400 -0.0824  0.1039
 2636W        W19483  15.789  13.422  12.233 -0.2906 -0.1626  0.1830
 2637W        W19484   9.001   5.862   3.968 -0.0760  0.0169 -0.2066
 2638W        W19485  12.379   3.056   3.113  0.0574 -0.2024 -0.0626
 2639W        W19486   8.986   2.919   3.282  0.0955 -0.1591  0.0470
 2640W        W19487  12.571  16.015  13.251  0.3812 -0.1655  0.2808
 2641W        W19488  17.869   1.060   3.955  0.1539  0.1107  0.2342
 2642W        W19489   7.637  10.271  14.513 -0.0753 -0.3310  0.1184
 2643W        W19490   1.765   7.820  12.253  0.1009 -0.2128  0.1863
 2644W        W19491   3.343  11.580   4.088 -0.0940  0.2098  0.0156
 2645W        W19492  18.277  18.109   4.225  0.3395 -0.0493 -0.1561
 2646W        W19493   2.562   8.870   5.163 -0.0188  0.1521 -0.0257
 2647W        W19494   4.381   9.283   0.917  0.1602 -0.1540 -0.1922
 2648W        W19495   0.721   2.498   4.710  0.2872  0.1647  0.0167
 2649W        W19496   7.055  11.703   2.628  0.1294  0.0465  0.0887
 2650W        W19497  16.240  18.087  12.966  0.0112 -0.2473 -0.2775
 2651W        W19498   6.198  15.972  11.174 -0.3665  0.0537 -0.0336
 2652W        W19499   7.392  14.616   3.205  0.2557 -0.2401  0.0963
 2653W        W19500  16.111   4.949   3.048  0.1418 -0.4662 -0.0584
 2654W        W19501   3.808   1.310  14.288  0.1372  0.0099 -0.1052
 2655W        W19502  14.263   7.750   1.219  0.0274 -0.1716 -0.1956
 2656W        W19503   9.829  15.586  12.421 -0.1681  0.5993 -0.3400
 2657W        W19504  19.009   6.561   4.639 -0.0685  0.0147  0.6191
 2658W        W19505  14.499   9.178  13.429 -0.1150 -0.1429 -0.0469
 2659W        W19506   0.925  16.196   4.368  0.3106  0.1451 -0.0634
 2660W        W19507  17.620   6.094   5.357  0.1050  0.0505  0.0732
 2661W        W19508   1.163   7.424  14.105 -0.2294  0.2734  0.1552
 2662W        W19509   5.522  14.555  12.279 -0.3109  0.1949 -0.3294
 2663W        W19510  11.445   7.732  12.739  0.1513  0.1927 -0.1076
 2664W        W19511  12.931  17.556  12.058  0.1847  0.0168 -0.0630
 2665W        W19512   4.041  12.646  11.286 -0.0050 -0.1559  0.0122
 2666W        W19513  18.026  13.069  13.600 -0.3044  0.0150 -0.0088
 2667W        W19514  12.590   4.663   3.932 -0.2879 -0.1731  0.0305
 2668W        W19515   1.302  18.708  12.034  0.3047 -0.1072  0.2513
 2669W        W19516  19.446   7.914  11.267  0.0715  0.0636 -0.1011
 2670W        W19517   2.521   9.247   2.310  0.0268 -0.2516  0.0020
 2671W        W19518  19.147  17.218  13.689 -0.0965  0.2630  0.0328
 2672W        W19519   2.696   6.277   4.624  0.2144  0.0743  0.3538
 2673W        W19520  18.429  14.431  13.788 -0.1916  0.2218  0.2160
 2674W        W19521  13.231   4.343  14.518 -0.2407 -0.2426  0.0090
 2675W        W19522  11.321  16.661   0.054  0.0943  0.3215  0.1478
 2676W        W19523   2.753   3.661  10.132  0.2000 -0.2079 -0.2271
 2677W        W19524   9.067  16.128  14.142 -0.1230 -0.0359 -0.0304
 2678W        W19525   0.405   3.965  13.365 -0.0992 -0.2873  0.1291
 2679W        W19526  18.321   8.433   1.243  0.0978 -0.2214 -0.5240
 2680W        W19527  17.651  17.336  13.236  0.0640  0.2270  0.0899
 2681W        W19528   5.615  14.208   3.665 -0.1260  0.1969 -0.1816
 2682W        W19529   8.802   8.658   2.384  0.0307 -0.3771 -0.4557
 2683W        W19530  10.186   0.744   2.617 -0.3777  0.1583 -0.1657
 2684W        W19531  18.019   4.784   0.850  0.3067  0.3291  0.1643
 2685W        W19532   5.086   7.516   1.008  0.1609 -0.1586 -0.0163
 2686W        W19533  15.641   2.157   2.991  0.2448 -0.0122  0.0814
 2687W        W19534  10.997   0.774  14.363 -0.0445 -0.0785  0.2647
 2688W        W19535  15.201   9.658  11.160  0.0246  0.2832 -0.2175
 2689W        W19536  16.044  12.771   1.798  0.0185 -0.0247 -0.2927
 2690W        W19537   9.822  11.816  10.515 -0.0858 -0.0363 -0.0412
 2691W        W19538  13.545   3.279   3.461 -0.0287  0.1067  0.0236
 2692W        W19539   4.124  10.643  12.034 -0.1139  0.1326 -0.2156
 2693W        W19540   8.563   0.751   3.484 -0.0860  0.0704  0.2630
 2694W        W19541   9.825  13.713   0.941 -0.2843  0.0761 -0.0720
 2695W        W19542  10.329   9.284   0.811  0.1960 -0.1492 -0.1230
 2696W        W19543  13.863   1.959   0.424 -0.1206 -0.0855 -0.2128
 2697W        W19544   3.115   3.622  11.563 -0.2012  0.1977  0.3484
 2698W        W19545  11.047  18.742   3.084  0.0613 -0.0517  0.1575
 2699W        W19546   3.533   7.371   4.304  0.1379 -0.1549  0.0322
 2700W        W19547  18.764   4.127  10.577 -0.2375 -0.0327  0.4826
 2701W        W19548   1.692   0.832  11.351 -0.2085 -0.2194  0.0123
 2702W        W19549   5.332   7.469   3.932  0.1857 -0.0696 -0.0846
 2703W        W19550  16.965  12.418  11.657  0.1590  0.0417  0.0447
 2704W        W19551   5.282   1.748   3.930  0.0722  0.3843 -0.0410
 2705W        W19552  14.464  12.976  14.106  0.0749  0.0406  0.2572
 2706W        W19553   6.942  13.601  14.592  0.3216  0.2233 -0.0817
 2707W        W19554  15.330   1.303  10.661 -0.1956  0.1521 -0.0297
 2708W        W19555  14.781  16.379  10.789 -0.0833 -0.0344  0.3699
 2709W        W19556   4.675   1.604  12.711 -0.1915  0.1015 -0.1091
 2710W        W19557  18.948  16.695   1.868  0.0810 -0.1699  0.2432
 2711W        W19558   1.780  12.385   3.325  0.2140  0.1866  0.3495
 2712W        W19559   1.959   0.759   2.415 -0.2166  0.0708  0.1544
 2713W        W19560   0.494   0.728   3.929  0.1657  0.0701  0.0536
 2714W        W19561   0.779  14.407   4.971  0.2460  0.2430  0.0199
 2715W        W19562  19.575  16.774  11.834 -0.1870  0.0253  0.1641
 2716W        W19563  10.985   4.408   3.633  0.1707  0.3412  0.0239
 2717W        W19564  18.348  19.586   0.649  0.2173 -0.0779  0.0984
 2718W        W19565   9.053   8.079   1.482  0.2169 -0.3628  0.3899
 2719W        W19566   9.302   9.662  10.170  0.0013 -0.0879  0.0642
 2720W        W19567   3.772  17.731  13.067 -0.0324  0.0558 -0.0412
 2721W        W19568  14.542  18.662   9.948 -0.0697  0.2823 -0.1338
 2722W        W19569   4.626   1.855  12.192  0.2069 -0.1658  0.0272
 2723W        W19570  16.830  16.759   3.045  0.0448 -0.2118  0.1179
 2724W        W19571  18.335  15.613   3.104  0.0901 -0.2093  0.0247
 2725W        W19572  18.108   2.721   1.568  0.1050  0.0912 -0.1723
 2726W        W19573   0.368  12.783   2.524 -0.0892 -0.1615  0.3251
 2727W        W19574  11.265   4.538   1.903 -0.5475  0.1898 -0.0433
 2728W        W19575  16.411   5.919  10.581  0.3215  0.2533 -0.0051
 2729W        W19576   4.234  17.844  13.292  0.0276  0.0251  0.1581
 2730W        W19577  17.802  11.716  13.927 -0.2390 -0.2746  0.2625
 2731W        W19578  10.460  10.765   5.383  0.1091  0.2382  0.0501
 2732W        W19579   4.370   8.655  10.731 -0.0989 -0.0128 -0.1842
 2733W        W19580  18.422   8.766   0.782 -0.2152 -0.2825  0.4740
 2734W        W19581  14.730  15.399   2.151  0.1553  0.0244  0.3618
 2735W        W19582  18.990  15.492  12.007 -0.2493 -0.0440  0.2622
 2736W        W19583  11.385  10.104   3.505 -0.2043  0.0502 -0.0446
 2737W        W19584   0.813  18.902   2.074 -0.0472  0.2390 -0.1864
 2738W        W19585   8.546   9.028  13.573 -0.1579 -0.4696  0.2763
 2739W        W19586  18.592  17.643   1.510  0.0738  0.1534  0.0444
 2740W        W19587   3.898   9.341  14.603  0.0156 -0.3001 -0.4595
 2741W        W19588   7.941   3.131  10.745  0.0461 -0.1559  0.0379
 2742W        W19589   8.423   8.818   4.032 -0.0350  0.2548  0.1241
 2743W        W19590   4.809   3.648  11.119 -0.0011  0.2254 -0.1394
 2744W        W19591  11.524   6.796   1.896 -0.0733 -0.1250 -0.0710
 2745W        W19592  17.089   3.109  10.327  0.0771 -0.2034  0.1158
 2746W        W19593   5.418  17.373   9.898 -0.0240  0.1258 -0.2367
 2747W        W19594  16.581   9.275  14.227  0.0467 -0.0676  0.1332
 2748W        W19595  19.493  13.882  14.223 -0.3494  0.0504 -0.3026
 2749W        W19596  13.742  17.158  11.305  0.1207  0.1917 -0.3716
 2750W        W19597   4.574   0.760   0.622 -0.0701  0.0296  0.1275
 2751W        W19598  12.466  19.145   4.245  0.2899  0.0560  0.2737
 2752W        W19599   2.151  15.193  13.119 -0.1718  0.0347 -0.1781
 2753W        W19600   8.756   1.268   1.136 -0.1631  0.2627  0.3024
 2754W        W19601   7.731   0.220   9.835 -0.1224  0.3507 -0.0524
 2755W        W19602   5.016  17.522  12.932  0.0120  0.2659  0.0569
 2756W        W19603  16.874   6.139  10.966  0.1922  0.0459  0.2461
 2757W        W19604   8.496  16.914  13.666  0.0626  0.2515 -0.0714
 2758W        W19605  17.184   4.152   5.299 -0.1005 -0.0283  0.0037
 2759W        W19606  11.303   3.284  13.401 -0.4836  0.1139  0.0071
 2760W        W19607  15.440  13.790  13.614  0.2250  0.3867  0.0260
 2761W        W19608  13.493   1.408  11.115 -0.3107 -0.0755  0.1201
 2762W        W19609   1.315   4.895   3.482  0.0946  0.1381 -0.1164
 2763W        W19610  10.134   4.002   4.209  0.1812 -0.2277  0.0214
 2764W        W19611   3.543   1.831  12.471  0.0997 -0.1256  0.1513
 2765W        W19612  17.437   9.805   2.971  0.2083 -0.0606  0.3042
 2766W        W19613  16.436   4.820   0.578 -0.0956 -0.0047  0.0994
 2767W        W19614   5.408   9.891  13.435 -0.1920 -0.1598  0.3291
 2768W        W19615   1.552   2.017  11.570 -0.0504  0.2240 -0.0976
 2769W        W19616   2.842   1.546   3.304 -0.0003  0.0398 -0.0007
 2770W        W19617  15.411  13.361   3.468  0.2999  0.2360 -0.0130
 2771W        W19618   5.411   5.396  12.306  0.0412  0.1653  0.0102
 2772W        W19619  11.648   2.819   0.356 -0.0685 -0.1613  0.0121
 2773W        W19620  15.726  16.857  11.624 -0.2892  0.1013 -0.1040
 2774W        W19621   9.551   0.091   1.155  0.0923 -0.3264  0.2083
 2775W        W19622  18.206   9.161   4.550  0.1405 -0.0044 -0.0282
 2776W        W19623   3.278   0.534   0.428 -0.2825  0.3765  0.0755
 2777W        W19624   1.417   5.260  11.861  0.0650 -0.0391  0.0939
 2778W        W19625  15.413   0.497  10.095  0.0007 -0.5832 -0.2172
 2779W        W19626  13.608  19.405   0.561  0.1075 -0.3420  0.4466
 2780W        W19627  15.037  14.199  12.597  0.3893  0.1967  0.0340
 2781W        W19628   9.510   2.018   3.218 -0.0582 -0.2467  0.3052
 2782W        W19629  16.003   9.219   4.914 -0.0075 -0.2964 -0.0569
 2783W        W19630   1.559   8.294  11.440  0.2905  0.0409 -0.1377
 2784W        W19631   4.639  11.858   4.152  0.1543 -0.0875 -0.0971
 2785W        W19632   9.735   6.517   0.535  0.1072  0.0382  0.0190
 2786W        W19633  17.426   2.477  12.900  0.0493  0.2740  0.2917
 2787W        W19634   0.665   4.017  10.507 -0.0519  0.2341 -0.2464
 2788W        W19635   1.848  13.292  10.676  0.3855  0.2266  0.1003
 2789W        W19636   9.845  14.034  13.523 -0.3729 -0.1267  0.0286
 2790W        W19637  16.397  12.983   4.575 -0.1244  0.3455  0.0299
 2791W        W19638   7.985  18.626  12.202  0.0143 -0.1409  0.3308
 2792W        W19639   3.590   8.360   2.232  0.0205  0.2088 -0.0749
 2793W        W19640  18.852   4.248   2.210  0.1015  0.0570 -0.4091
 2794W        W19641  12.257   9.776  13.830 -0.0520 -0.2624 -0.1206
 2795W        W19642  17.574   3.325  12.660  0.2710  0.0600 -0.0721
 2796W        W19643  13.503  13.549   3.657 -0.2851 -0.0749  0.2294
 2797W        W19644   9.872  17.209  12.599 -0.0010  0.0719 -0.0655
 2798W        W19645  17.864  12.521   4.299  0.1209  0.0256 -0.2087
 2799W        W19646   0.374  15.190  13.086  0.0826  0.0041 -0.1279
 2800W        W19647   7.111   9.539  14.558  0.1067 -0.0808 -0.2480
 2801W        W19648   3.197  18.861   1.159  0.0605  0.1833 -0.0359
 2802W        W19649   5.479  17.917   2.965 -0.0024  0.2196 -0.6067
 2803W        W19650  13.863   9.404   2.766  0.2868 -0.2033  0.0997
 2804W        W19651   8.742  12.789   1.760  0.0734 -0.2155  0.0594
 2805W        W19652  17.011  10.292  13.305  0.0978 -0.2569 -0.1685
 2806W        W19653  19.045   4.171  13.845  0.3461  0.2097  0.0001
 2807W        W19654   8.216  16.897   3.375 -0.1086 -0.0207  0.0461
 2808W        W19655   1.157  10.020   4.613 -0.2222 -0.2137  0.1709
 2809W        W19656  10.816  17.550  13.972  0.1098 -0.0074  0.1664
 2810W        W19657  19.579   2.580   4.069  0.2338  0.1766  0.0563
 2811W        W19658  19.197   7.560   3.794  0.1718 -0.0914 -0.0012
 2812W        W19659  12.121   5.440  11.634 -0.0352 -0.1758  0.0886
 2813W        W19660  18.716   5.640  12.871 -0.4915  0.0319  0.1268
 2814W        W19661  10.956  12.525  13.793  0.1059 -0.0476  0.1143
 2815W        W19662   2.085   0.063   3.293  0.2770  0.2472 -0.2655
 2816W        W19663   0.541  14.746   2.324 -0.4523  0.1430  0.1407
 2817W        W19664   3.501  14.273  12.167  0.0961 -0.1550  0.0781
 2818W        W19665   9.654   8.972   4.110 -0.1599 -0.0765  0.0812
 2819W        W19666   7.006  16.230   0.419 -0.1382  0.0787  0.1080
 2820W        W19667  12.910  14.911  13.711  0.2246 -0.2819 -0.1706
 2821W        W19668  14.014   2.225   9.895  0.2905  0.0943  0.1133
 2822W        W19669   1.861  13.323  11.703 -0.0090  0.1491 -0.2140
 2823W        W19670   3.229   2.986  11.576  0.1468  0.1022  0.1131
 2824W        W19671  13.919   2.647   2.142 -0.0594  0.0655 -0.1830
 2825W        W19672   4.145   9.319  13.197  0.0240 -0.0147 -0.4143
 2826W        W19673  18.545  14.033   0.573  0.4045 -0.0492 -0.4391
 2827W        W19674  12.093  18.982  11.402 -0.0077  0.0642  0.2639
 2828W        W19675   3.065  18.540  12.111  0.2587  0.0772 -0.0419
 2829W        W19676  13.949   1.494  14.217 -0.3436 -0.2757 -0.1063
 2830W        W19677  18.625  18.376   0.989 -0.1456  0.1160  0.1783
 2831W        W19678   9.696   6.629  11.372 -0.3094  0.0407 -0.1166
 2832W        W19679  14.965   6.078  12.341 -0.0094 -0.1078  0.0245
 2833W        W19680   6.296   9.745  14.597 -0.2345  0.0562 -0.1255
 2834W        W19681  18.683   3.424  14.256  0.2513  0.3342  0.1086
 2835W        W19682   7.989  19.324   0.921  0.1162 -0.1598  0.2666
 2836W        W19683   9.317   7.797   4.777  0.0370  0.0056  0.4034
 2837W        W19684   2.388  14.414   2.503 -0.0297  0.1663 -0.1913
 2838W        W19685   4.088  19.501   3.642  0.1964  0.0530 -0.1217
 2839W        W19686  18.662   8.935   4.817  0.0111 -0.2440  0.1551
 2840W        W19687  19.380  10.914  11.832  0.0380  0.2944 -0.2593
 2841W        W19688   9.426  14.680  13.381  0.1885 -0.0446 -0.2408
 2842W        W19689  11.068   3.615  10.166 -0.1499  0.0468 -0.3586
 2843W        W19690  10.714  18.431   2.832  0.0170 -0.1006 -0.1130
 2844W        W19691   8.537   6.718   1.036  0.2014 -0.0114 -0.3458
 2845W        W19692  13.579  13.864  14.033  0.2874  0.0967  0.4256
 2846W        W19693   0.925   2.587   1.683  0.1138 -0.1552 -0.2098
 2847W        W19694  18.057  15.591   0.231 -0.2980  0.1672  0.3521
 2848W        W19695  14.320  16.715  13.221 -0.1521 -0.1973  0.0626
 2849W        W19696  14.831  10.467   0.712  0.2143 -0.4148 -0.0940
 2850W        W19697   2.237  16.820   3.657 -0.0389  0.2275 -0.0088
 2851W        W19698  17.010  17.235  12.381 -0.0410  0.1087  0.1326
 2852W        W19699  10.624  15.825  11.845  0.2172  0.2050 -0.0281
 2853W        W19700   0.493  14.477   2.708  0.0643 -0.1645  0.0274
 2854W        W19701  16.429  11.859   3.487  0.2287 -0.0574  0.1471
 2855W        W19702   4.479  11.478   3.817  0.2295  0.2112 -0.2723
 2856W        W19703  15.144  15.531   3.680  0.0233  0.0646 -0.1004
 2857W        W19704  12.585  16.490  11.375 -0.3497  0.2569  0.0268
 2858W        W19705   6.288  12.968  11.837  0.1570 -0.3736 -0.1665
 2859W        W19706   9.365   1.631  12.191 -0.0996  0.1299  0.1306
 2860W        W19707  11.325   4.724   3.318  0.1662 -0.0721  0.1847
 2861W        W19708  19.394   1.016  13.072 -0.0210 -0.0511  0.0757
 2862W        W19709  10.315  11.914  13.988 -0.2685  0.0418  0.2384
 2863W        W19710   2.249  14.463   3.662 -0.0187 -0.0436 -0.4358
 2864W        W19711  18.004   0.797   3.582 -0.1084 -0.1622 -0.2340
 2865W        W19712  14.395  19.630   0.005  0.1806  0.1265  0.0658
 2866W        W19713  19.581   3.915   1.624 -0.1278  0.2476  0.0224
 2867W        W19714   9.489   7.131  14.386 -0.0116 -0.0157 -0.4050
 2868W        W19715   5.155   9.417  12.264 -0.0499 -0.2289 -0.1058
 2869W        W19716   2.674  17.654   3.961 -0.3461  0.4812 -0.1962
 2870W        W19717   1.581   2.122  13.664  0.3553 -0.0854 -0.0963
 2871W        W19718   6.051  15.681   2.282  0.0257 -0.2764 -0.0481
 2872W        W19719  13.404  14.834  11.587  0.0531  0.2101  0.0880
 2873W        W19720   0.624   0.326   3.007 -0.1594  0.3328 -0.2473
 2874W        W19721  15.950   0.032   0.833  0.1727  0.0461  0.3968
 2875W        W19722  14.296  13.698  12.387  0.1474  0.0058 -0.4153
 2876W        W19723  10.621   5.970   3.732 -0.1580 -0.0822 -0.0541
 2877W        W19724  12.602  17.415   3.809 -0.1326 -0.0772 -0.2243
 2878W        W19725   3.188  14.403   0.450  0.2197  0.2012  0.2520
 2879W        W19726   5.997  18.426   3.173  0.2966  0.0318  0.0296
 2880W        W19727  15.944  14.288   2.258  0.1129  0.1815 -0.2206
 2881W        W19728   9.731  18.194  13.645 -0.3071 -0.0287  0.1333
 2882W        W19729   5.771  12.897   2.409  0.1962  0.0323  0.1681
 2883W        W19730   7.750   0.128   0.360 -0.1309 -0.4147 -0.1441
 2884W        W19731  11.768  15.588   9.404 -0.1523  0.0249  0.1633
 2885W        W19732  12.811   8.344  13.213  0.2556 -0.2408 -0.1676
 2886W        W19733  18.204  15.040   0.773 -0.3152 -0.0588  0.2623
 2887W        W19734  10.054   9.198   3.577 -0.3048 -0.2164  0.1350
 2888W        W19735  16.741   4.235   2.249 -0.0591 -0.2335 -0.0308
 2889W        W19736   9.227   8.362   3.551  0.1103 -0.1896  0.0003
 2890W        W19737  14.430   4.631  14.317  0.1543 -0.0040  0.0358
 2891W        W19738  10.220   4.898  14.523 -0.0414 -0.3641 -0.2247
 2892W        W19739  17.002  10.502  10.507  0.1367  0.0146 -0.4064
 2893W        W19740  17.010  18.000  10.348  0.3603  0.3607  0.2286
 2894W        W19741  12.625   1.816  14.574 -0.1828  0.0839  0.0355
 2895W        W19742   3.566  14.240   0.125  0.0963  0.3925  0.1547
 2896W        W19743   7.735  10.862   1.860 -0.1570  0.2321 -0.3605
 2897W        W19744   8.920  15.588  14.369 -0.0954  0.0581 -0.1530
 2898W        W19745  11.847  14.828   2.556 -0.1988  0.3738 -0.3520
 2899W        W19746   7.208   5.573   4.228  0.3044  0.3104  0.3515
 2900W        W19747   9.496  13.086   9.848 -0.3445  0.2060 -0.0237
 2901W        W19748   7.596  16.387   2.806 -0.2342  0.1047  0.0438
 2902W        W19749  15.282  10.527   1.724 -0.0963  0.1424  0.1275
 2903W        W19750   3.358   4.830   0.108  0.2319 -0.1228  0.0596
 2904W        W19751   1.241  11.987   1.022 -0.1531  0.1537 -0.2986
 2905W        W19752   2.454  18.341   2.982 -0.3163 -0.2696  0.1016
 2906W        W19753   5.494  15.705   3.448  0.0258  0.1476 -0.0089
 2907W        W19754  15.595  17.232  13.288 -0.0256 -0.0926 -0.1278
 2908W        W19755  12.784   3.218   2.237  0.0612  0.1048  0.0532
 2909W        W19756  16.735  10.965  13.910  0.2364 -0.0551 -0.1459
 2910W        W19757  10.068   7.571   1.653  0.0021 -0.2243 -0.0705
 2911W        W19758  15.230   6.548   2.290 -0.2879 -0.4235 -0.0629
 2912W        W19759  13.815  15.691  11.707  0.0695 -0.1740  0.0508
 2913W        W19760   7.614   3.701  12.510  0.4231 -0.0979 -0.0341
 2914W        W19761  19.266  17.822   1.800 -0.1624  0.2167 -0.0235
 2915W        W19762   1.053  18.785  12.981  0.1085  0.1430 -0.1612
 2916W        W19763   5.819   7.485  12.748 -0.3011  0.1943  0.1253
 2917W        W19764  15.289   8.470   4.940  0.2300 -0.0804  0.0786
 2918W        W19765  16.828   4.085   3.743  0.2859  0.1895 -0.0128
 2919W        W19766  10.433  14.318   0.094  0.3064 -0.1052 -0.0590
 2920W        W19767  11.097  11.349   5.168  0.0503  0.3796  0.1898
 2921W        W19768   5.208   1.126  10.409  0.0299 -0.4203  0.0207
 2922W        W19769  16.024   8.019  14.246 -0.1041 -0.0169  0.1083
 2923W        W19770  11.933  15.570   0.948 -0.2790 -0.0977 -0.4500
 2924W        W19771  18.203  13.356   0.194  0.1427  0.2070  0.1363
 2925W        W19772  11.231   5.957   3.966  0.0382 -0.4657 -0.1506
 2926W        W19773  13.679   0.720  13.076 -0.1623 -0.1480 -0.0105
 2927W        W19774  16.093  16.814  13.687 -0.0610  0.0173 -0.0165
 2928W        W19775   8.221  15.952  10.509 -0.2633 -0.2568  0.1682
 2929W        W19776  11.229  16.676  10.041  0.0300  0.4109 -0.0528
 2930W        W19777  15.603  19.194   1.360 -0.3822  0.2549  0.0545
 2931W        W19778  16.949   9.403  10.498 -0.3782 -0.1944 -0.2544
 2932W        W19779   1.988  18.462   2.822 -0.2812 -0.0616  0.3967
 2933W        W19780   3.009  16.639  14.225  0.1676  0.1056  0.2816
 2934W        W19781   1.168  19.269   1.566  0.1680  0.0868 -0.0671
 2935W        W19782   0.381  19.573  12.670 -0.1363  0.1707 -0.2316
 2936W        W19783  14.254   3.145  11.334 -0.1869  0.0857 -0.2482
 2937W        W19784   0.036  12.923  12.968 -0.0021  0.1171  0.1294
 2938W        W19785  17.988  11.053  13.356  0.3600 -0.4303 -0.0351
 2939W        W19786   7.620   7.579  10.899  0.2997  0.3843 -0.0257
 2940W        W19787  12.155   6.471  13.308  0.0526  0.1634 -0.0526
 2941W        W19788  13.685   1.879   9.535 -0.0732 -0.2372  0.3366
 2942W        W19789   1.974   7.339  12.993  0.1320  0.1609 -0.0959
 2943W        W19790  17.247  17.323  10.294  0.4261  0.2230  0.2465
 2944W        W19791  18.402   1.468   5.234 -0.0476  0.1518 -0.1167
 2945W        W19792   6.979  16.101   3.493 -0.0474  0.1366 -0.2645
 2946W        W19793  18.880  18.282   2.005 -0.3861  0.0970  0.1176
 2947W        W19794  10.984   4.471  12.148  0.2813 -0.1536  0.0127
 2948W        W19795   6.165   8.570  10.319  0.0583 -0.0967 -0.2459
 2949W        W19796   0.223   8.871   5.106 -0.0117  0.2106 -0.0300
 2950W        W19797  13.032   7.304   1.824 -0.1149 -0.0542  0.0903
 2951W        W19798  17.363   9.802  11.185  0.4233 -0.0285 -0.0513
 2952W        W19799   7.688   2.341   2.943 -0.2211  0.0838  0.0344
 2953W        W19800  17.540  12.091   0.735 -0.0152 -0.0339  0.0859
 2954W        W19801  13.486   1.530  11.969 -0.0116  0.0977  0.0785
 2955W        W19802  17.703   4.882   1.355  0.0956  0.3664  0.1408
 2956W        W19803  17.901  13.396   4.043  0.1066 -0.3088  0.5892
 2957W        W19804   4.490   7.278   3.268 -0.0022  0.3954 -0.0119
 2958W        W19805   8.480   2.199   4.955  0.2670  0.2534 -0.1211
 2959W        W19806  10.464  17.524   0.684  0.5128 -0.1000  0.0372
 2960W        W19807   7.240   9.284   4.149  0.1985  0.2163  0.0692
 2961W        W19808  16.262   4.291  12.714 -0.1435 -0.0406 -0.2351
 2962W        W19809  18.904   6.095  10.195 -0.3598  0.4183  0.0442
 2963W        W19810  15.635   0.825  14.224  0.1525 -0.1847  0.0630
 2964W        W19811   1.686  15.988   0.311  0.0565  0.4594  0.1550
 2965W        W19812   9.659   0.531  11.274  0.0081 -0.2537  0.1472
 2966W        W19813   2.157  16.671   2.468 -0.0329  0.4333  0.0283
 2967W        W19814   6.988  16.595  14.209 -0.0681  0.0194  0.2864
 2968W        W19815   3.199  18.203   4.413  0.2056  0.1672 -0.1114
 2969W        W19816   6.582  11.570  11.788 -0.0316 -0.1453  0.0241
 2970W        W19817   1.828   0.911  10.669 -0.1712  0.2114  0.1195
 2971W        W19818   3.916  18.614   3.803  0.2222  0.1746 -0.0007
 2972W        W19819   6.892  15.283  11.832 -0.2049 -0.1699 -0.2530
 2973W        W19820  17.797  15.835   3.021  0.0281  0.5575 -0.0555
 2974W        W19821  13.523  11.305   1.512  0.1784  0.4329  0.2559
 2975W        W19822  14.485   4.067  11.667 -0.2605 -0.3063 -0.1264
 2976W        W19823   0.468  18.159   4.753 -0.0114 -0.1836  0.1181
 2977W        W19824  16.742   6.681  13.923  0.0132 -0.4150  0.0809
 2978W        W19825  14.011   5.755   4.301 -0.1038  0.0727 -0.3691
 2979W        W19826  10.425   1.094   2.260 -0.0981 -0.1739 -0.0043
 2980W        W19827  19.132  17.684   3.195 -0.1233 -0.3162 -0.0128
 2981W        W19828  18.168   9.229  13.104  0.0517 -0.0300  0.0819
 2982W        W19829  17.926  15.767   9.517  0.3982  0.1519 -0.0345
 2983W        W19830  13.499   9.199   3.709  0.1239 -0.0375  0.0725
 2984W        W19831   9.690   7.246   1.666 -0.3345  0.2765 -0.1328
 2985W        W19832  16.816   2.735  12.149 -0.2916 -0.1799 -0.0167
 2986W        W19833   5.657  12.732   3.483  0.1889  0.0420 -0.1496
 2987W        W19834  13.190   4.978  12.603 -0.0594  0.2455 -0.1202
 2988W        W19835   2.639   8.437  12.418  0.1088 -0.2392 -0.3672
 2989W        W19836  12.458   9.006   3.077  0.0561 -0.6563  0.1408
 2990W        W19837   1.553   8.478   9.715 -0.0434 -0.2597 -0.1062
 2991W        W19838   4.273   9.658  12.020 -0.3660 -0.1107 -0.0689
 2992W        W19839   4.808  18.198  11.322  0.0089  0.0243  0.0260
 2993W        W19840   6.945   4.100  10.505 -0.1854 -0.0341  0.1221
 2994W        W19841  14.827   5.655   2.499  0.3265  0.0743  0.0833
 2995W        W19842  11.059   1.304  11.119 -0.0493 -0.1938 -0.0313
 2996W        W19843   5.016   3.355   3.476 -0.1146 -0.5251  0.0885
 2997W        W19844  18.336   2.076  13.328 -0.1529  0.1322  0.1307
 2998W        W19845   0.322   2.432  14.372 -0.0991 -0.0125 -0.1757
 2999W        W19846   3.394   7.047   4.821 -0.0699 -0.2600 -0.4158
 3000W        W19847   5.072  18.047   4.281 -0.4143  0.0180 -0.2363
 3001W        W19848  11.907   2.059   3.052 -0.2340 -0.0207 -0.3409
 3002W        W19849   7.520   5.760  10.812  0.0920 -0.1701  0.0868
 3003W        W19850  18.676   4.173   0.859  0.2124  0.1374 -0.0616
 3004W        W19851   2.110   4.715  11.616  0.0738 -0.0373 -0.1439
 3005W        W19852   2.378   4.356  13.867 -0.0173 -0.1523 -0.1044
 3006W        W19853   3.461  14.276   3.806  0.0296 -0.0256  0.0040
 3007W        W19854   5.585   2.180  11.586 -0.1263  0.1910  0.1412
 3008W        W19855  15.978   6.017   0.489 -0.2035 -0.0059 -0.1809
 3009W        W19856  11.007   7.386  11.402 -0.0238  0.1846  0.1753
 3010W        W19857   7.643  11.090  12.372 -0.1422  0.1484 -0.1709
 3011W        W19858   0.548  18.368   4.211 -0.0930 -0.2943 -0.0498
 3012W        W19859   5.522  11.112   1.254 -0.0890  0.2715 -0.0715
 3013W        W19860  13.393   6.467  14.481  0.1312 -0.0951  0.0479
 3014W        W19861   0.153   8.224   0.708  0.2420 -0.0381  0.2903
 3015W        W19862   5.611  15.338  11.116 -0.1962  0.0928  0.0457
 3016W        W19863  17.484   1.651  14.079 -0.3387 -0.0930 -0.0653
 3017W        W19864  19.056  12.095   4.122  0.0969  0.1034  0.2144
 3018W        W19865   7.800   8.807   0.198  0.1050  0.0776  0.1726
 3019W        W19866   8.899   0.365   2.776  0.1190 -0.0261 -0.1916
 3020W        W19867  10.916  15.530   4.928  0.0338  0.1322  0.0760
 3021W        W19868   5.247  11.985  11.019  0.0260  0.2880  0.0616
 3022W        W19869   7.695   7.201   0.848 -0.2476  0.1114 -0.1613
 3023W        W19870   9.007  14.532   1.024 -0.0499  0.0534 -0.0428
 3024W        W19871  15.424  19.326  11.896 -0.1384 -0.3218  0.3279
 3025W        W19872   1.776  11.498   0.118  0.0532 -0.1938 -0.0470
 3026W        W19873  19.492   8.378  12.666 -0.0883  0.2570  0.2979
 3027W        W19874  18.928   1.708   3.073  0.2279 -0.1614  0.2618
 3028W        W19875  18.350  19.442   1.987 -0.5393  0.1710  0.2305
 3029W        W19876  12.495   0.826  14.456 -0.1556  0.0019 -0.2134
 3030W        W19877   9.730   5.669   4.464  0.2195  0.1459  0.2616
 3031W        W19878  10.996  10.465   2.016  0.1324  0.1196 -0.0613
 3032W        W19879  15.197   7.704  10.699 -0.2671 -0.0910 -0.0011
 3033W        W19880   4.981  10.134  11.641 -0.3190 -0.1425 -0.2321
 3034W        W19881   2.993  14.100   3.662 -0.3124  0.3403 -0.0713
 3035W        W19882  11.790  12.190   1.616 -0.1036  0.2285  0.0077
 3036W        W19883  19.435   8.298  12.072 -0.1498 -0.1967  0.1735
 3037W        W19884   8.731  10.408   9.906 -0.3014 -0.3381 -0.0554
 3038W        W19885  19.608   2.153   3.355  0.0665 -0.1199 -0.0921
 3039W        W19886  13.173  13.366   1.631 -0.1977  0.1654  0.1568
 3040W        W19887  10.152   7.458   0.640  0.0663 -0.2742  0.0675
 3041W        W19888  13.763  14.245  11.969 -0.2034  0.2431  0.0207
 3042W        W19889  15.700   8.109   0.452 -0.1324  0.1268  0.5267
 3043W        W19890  14.507   2.538   2.565  0.2666 -0.0445  0.2802
 3044W        W19891   5.406  14.531  11.117  0.0282 -0.1499  0.0823
 3045W        W19892  13.796   2.776   4.446 -0.3476 -0.1269 -0.2622
 3046W        W19893  15.292   2.117   5.388 -0.0924  0.2096  0.3330
 3047W        W19894   7.223  17.970   2.216  0.4238 -0.0414  0.1002
 3048W        W19895  17.851   0.250   0.721  0.1009  0.1546 -0.1768
 3049W        W19896  18.729  12.391   4.332  0.0326 -0.2958 -0.1297
 3050W        W19897  14.904  15.020   2.924 -0.4049 -0.1136  0.0587
 3051W        W19898  12.641  18.321   0.777  0.1658  0.0864  0.2337
 3052W        W19899   3.195   2.237  12.233  0.1271 -0.1433  0.0265
 3053W        W19900   8.031   6.925   1.670  0.0904 -0.0832  0.1135
 3054W        W19901   0.965  14.986  13.717 -0.0168  0.4297  0.0233
 3055W        W19902   4.202   1.094  12.783  0.0887 -0.2974 -0.0777
 3056W        W19903  15.947  15.586  12.052 -0.0665  0.0637  0.0381
 3057W        W19904  16.982  17.716  13.210 -0.1032 -0.0820 -0.1442
 3058W        W19905   7.181  14.422  14.555  0.0024  0.0871 -0.0109
 3059W        W19906  10.815   8.214  13.188  0.1182 -0.0584  0.0730
 3060W        W19907   7.629   7.085  11.101 -0.3182  0.0203 -0.2545
 3061W        W19908  11.875   8.351   3.190  0.0876  0.0505 -0.1101
 3062W        W19909  11.022  14.937  11.675 -0.0887 -0.1292 -0.0314
 3063W        W19910   6.796  15.747   4.607 -0.1191 -0.0067 -0.2602
 3064W        W19911  14.415   5.166   1.918 -0.2187  0.1706 -0.0194
 3065W        W19912   2.879   2.757   9.976  0.0735  0.1180 -0.2128
 3066W        W19913   2.459  10.957   0.086  0.3415  0.2754 -0.0129
 3067W        W19914   3.557  12.749   5.036  0.0704  0.0059  0.1422
 3068W        W19915  11.008   9.590  11.469  0.0574 -0.0714  0.0295
 3069W        W19916   2.528   3.073   0.322  0.1449  0.0854  0.1850
 3070W        W19917   6.517  12.208  13.818  0.0487 -0.2137  0.3623
 3071W        W19918   6.665   5.874   0.068  0.1322 -0.0420 -0.3143
 3072W        W19919   2.751  14.578  11.606 -0.2567  0.1207  0.0046
 3073W        W19920  18.483  16.157  12.551 -0.2418  0.0882 -0.3694
 3074W        W19921   7.262  11.134  11.912  0.0465 -0.1575 -0.2406
 3075W        W19922  12.597   7.572   2.207  0.1092  0.1590  0.1156
 3076W        W19923   4.570   9.675   4.624  0.1263  0.0482  0.0497
 3077W        W19924  17.859  12.392   1.949  0.0025 -0.0160  0.0438
 3078W        W19925  11.771   9.680  13.945  0.1995 -0.2035  0.3545
 3079W        W19926   3.745  15.819   4.695  0.1264  0.2768 -0.3039
 3080W        W19927  12.479   9.918   3.717  0.3038 -0.1995  0.2000
 3081W        W19928  12.409   2.738  14.432 -0.2078 -0.0910  0.1620
 3082W        W19929  18.362  15.811   3.559 -0.1411  0.2189 -0.1617
 3083W        W19930  15.534   2.352   1.421  0.1578 -0.0816  0.0999
 3084W        W19931   5.593   7.606  10.702 -0.0014  0.2390  0.2301
 3085W        W19932  10.765  10.970  13.151 -0.2465  0.1701 -0.0447
 3086W        W19933  11.975  13.886  10.344 -0.1643 -0.4220 -0.0930
 3087W        W19934   6.475  10.032  10.325  0.0390  0.0402  0.0511
 3088W        W19935  14.375  17.547   1.501  0.0737  0.1401  0.2217
 3089W        W19936   3.385  19.261  10.819  0.2801 -0.1906 -0.4883
 3090W        W19937  13.930  18.821   2.641  0.0629 -0.0978 -0.2439
 3091W        W19938   2.984  10.128   1.601 -0.2683 -0.2282 -0.2320
 3092W        W19939   5.870   2.467  11.914  0.0937 -0.2387  0.2014
 3093W        W19940  10.993   2.497   2.311  0.3971  0.1146  0.0696
 3094W        W19941  12.469   1.347  14.381 -0.2232  0.4200  0.2016
 3095W        W19942   2.421  13.008  13.157 -0.1203  0.0807  0.0481
 3096W        W19943   3.553  15.195  11.706  0.0994  0.0428  0.1777
 3097W        W19944  19.285   7.957   3.114 -0.1162 -0.3473  0.1254
 3098W        W19945   4.800   4.318   3.630  0.0291  0.0897  0.0593
 3099W        W19946  12.673  16.676  10.093 -0.2855 -0.0461  0.0634
 3100W        W19947   1.885   3.642   3.184  0.0079  0.0271 -0.0273
 3101W        W19948  17.030   0.304  11.656  0.1357 -0.0215  0.1807
 3102W        W19949  13.452  17.707   2.012  0.1084  0.0876  0.1449
 3103W        W19950  19.311   2.786  13.776 -0.0683 -0.0206  0.1042
 3104W        W19951   3.569   2.939  12.020  0.1086  0.2926 -0.1483
 3105W        W19952  18.491   8.539   4.577  0.1444 -0.2237 -0.0485
 3106W        W19953  11.389   6.902  11.970  0.1549  0.0509  0.2348
 3107W        W19954   8.984  12.415   1.984  0.2113  0.4084 -0.3262
 3108W        W19955  14.823  15.403   3.270  0.0207 -0.0741  0.0516
 3109W        W19956  13.884   9.408  14.199  0.3593  0.2136 -0.0107
 3110W        W19957  10.417  11.423  11.535  0.1526 -0.0340 -0.1302
 3111W        W19958  16.387  19.200  10.483 -0.1129 -0.3498 -0.2683
 3112W        W19959  13.450   8.698   3.773  0.1293 -0.1381  0.2195
 3113W        W19960   9.945   0.603   4.200 -0.0503 -0.1960 -0.1306
 3114W        W19961   6.245  13.444  10.369  0.0016 -0.1605 -0.0346
 3115W        W19962  14.084  12.833  12.711 -0.2440  0.1171  0.1482
 3116W        W19963   5.871   8.390  12.688  0.0566  0.1596  0.0390
 3117W        W19964   2.896   8.483   4.914  0.0606 -0.1184 -0.1271
 3118W        W19965   0.283  15.971  11.475  0.2026 -0.1862 -0.1060
 3119W        W19966   5.179  13.618  12.908  0.0185 -0.0320  0.0350
 3120W        W19967  16.560   2.383   3.432 -0.1563  0.1670  0.1280
 3121W        W19968   8.435   0.483   0.805  0.0562 -0.0271 -0.1619
 3122W        W19969  10.081  11.662   5.414 -0.2075 -0.1335 -0.0766
 3123W        W19970   9.328   4.197  10.603 -0.3063 -0.0042 -0.1101
 3124W        W19971   5.895  13.851   0.371  0.1162  0.0086 -0.2032
 3125W        W19972  16.935  15.610   4.305  0.0185  0.2945  0.0953
 3126W        W19973  14.955   5.097   5.654 -0.2611  0.0355  0.1655
 3127W        W19974  13.528   0.560   1.377 -0.1123  0.3539 -0.2044
 3128W        W19975   4.647  16.167   0.492 -0.0045 -0.1809  0.0031
 3129W        W19976  13.117  14.998  12.703 -0.0003  0.3190 -0.0026
 3130W        W19977   3.419  12.661  11.097 -0.0375 -0.1860 -0.2147
 3131W        W19978  13.312  19.081  14.114 -0.0297  0.1184 -0.0831
 3132W        W19979  16.572   9.918  11.186  0.0987 -0.1777 -0.1757
 3133W        W19980  17.297   7.277  11.064  0.2916  0.0796 -0.1771
 3134W        W19981   7.053  15.505  13.153  0.0807  0.0273 -0.0034
 3135W        W19982   2.955  18.034  13.818  0.2943 -0.0492  0.1876
 3136W        W19983   9.235   3.670   4.020  0.1682  0.2445 -0.0834
 3137W        W19984   5.886  10.398   3.557 -0.2474 -0.1598  0.0710
 3138W        W19985   8.654   3.115   5.226 -0.1109  0.0203  0.3076
 3139W        W19986   4.707  16.757   3.946  0.0110  0.0400  0.1407
 3140W        W19987   6.472   0.066  10.472 -0.1376  0.0599 -0.4055
 3141W        W19988   0.658  11.736  11.510 -0.2205  0.2673 -0.0483
 3142W        W19989   8.520   4.731  14.477  0.1460  0.1144 -0.0937
 3143W        W19990  13.350   9.295  12.135  0.1827  0.0621 -0.3327
 3144W        W19991  10.175  12.034  10.816 -0.0431 -0.4454 -0.1244
 3145W        W19992   8.474  13.314  14.147 -0.1859 -0.2601 -0.1337
 3146W        W19993  16.436  15.307   0.020 -0.1286 -0.0762  0.0599
 3147W        W19994  14.033  10.233   0.315  0.1187 -0.2153 -0.0769
 3148W        W19995  11.249   5.497   0.132 -0.1025  0.0981 -0.2437
 3149W        W19996  12.268   6.025   2.737  0.0039 -0.1773  0.3256
 3150W        W19997   5.768  13.845  14.450 -0.2667 -0.1139  0.2871
 3151W        W19998   1.250  15.091  13.378  0.2549  0.0184  0.1561
 3152W        W19999   3.520   9.876   5.136  0.1315  0.3198 -0.0309
 3153W        W20000  18.554  18.179   3.212 -0.2373 -0.1039 -0.0227
 3154W        W20001   4.856  19.276  13.788  0.1846  0.1771 -0.0893
 3155W        W20002   5.855  16.754  13.827  0.1081  0.0170  0.2160
 3156W        W20003   4.678   5.350   2.545 -0.3321  0.1470  0.0981
 3157W        W20004  14.982  14.088   4.626  0.2720 -0.1241  0.1515
 3158W        W20005  18.649  12.956  10.735 -0.0672  0.0199 -0.2513
 3159W        W20006  16.621   4.367   5.464 -0.3546  0.1376  0.0653
 3160W        W20007  16.602   6.466   2.798  0.1753  0.1810  0.1229
 3161W        W20008   3.680  12.881  14.508 -0.3605 -0.0429  0.0975
 3162W        W20009  18.835   9.319   3.793  0.0652  0.0575  0.0596
 3163W        W20010  14.936  12.977  10.934  0.0613  0.0828  0.1159
 3164W        W20011   8.824   4.013   2.804  0.0391 -0.0585 -0.1231
 3165W        W20012   0.976  13.737  13.724 -0.2065  0.0445  0.1633
 3166W        W20013   8.114  11.544   1.478 -0.2145  0.0760  0.2880
 3167W        W20014   8.707   9.736  11.811  0.0051  0.0912 -0.4686
 3168W        W20015  15.200  11.112  11.214  0.3025  0.2140  0.1599
 3169W        W20016   3.736   6.737   4.094 -0.4404  0.0202  0.3355
 3170W        W20017  18.987   6.880  13.255  0.0386  0.3679 -0.3821
 3171W        W20018  15.516   6.548  11.692  0.2442  0.0724 -0.3443
 3172W        W20019  17.941  12.637   3.317  0.0092  0.0181 -0.1172
 3173W        W20020  16.003  18.121   3.619  0.1585  0.1421 -0.0406
 3174W        W20021   9.312   9.497  13.001 -0.1336 -0.0938  0.0480
 3175W        W20022   2.931  19.069   4.712  0.3173 -0.4115  0.0804
 3176W        W20023  18.790  18.823   4.717 -0.0985  0.1816  0.0398
 3177W        W20024   1.597  19.071   4.447  0.2557 -0.2931  0.3155
 3178W        W20025   4.350  13.102   3.335 -0.3538 -0.1220  0.0226
 3179W        W20026  15.588   8.548  11.819 -0.1015 -0.0108 -0.0558
 3180W        W20027   4.994  14.188   2.587 -0.5440 -0.1033 -0.1081
 3181W        W20028   5.648   0.241   1.589  0.0818  0.1580  0.3665
 3182W        W20029   2.182   0.727  11.055 -0.0521 -0.2406 -0.1839
 3183W        W20030   0.169  13.565  10.395 -0.0050  0.2159  0.0526
 3184W        W20031   2.205  15.332  13.623 -0.4362  0.0803  0.2078
 3185W        W20032   7.306  12.829   0.734  0.1518 -0.0766 -0.1908
 3186W        W20033   8.267   6.698   0.089  0.3016 -0.0739 -0.0546
 3187W        W20034  12.495  16.861  12.706 -0.2171 -0.1369  0.1294
 3188W        W20035   6.762  12.135  12.754 -0.0342 -0.1678  0.2683
 3189W        W20036   2.141   8.988   3.559  0.1643 -0.0438 -0.3364
 3190W        W20037   9.616  11.309  10.574  0.1785  0.1304  0.1039
 3191W        W20038  12.413   8.446   9.722 -0.1698  0.0431 -0.2576
 3192W        W20039  12.397   4.342   1.036  0.1130 -0.5894 -0.1183
 3193W        W20040   6.613   2.668   0.324 -0.1277  0.2105 -0.6659
 3194W        W20041  14.541   9.810  13.943 -0.0904  0.0523  0.0414
 3195W        W20042   1.825   7.192  13.446  0.2195  0.1741 -0.2256
 3196W        W20043   5.410   7.328   4.726 -0.1487  0.0153  0.0855
 3197W        W20044   8.780   7.433  13.747  0.1951  0.0342 -0.2055
 3198W        W20045  18.580   7.202   4.198 -0.0571 -0.1604 -0.1535
 3199W        W20046   1.873  10.440   4.689 -0.3068  0.0520 -0.0729
 3200W        W20047  12.558  18.986   2.645 -0.2125  0.0927 -0.0880
 3201W        W20048   0.017  19.430   1.808  0.0018 -0.0162 -0.0707
 3202W        W20049  16.316  15.354   2.931  0.0704 -0.1876 -0.0052
 3203W        W20050   5.334  11.837   1.493 -0.1727 -0.2204  0.0914
 3204W        W20051  13.463   2.273  11.508  0.0031  0.0438  0.1561
 3205W        W20052  13.269  19.593  10.750  0.1416 -0.0520  0.2009
 3206W        W20053   3.181   8.352   3.591 -0.0835 -0.1531 -0.2159
 3207W        W20054  15.783  15.248  12.572 -0.1714 -0.0561 -0.0111
 3208W        W20055   8.132  10.357  10.749  0.2258  0.2767  0.2456
 3209W        W20056   8.592   0.783  10.581  0.6787  0.0335 -0.1091
 3210W        W20057   8.924  11.276   0.343  0.1813  0.2105 -0.1990
 3211W        W20058  19.349  17.868  12.681 -0.0592 -0.0708  0.1140
 3212W        W20059  12.411   0.340  12.166 -0.0668 -0.2318 -0.4601
 3213W        W20060  17.201   4.953   1.240 -0.1461 -0.2398 -0.0669
 3214W        W20061   3.950  15.621  12.942 -0.2316  0.0168  0.2576
 3215W        W20062   1.133  13.366   2.319  0.0158  0.2534  0.1234
 3216W        W20063  13.201   8.760  13.883  0.0534 -0.1440  0.1940
 3217W        W20064   4.397  18.687  11.823 -0.0928  0.0292  0.2207
 3218W        W20065   6.511  16.328   3.319  0.1223 -0.2505  0.4365
 3219W        W20066  16.705  14.635   4.648 -0.2287  0.0499 -0.3354
 3220W        W20067  19.359  13.422  12.694  0.2113  0.0398 -0.4196
 3221W        W20068  12.655   1.603  13.051 -0.1181  0.1782 -0.0081
 3222W        W20069   9.101   8.255   2.231 -0.2620  0.1844  0.1593
 3223W        W20070   4.119  18.565   1.422 -0.1139  0.0924 -0.2684
 3224W        W20071  13.775   5.418  13.491 -0.0306 -0.0809 -0.0846
 3225W        W20072   8.986   8.806  12.304 -0.1809 -0.0657  0.0066
 3226W        W20073   8.864   9.005   1.217 -0.2209 -0.1344 -0.3109
 3227W        W20074  12.241  15.126  13.159 -0.0603  0.0895  0.2355
 3228W        W20075   0.228   8.196  14.507  0.2269 -0.0448 -0.1170
 3229W        W20076   1.083   5.667  12.132 -0.0926  0.0857  0.1104
 3230W        W20077  17.987   4.929   3.965 -0.4346 -0.6004 -0.1878
 3231W        W20078   1.370  11.319  14.437  0.1596  0.2285 -0.0740
 3232W        W20079   2.307  12.851   0.910  0.1110 -0.1256 -0.0676
 3233W        W20080  18.450  13.353   4.101  0.2292  0.0929  0.1608
 3234W        W20081   0.008   3.974  14.426 -0.0992  0.1816  0.0094
 3235W        W20082   1.829   5.025  11.252  0.2277  0.0857 -0.1301
 3236W        W20083  14.018   7.705   3.927 -0.0614  0.2339  0.0480
 3237W        W20084  12.245   6.859  11.879  0.2939 -0.2206  0.0541
 3238W        W20085   1.981  16.256   1.688  0.1483  0.1255 -0.1025
 3239W        W20086   3.439  13.644  12.021 -0.2325 -0.1970  0.3180
 3240W        W20087  12.551  14.574   5.232 -0.1867 -0.0181 -0.1319
 3241W        W20088  19.138   6.117   3.367  0.2662 -0.1485 -0.1373
 3242W        W20089   3.515   3.564   4.166 -0.1839  0.1153 -0.1499
 3243W        W20090  13.418   7.307  12.567 -0.1254  0.0335 -0.1212
 3244W        W20091   8.344   5.045  12.170 -0.2855  0.0701 -0.1334
 3245W        W20092  17.141   6.161   4.558  0.0099  0.2012  0.0623
 3246W        W20093   5.798   7.615   4.703 -0.1547  0.0643 -0.0193
 3247W        W20094   8.692   8.696  11.536  0.1333  0.3704 -0.0652
 3248W        W20095   0.281  11.653   3.433  0.2886 -0.1727  0.0051
 3249W        W20096  12.343  11.704   0.930  0.0029  0.0160  0.0555
 3250W        W20097   5.291   2.349  13.078 -0.1832 -0.1456 -0.0323
 3251W        W20098   7.452  15.124   4.213 -0.1121  0.1551  0.0657
 3252W        W20099  11.675   0.151   4.285 -0.0308  0.2330 -0.0471
 3253W        W20100  17.998  14.888   2.477  0.3237  0.1489 -0.1930
 3254W        W20101  12.192  11.265  12.952 -0.0131 -0.1239  0.1185
 3255W        W20102   1.990   0.302   2.674 -0.1615  0.1119 -0.1244
 3256W        W20103  19.586  11.782   1.693 -0.0160  0.0916  0.1052
 3257W        W20104   0.409  10.692   4.847 -0.1481 -0.3402 -0.3876
 3258W        W20105  10.123  11.563  13.172  0.3137 -0.1400 -0.1262
 3259W        W20106   1.252   7.245  10.211 -0.1905 -0.2442 -0.0249
 3260W        W20107   5.721   1.275  10.169 -0.3092  0.2706 -0.1419
 3261W        W20108  12.582   8.481   0.103 -0.0679 -0.4018  0.0049
 3262W        W20109  12.483  19.036   0.188 -0.4203  0.1428  0.3530
 3263W        W20110  13.198   6.316   4.399  0.1157  0.2068 -0.1231
 3264W        W20111   7.640   3.639   4.269  0.0391 -0.1420 -0.0801
 3265W        W20112  10.016  19.533  10.912 -0.0670  0.0035  0.1801
 3266W        W20113   5.490   9.631  10.787 -0.2304 -0.2076  0.2224
 3267W        W20114  14.182   7.956   1.900  0.1730 -0.1102 -0.0074
 3268W        W20115   1.007  19.477   5.071 -0.2064  0.0444  0.0871
 3269W        W20116  19.064  17.638   0.006  0.0782 -0.2815  0.2419
 3270W        W20117   1.144  13.840  10.562 -0.1168  0.0022  0.2379
 3271W        W20118   0.559   4.221   5.126  0.1239 -0.1971 -0.0810
 3272W        W20119  16.349   6.244  11.382 -0.1967 -0.1083 -0.0132
 3273W        W20120  14.736   8.861   1.857  0.0591 -0.2432 -0.1779
 3274W        W20121   8.717   1.706   5.289 -0.2952 -0.1599 -0.2788
 3275W        W20122  16.339   3.726  10.768 -0.0643 -0.1722 -0.0821
 3276W        W20123  14.104  10.281   5.245  0.3860  0.2263  0.1462
 3277W        W20124  13.503  17.754   3.678 -0.1536  0.0084 -0.2121
 3278W        W20125  18.883  13.950   2.209 -0.1209 -0.0357  0.0658
 3279W        W20126   2.926  16.190  13.695 -0.1485  0.1120 -0.4721
 3280W        W20127  11.339  12.837  12.393  0.0282  0.2702  0.1198
 3281W        W20128   7.748   2.334  10.279 -0.2638  0.1149 -0.0808
 3282W        W20129  10.212  14.778  11.286 -0.1311  0.2384 -0.1811
 3283W        W20130   2.476   8.436  11.906  0.0358 -0.0783  0.2444
 3284W        W20131   0.856  19.441  10.334 -0.0774 -0.0106  0.0706
 3285W        W20132   1.724   4.648   0.895  0.2060 -0.0445  0.0499
 3286W        W20133  15.516  12.676   4.789  0.2418  0.0096  0.0860
 3287W        W20134  19.218  14.198   1.295  0.0434  0.1114  0.2755
 3288W        W20135  16.310   9.053  10.946  0.0416 -0.0524  0.2498
 3289W        W20136   3.023  14.446  11.993  0.4670  0.2950  0.1076
 3290W        W20137  14.022   1.736   9.980  0.0424  0.0948  0.0814
 3291W        W20138   0.715  12.698  11.144 -0.0013  0.0580 -0.2237
 3292W        W20139   1.084   5.110   1.616  0.0490 -0.0385  0.3499
 3293W        W20140   4.271  14.829  12.923 -0.1898  0.2999 -0.0328
 3294W        W20141   1.036  16.947  12.042 -0.4606 -0.0113 -0.1592
 3295W        W20142  13.168  12.535  12.623  0.1434 -0.1623 -0.2855
 3296W        W20143  19.335   4.334   4.409 -0.0702  0.1160  0.3282
 3297W        W20144  18.399   4.538   4.817  0.2228 -0.1568 -0.0385
 3298W        W20145   5.391   4.045  12.880 -0.0698  0.3320 -0.3181
 3299W        W20146   9.722  17.353  11.202  0.0125  0.3537 -0.2195
 3300W        W20147   1.615   2.203   3.108 -0.1040 -0.2960 -0.1428
 3301W        W20148   2.446  18.627   0.492  0.0390 -0.0445  0.0608
 3302W        W20149   6.109  12.448   3.407 -0.0782 -0.1778 -0.1969
 3303W        W20150   7.481  16.672  13.832 -0.2168  0.3336  0.2637
 3304W        W20151  14.428   7.043  11.254 -0.0740  0.3375 -0.0733
 3305W        W20152  13.558   7.797   3.733  0.0402 -0.1811 -0.0831
 3306W        W20153  11.047  12.938   0.067  0.0539 -0.0368 -0.1001
 3307W        W20154   7.545  12.067  11.453 -0.2138  0.1174 -0.0584
 3308W        W20155   0.206   5.860   1.518 -0.1092  0.1384  0.0214
 3309W        W20156   5.046   8.804   4.726  0.0021 -0.2220  0.1383
 3310W        W20157  15.406  10.970   2.524 -0.0660  0.2044 -0.1385
 3311W        W20158  12.207  11.753   0.450 -0.0377  0.3403  0.0364
 3312W        W20159  16.554   1.763   3.362  0.1525  0.4224  0.2487
 3313W        W20160  15.627  17.870   4.528 -0.1313 -0.0769 -0.0390
 3314W        W20161  16.191  15.091  13.579 -0.0211 -0.2034  0.2387
 3315W        W20162  10.231   8.327   2.140 -0.1722 -0.0606  0.1597
 3316W        W20163   4.540  12.760   2.482  0.0416  0.2979  0.2233
 3317W        W20164   2.480  18.894   4.133 -0.5196  0.3814  0.2774
 3318W        W20165  12.221  13.079   1.710 -0.3655 -0.1550  0.3318
 3319W        W20166  13.168  18.985   1.410 -0.1566  0.1074 -0.0702
 3320W        W20167  14.961   7.962  12.281  0.3184  0.0106  0.0624
 3321W        W20168   2.965   7.321  10.761 -0.0672  0.1220  0.0793
 3322W        W20169  13.511   2.775  10.718 -0.1900  0.0959  0.1768
 3323W        W20170  15.306  15.049   0.219 -0.0901 -0.0296  0.0007
 3324W        W20171   6.435  12.737   3.688  0.0762 -0.1356 -0.0227
 3325W        W20172   0.031  18.001   1.569 -0.0872 -0.0359 -0.0012
 3326W        W20173  12.575  17.584   1.852 -0.0921 -0.0722  0.1762
 3327W        W20174  16.581  11.624   1.645  0.0064 -0.2623  0.2280
 3328W        W20175   4.388  16.621   4.604 -0.2937  0.4003 -0.1862
 3329W        W20176  13.290   4.323   0.765 -0.1283  0.1085 -0.2836
 3330W        W20177  11.663  18.804   3.621 -0.0378  0.2850 -0.0071
 3331W        W20178   7.381   3.966   4.620  0.2164  0.1866 -0.2804
 3332W        W20179   8.924  13.971  13.809 -0.0253  0.2673 -0.3286
 3333W        W20180  17.903  19.352  11.810 -0.2308  0.0877  0.0969
 3334W        W20181   3.098  18.517  13.637  0.0690 -0.1848  0.0902
 3335W        W20182  17.455  13.170  11.668  0.4405  0.0019 -0.0132
 3336W        W20183  18.113   3.899  13.535  0.0560  0.0239  0.2007
 3337W        W20184   1.567   7.587  13.634  0.5011  0.1900  0.2457
 3338W        W20185   4.777  11.823   2.089 -0.0485 -0.1418 -0.0896
 3339W        W20186   8.591   0.846  11.984  0.4026 -0.0888 -0.0422
 3340W        W20187   3.802  14.770   4.176  0.1619  0.1644  0.1659
 3341W        W20188  15.092  10.369   0.308 -0.0338 -0.0062  0.3904
 3342W        W20189  19.192  14.062   2.736  0.0746 -0.2968  0.0462
 3343W        W20190  10.272   2.873   3.205  0.1498 -0.0550 -0.1897
 3344W        W20191   0.398  18.628   3.806  0.2398 -0.0140  0.4646
 3345W        W20192   6.651  16.681  11.552 -0.2930  0.1443 -0.1454
 3346W        W20193  17.177  15.207   0.636  0.1232  0.1187 -0.0072
 3347W        W20194  19.091   4.768   3.608  0.0640 -0.2076 -0.2735
 3348W        W20195  15.387   0.401   4.528 -0.0680 -0.4243  0.1024
 3349W        W20196   8.886   5.986  12.692  0.2401  0.0959  0.0437
 3350W        W20197   1.369   7.146  12.172  0.3712  0.0177 -0.3213
 3351W        W20198  16.312   5.728   1.009 -0.0206  0.0405 -0.0520
 3352W        W20199   3.121   2.785  11.120 -0.1900 -0.1864 -0.2859
 3353W        W20200   3.470  17.479   3.552  0.0423  0.2198  0.0877
 3354W        W20201  13.988  15.618  14.306  0.0945  0.0909  0.0739
 3355W        W20202  15.757  10.131   3.709  0.5703  0.2469 -0.0694
 3356W        W20203   3.594   1.148   4.904 -0.0194 -0.1777  0.1723
 3357W        W20204  11.602   9.745   3.855 -0.3721 -0.1072  0.0794
 3358W        W20205  14.413  18.028   9.459 -0.3716 -0.0819  0.2206
 3359W        W20206  10.825  13.228   4.347  0.3076 -0.2186  0.0241
 3360W        W20207  10.432  16.858  14.366  0.0129  0.0473  0.0321
 3361W        W20208  15.940   9.931   5.423 -0.1049  0.2015  0.2771
 3362W        W20209  10.782   5.028   3.887 -0.0902 -0.2345 -0.0358
 3363W        W20210  18.243   9.331  11.226 -0.0401  0.1668 -0.1086
 3364W        W20211   6.486  14.245   1.032 -0.3451 -0.1090  0.0177
 3365W        W20212  18.148  10.111   1.746 -0.0545  0.1225  0.1180
 3366W        W20213  15.013   9.382   1.287 -0.0434 -0.2039 -0.0012
 3367W        W20214  17.138   5.043   9.685  0.0074  0.1266 -0.3432
 3368W        W20215   7.878  13.139  11.233 -0.0660  0.0280 -0.0782
 3369W        W20216  17.723  13.564   2.386 -0.2601 -0.1114  0.3174
 3370W        W20217   1.931   1.572   5.433  0.0095 -0.0117  0.3581
 3371W        W20218   4.810   4.367  14.519  0.1770  0.1253  0.1639
 3372W        W20219   7.352   2.458  10.740 -0.0695  0.0242  0.0405
 3373W        W20220   8.395   5.566   3.670 -0.3724  0.1642 -0.1258
 3374W        W20221  17.877   5.140  13.104 -0.0890  0.1240 -0.0058
 3375W        W20222  15.339  13.956  11.422 -0.2595 -0.1306  0.0712
 3376W        W20223   4.901  16.579   0.510  0.1824  0.0002  0.1112
 3377W        W20224  18.252   0.157   4.068 -0.3370 -0.2881  0.1491
 3378W        W20225   3.602   0.236   3.041 -0.0310 -0.0441 -0.3368
 3379W        W20226   2.196   1.405   4.469  0.1858  0.1160 -0.2269
 3380W        W20227   8.701  13.301   1.664  0.2580  0.2641 -0.2262
 3381W        W20228   7.141   7.469  13.385  0.0620  0.2378 -0.2047
 3382W        W20229   8.231  15.809   1.759 -0.1150  0.0619 -0.1403
 3383W        W20230  17.143   3.535  12.435  0.0453 -0.0999  0.2903
 3384W        W20231   5.113   4.490  12.590  0.1474 -0.0232  0.1693
 3385W        W20232  13.981  13.258  12.489  0.4264 -0.3731  0.0821
 3386W        W20233  10.602  17.215  11.857 -0.0508 -0.1041  0.3087
 3387W        W20234   5.922   6.224   0.494  0.1543  0.1881  0.0335
 3388W        W20235   5.762   9.256   1.237 -0.1547  0.2692  0.3489
 3389W        W20236   7.361   2.604  13.602  0.1991  0.1938 -0.2249
 3390W        W20237  19.201  11.721  13.627  0.1114 -0.0204  0.0563
 3391W        W20238  17.125  13.613  14.440 -0.4336 -0.0330 -0.2677
 3392W        W20239  13.893  17.572  10.521  0.2495  0.1519  0.1639
 3393W        W20240   7.369   2.825  12.354  0.4093 -0.0936  0.0416
 3394W        W20241   0.531  12.649   3.659 -0.2329 -0.1212  0.2072
 3395W        W20242  10.487   3.593   2.381  0.3206 -0.0373 -0.1842
 3396W        W20243   8.413  11.816  11.351 -0.0246 -0.0244 -0.1794
 3397W        W20244  19.217   3.133   3.294  0.0432  0.2040  0.3676
 3398W        W20245  17.105   4.401   4.085 -0.0424 -0.1762  0.1136
 3399W        W20246   5.253   2.733   3.458  0.0433 -0.0785 -0.2468
 3400W        W20247  17.221   9.073  12.573  0.2397  0.1533 -0.5448
 3401W        W20248   7.084   3.034  12.823 -0.0890  0.4090 -0.0464
 3402W        W20249  14.486   9.994  10.691 -0.0022  0.0772 -0.0132
 3403W        W20250  18.404   0.098   5.047 -0.0920  0.1606  0.0025
 3404W        W20251   5.073   1.864   4.414 -0.0039  0.1292 -0.1211
 3405W        W20252  11.246  15.854   5.124 -0.1074 -0.1168  0.0449
 3406W        W20253   1.649  13.068   1.428  0.2978 -0.1263 -0.1427
 3407W        W20254   0.293   1.435  13.763 -0.0453 -0.0393 -0.2118
 3408W        W20255  13.738   6.722  11.750 -0.3292 -0.1778  0.2891
 3409W        W20256  17.575   0.080  13.136 -0.0467  0.0052 -0.0828
 3410W        W20257  18.793  18.391   0.455  0.2824 -0.0491 -0.1716
 3411W        W20258  17.402   2.756   3.692  0.0349 -0.1111  0.0283
 3412W        W20259  11.178   3.297   1.199 -0.0494 -0.0433 -0.1921
 3413W        W20260   5.486  18.152   2.150  0.1320 -0.2452  0.0504
 3414W        W20261  19.596  14.764  11.319  0.1261 -0.1791 -0.3440
 3415W        W20262   5.614  18.407  12.665  0.1231  0.0629 -0.0449
 3416W        W20263  13.050  14.578  11.861  0.1250 -0.0158 -0.1523
 3417W        W20264  11.019   3.115  11.521 -0.2519 -0.1439  0.2434
 3418W        W20265  13.940  18.249  12.642  0.0804 -0.1388 -0.1072
 3419W        W20266  18.622  18.753  12.626  0.0732  0.0608  0.4388
 3420W        W20267  13.317  12.229   0.469 -0.0870  0.1915  0.2622
 3421W        W20268   3.809   4.128   1.429  0.2245 -0.0096  0.3167
 3422W        W20269  13.298   8.203   3.483 -0.3307 -0.0041  0.1497
 3423W        W20270   0.190  12.648   2.097  0.5217  0.3359  0.3982
 3424W        W20271  14.577   5.937   0.289 -0.0371  0.0912  0.0342
 3425W        W20272  11.767   3.934   0.449 -0.2245  0.2082  0.2377
 3426W        W20273  18.457   1.945   3.012  0.2370  0.1671  0.1707
 3427W        W20274   7.333  13.701   3.199  0.0588  0.0571 -0.1319
 3428W        W20275  10.511   5.388  13.137 -0.1113  0.2596  0.1409
 3429W        W20276   0.766  17.285   2.152  0.3445  0.1476  0.0699
 3430W        W20277   4.764   2.456   3.366  0.3597  0.4333  0.3012
 3431W        W20278  17.036  10.722   1.878 -0.1916 -0.1163  0.0215
 3432W        W20279   9.729  10.909   1.651  0.3063 -0.2214 -0.4574
 3433W        W20280   2.012   7.375  10.710 -0.0463 -0.3234  0.1420
 3434W        W20281  19.220   0.204   0.412 -0.2238  0.1639  0.1234
 3435W        W20282  15.199  10.630   9.660  0.1235  0.2159 -0.1855
 3436W        W20283  13.478  14.922   1.615  0.0069  0.0320 -0.2773
 3437W        W20284   8.835   8.488   3.987 -0.2800  0.1920  0.1276
 3438W        W20285  10.842   1.489   0.197  0.1088 -0.2585 -0.0958
 3439W        W20286   5.966   8.156   2.118  0.3026 -0.0546  0.0743
 3440W        W20287   8.783   9.734  12.337  0.0941  0.0271 -0.0099
 3441W        W20288   6.302   2.791  12.013 -0.1021  0.0711 -0.3563
 3442W        W20289   8.235   0.947   0.317  0.1525 -0.0478  0.0592
 3443W        W20290   6.872   3.907   2.767  0.1901 -0.1419  0.0912
 3444W        W20291   9.648  19.040   3.316 -0.2199 -0.0200  0.0088
 3445W        W20292  18.432   1.484   0.059 -0.0722 -0.0126 -0.0719
 3446W        W20293  14.267   6.590  10.735 -0.0990  0.0007 -0.1407
 3447W        W20294   9.346   6.430   5.683 -0.1376 -0.1190  0.0374
 3448W        W20295  15.629  11.335   2.047  0.1156 -0.2629  0.0972
 3449W        W20296   7.211  16.162   2.005 -0.0987  0.0629  0.0422
 3450W        W20297   8.342  11.198   4.170 -0.1426  0.1482 -0.4363
 3451W        W20298  10.784  10.204   4.326 -0.0385  0.0522 -0.0417
 3452W        W20299   5.986   1.991  11.863  0.1061 -0.1177 -0.1492
 3453W        W20300  19.326   5.360   2.635 -0.0834  0.1363 -0.0875
 3454W        W20301   7.266  11.049   9.971  0.0531  0.2413  0.1333
 3455W        W20302  16.808   7.092   3.864  0.0065 -0.2988  0.0925
 3456W        W20303   6.047  19.298   9.854 -0.0445  0.1600  0.1162
 3457W        W20304   7.138   6.286   3.720 -0.0643  0.0056 -0.0115
 3458W        W20305  16.804  14.328  12.014 -0.0397 -0.1889  0.1160
 3459W        W20306  16.735  14.179   4.501  0.0816 -0.0530 -0.0657
 3460W        W20307   6.714  18.670   4.219 -0.0743  0.0322  0.0837
 3461W        W20308  12.545   3.985   1.772 -0.0573 -0.1323 -0.1707
 3462W        W20309  13.732  12.581  11.271  0.0944  0.0203 -0.1351
 3463W        W20310   6.874  17.547  12.833  0.2368  0.1493 -0.1738
 3464W        W20311   5.565   0.421   0.670  0.2325 -0.1668  0.1240
 3465W        W20312  17.480  10.973  13.404 -0.2445  0.0787 -0.1816
 3466W        W20313  16.049   8.650   3.464 -0.2586  0.1112  0.0581
 3467W        W20314   9.098  14.659  10.480 -0.4275 -0.4837  0.0085
 3468W        W20315   0.980  11.373  13.120  0.2250 -0.2291  0.0186
 3469W        W20316  17.199   6.798  10.655  0.2806 -0.0881 -0.3354
 3470W        W20317  14.768   9.068  12.098 -0.1349  0.0167  0.1576
 3471W        W20318   4.578  17.788   1.802  0.4307 -0.3460  0.0263
 3472W        W20319  14.865   6.352  13.312 -0.2013 -0.0398  0.4655
 3473W        W20320  14.159   1.675   2.575 -0.1247  0.2151  0.5275
 3474W        W20321  13.839  15.278   1.691  0.0903 -0.0105  0.1178
 3475W        W20322   6.166  13.677  13.306 -0.0463  0.1892 -0.1472
 3476W        W20323   7.586  12.525   3.502  0.1135 -0.1258  0.1113
 3477W        W20324   2.451   0.604   4.424 -0.1388  0.0725 -0.0606
 3478W        W20325   8.127  16.346   0.988 -0.0065 -0.1432 -0.2239
 3479W        W20326  14.657  16.482  10.344  0.0103  0.1557 -0.0582
 3480W        W20327  10.304   9.802   0.515 -0.3946  0.1736 -0.1163
 3481W        W20328  17.261   8.721  10.725  0.1793  0.0493 -0.2182
 3482W        W20329   0.805  10.833   0.055 -0.1929 -0.0003 -0.0207
 3483W        W20330  13.736  11.498   3.079  0.0002 -0.0011  0.1333
 3484W        W20331  18.292   2.430   3.604 -0.1085  0.2213 -0.2852
 3485W        W20332  12.128  13.785   3.911 -0.2001  0.2095  0.2174
 3486W        W20333   2.245   3.236  12.581 -0.0061  0.3544  0.4900
 3487W        W20334  11.082  18.839   4.081 -0.0178  0.1918  0.0705
 3488W        W20335  14.937  15.869   1.190 -0.3413 -0.1554  0.0785
 3489W        W20336   7.358   0.519   2.727  0.5488 -0.1558 -0.0954
 3490W        W20337  15.869   2.648  13.380 -0.0371 -0.0778  0.0781
 3491W        W20338   5.404  16.509   3.233 -0.2129 -0.0753 -0.1212
 3492W        W20339  18.795   5.540   4.669  0.2437 -0.0702 -0.0865
 3493W        W20340  19.250  16.147   4.485 -0.2952 -0.2417 -0.1615
 3494W        W20341  15.751  17.713   2.844 -0.2622 -0.1422 -0.1473
 3495W        W20342   8.481  13.044  11.809  0.2104 -0.3248 -0.2554
 3496W        W20343  15.408   1.287   2.879 -0.1529  0.0368 -0.1608
 3497W        W20344  10.499  18.746  12.144  0.0917 -0.3441 -0.0109
 3498W        W20345   1.419   4.126  11.039 -0.0284 -0.1330 -0.1650
 3499W        W20346  17.041   7.118  13.003  0.1509 -0.0621  0.0796
 3500W        W20347   6.287   2.047   4.578 -0.0510 -0.1887 -0.0205
 3501W        W20348  11.454  12.665   0.165 -0.1853  0.1114  0.1084
 3502W        W20349   1.320   1.727  13.860 -0.1279  0.2834 -0.0868
 3503W        W20350   8.943  16.544  10.511  0.3260 -0.3808  0.0092
 3504W        W20351  17.547  17.358   1.603 -0.0740 -0.0486  0.3424
 3505W        W20352  19.489  11.771  11.852  0.0104 -0.0727  0.3913
 3506W        W20353   3.257   4.043   5.028  0.1607  0.4132  0.0843
 3507W        W20354  13.682  11.950   0.327  0.1708  0.0031 -0.1560
 3508W        W20355   0.117   1.072   3.214  0.0774  0.3140 -0.1079
 3509W        W20356  17.733  18.683   1.881 -0.0343  0.0171  0.0010
 3510W        W20357  12.138   6.450   3.011  0.1120  0.0824  0.0810
 3511W        W20358  15.287   4.276  12.148  0.0849 -0.0222  0.3566
 3512W        W20359   4.913   5.743  10.195 -0.1499 -0.0551 -0.1223
 3513W        W20360   3.556  18.680  13.339 -0.1806  0.2099 -0.1093
 3514W        W20361  18.089   8.580   9.912 -0.1016 -0.2344 -0.2009
 3515W        W20362  18.605  17.853   3.930 -0.2183  0.1661 -0.1560
 3516W        W20363  11.855   3.066  13.597 -0.1597 -0.2670 -0.0590
 3517W        W20364  14.511   3.170   0.971 -0.0825  0.1146 -0.0237
 3518W        W20365  12.244   7.669   1.096  0.1147  0.3283  0.1765
 3519W        W20366   3.512  10.283   3.876  0.2068  0.0281 -0.0387
 3520W        W20367  16.781   4.741   1.364  0.0092  0.2607 -0.0437
 3521W        W20368   5.875  16.115   0.647  0.3460 -0.2000 -0.2403
 3522W        W20369  18.873   0.483  13.970 -0.3667 -0.1400 -0.0003
 3523W        W20370  18.969   2.630   3.356  0.0493  0.0611  0.1025
 3524W        W20371   8.468  12.120   2.731 -0.1797  0.0113 -0.1223
 3525W        W20372  12.374   8.088  13.036 -0.0567 -0.0394  0.0268
 3526W        W20373   5.279  18.003  13.397 -0.1588  0.2300 -0.2038
 3527W        W20374  12.257   3.221   4.963  0.0811 -0.0777  0.0149
 3528W        W20375   2.310  10.973   0.557  0.1265  0.0407 -0.1269
 3529W        W20376  18.402  13.275  12.975  0.3617  0.4232 -0.2021
 3530W        W20377   8.666   0.270  10.853 -0.0579  0.1249  0.0751
 3531W        W20378   5.198   7.411  11.949 -0.3830  0.0230 -0.3979
 3532W        W20379   4.907   4.799   0.367 -0.0142 -0.4397 -0.2943
 3533W        W20380  15.271   4.541  11.649 -0.0207  0.2732  0.0800
 3534W        W20381   7.854   9.205   3.345  0.3444 -0.1477 -0.0873
 3535W        W20382  16.450  13.625   3.610  0.0592  0.0444  0.1805
 3536W        W20383   1.038  19.195   3.314 -0.1323  0.1051 -0.3582
 3537W        W20384   2.722  12.727   2.204 -0.0262  0.0894 -0.0217
 3538W        W20385  15.120  13.593   0.720  0.1259  0.0758 -0.1140
 3539W        W20386  12.623  17.229  12.346  0.1483 -0.1310  0.0411
 3540W        W20387  10.283  13.339   0.575 -0.0435 -0.0377  0.0974
 3541W        W20388   0.938   0.626   0.739  0.1700  0.0106  0.0427
 3542W        W20389   2.948  19.438  12.459 -0.0524 -0.1040 -0.1274
 3543W        W20390   8.669   9.360   3.031 -0.0270  0.1439  0.2414
 3544W        W20391   8.123  14.376  11.206  0.2786 -0.0591 -0.5071
 3545W        W20392   2.391   1.681   0.825 -0.1176  0.0350 -0.3288
 3546W        W20393   2.372  13.079  10.574 -0.1303  0.0647  0.2101
 3547W        W20394   4.665   6.497  12.302 -0.1552 -0.0629 -0.0338
 3548W        W20395   9.062   0.214   0.110  0.3202 -0.4552  0.1585
 3549W        W20396   4.655  15.566  11.893  0.1148 -0.1262 -0.0159
 3550W        W20397   5.180  18.722  12.889 -0.1280  0.3479 -0.4143
 3551W        W20398   3.109  15.796  12.339  0.1676  0.1514  0.0572
 3552W        W20399  16.359   9.149   1.463  0.1059  0.2183 -0.5080
 3553W        W20400   3.140  19.454   3.862 -0.1632  0.0700  0.1476
 3554W        W20401  16.346   1.391  12.300  0.4297  0.1688 -0.0207
 3555W        W20402   3.469  15.025  14.607 -0.2103  0.0776 -0.0173
 3556W        W20403   9.055   4.213  14.441  0.0322 -0.0192 -0.1340
 3557W        W20404  11.137  17.170   3.386 -0.1196  0.1796 -0.0490
 3558W        W20405   6.531  19.256   3.001  0.3045  0.0500 -0.1443
 3559W        W20406  13.953   0.102   4.362  0.2022  0.3935  0.2332
 3560W        W20407  15.150   9.095   0.151  0.1128  0.0394  0.2370
 3561W        W20408   6.665   8.692   0.992  0.1518 -0.1067 -0.1427
 3562W        W20409  17.835  17.036  12.452 -0.1686  0.1956  0.1031
 3563W        W20410  19.379   5.134   5.491 -0.2600 -0.1072  0.0045
 3564W        W20411  16.730   2.661  13.638  0.2845  0.0109 -0.5289
 3565W        W20412   5.378   5.238   2.084 -0.1927  0.0813  0.0059
 3566W        W20413  19.555   3.588   4.288  0.0799 -0.2964 -0.2291
 3567W        W20414   7.746   4.033  14.589 -0.0431 -0.5106  0.1123
 3568W        W20415  18.687  13.515   1.284  0.2791 -0.2119 -0.0409
 3569W        W20416   7.552   0.733  13.717  0.1119 -0.1060 -0.0512
 3570W        W20417  10.022   4.345  10.658  0.1039  0.0297  0.1163
 3571W        W20418   7.742   9.077  11.212 -0.2762 -0.0254 -0.0333
 3572W        W20419  15.203  12.961   1.603 -0.1792  0.0453  0.0400
 3573W        W20420   3.481   7.228   3.062  0.1800 -0.2552  0.0035
 3574W        W20421   1.044  14.687  14.266 -0.2305 -0.0641 -0.0882
 3575W        W20422   6.636   1.819   3.966 -0.2270  0.1363  0.4361
 3576W        W20423   3.669   5.307   0.895  0.0892  0.1634 -0.2510
 3577W        W20424   6.426  12.067  11.494  0.0568  0.0787  0.0199
 3578W        W20425   8.629   1.222  11.672  0.0409  0.3459  0.1891
 3579W        W20426   8.221  14.929  10.141 -0.1466  0.2428  0.0479
 3580W        W20427  10.954   6.252  12.993 -0.2582 -0.2630 -0.1402
 3581W        W20428   2.427   4.640  10.712  0.2288 -0.0921  0.0823
 3582W        W20429   0.701   6.353  12.913 -0.0873 -0.1693  0.2435
 3583W        W20430   6.487  17.290  12.434 -0.4785 -0.0333  0.3851
 3584W        W20431   8.518   5.079   3.629 -0.0145  0.1967 -0.4557
 3585W        W20432   8.636  15.109  10.677 -0.2938 -0.0796  0.0376
 3586W        W20433  11.662  17.478   0.509  0.0957  0.5233 -0.2014
 3587W        W20434   1.833  17.186   0.932  0.0305  0.1153  0.2240
 3588W        W20435   5.268   3.845   2.804  0.3609 -0.1683 -0.3075
 3589W        W20436  17.804   4.902   2.893 -0.0777 -0.2243  0.1652
 3590W        W20437  12.973   7.181   2.325 -0.1692 -0.0027 -0.0987
 3591W        W20438  19.414  11.335  13.322 -0.0607 -0.0502 -0.3037
 3592W        W20439   4.210  14.603  14.398  0.0820  0.0334  0.1701
 3593W        W20440   2.390  19.574  13.832  0.2074 -0.0443 -0.0230
 3594W        W20441  16.412   2.936  11.940 -0.1478 -0.1304  0.1364
 3595W        W20442   1.672   8.811  12.363  0.0087 -0.0684 -0.2523
 3596W        W20443  16.296  16.644   2.083  0.0516  0.0749 -0.0792
 3597W        W20444  16.110   9.032   3.981  0.0658  0.1012  0.0135
 3598W        W20445  11.214  12.776   3.231  0.1478  0.0188  0.1053
 3599W        W20446   2.997  19.304  13.031  0.0246  0.4671  0.1004
 3600W        W20447   9.213   6.648  13.211  0.0076  0.1961 -0.2357
 3601W        W20448   1.532  16.302  12.255  0.1166 -0.1272  0.2204
 3602W        W20449  15.106   0.614   1.993 -0.3963 -0.0397  0.1029
 3603W        W20450   0.377   5.151  14.583  0.0294 -0.3510 -0.1272
 3604W        W20451   5.660   2.105   1.252  0.1155  0.0226 -0.0630
 3605W        W20452  18.417  15.309   3.483  0.1581  0.2163  0.0605
 3606W        W20453   8.711   1.825  10.367 -0.0173 -0.0600 -0.0489
 3607W        W20454  13.479  10.686   2.764  0.2222  0.2931 -0.0791
 3608W        W20455  19.303   1.893   4.360  0.2077 -0.3800  0.0777
 3609W        W20456   6.104  14.582   4.216  0.2725  0.2763 -0.0705
 3610W        W20457   3.873  15.942  10.448  0.0236 -0.0050 -0.0018
 3611W        W20458   5.898   9.290   4.146  0.0350 -0.2072  0.0442
 3612W        W20459   9.366   1.595   0.356  0.1544 -0.1515  0.0946
 3613W        W20460  18.516  11.843   4.479 -0.2262 -0.0384 -0.5418
 3614W        W20461   0.137  14.676  12.809 -0.1781 -0.0794 -0.1316
 3615W        W20462   0.888   4.043  14.489 -0.0317  0.0491 -0.2075
 3616W        W20463   0.730  16.512   0.214 -0.3462  0.1728 -0.2631
 3617W        W20464   7.015  13.384   3.473  0.1098  0.1396 -0.1387
 3618W        W20465  14.904   2.068   2.851  0.0288 -0.1148 -0.1861
 3619W        W20466  12.880  12.115   9.493  0.1874  0.1312 -0.0564
 3620W        W20467  12.299   9.093  11.442  0.2199 -0.1267 -0.2622
 3621W        W20468  18.837   6.067   2.990 -0.2805  0.3089 -0.1509
 3622W        W20469  19.569   8.475  13.733  0.3900 -0.1525 -0.1369
 3623W        W20470  18.943  17.263   4.081  0.0544  0.4254  0.0938
 3624W        W20471   7.160  12.509   1.749 -0.0813  0.0039 -0.1805
 3625W        W20472   0.682   9.346   0.061  0.2330  0.4065  0.0605
 3626W        W20473  16.822   3.318  12.111  0.1866 -0.0265 -0.0329
 3627W        W20474  16.882   6.074   0.889  0.1683 -0.2241  0.0195
 3628W        W20475   9.387  13.450   3.173  0.0575 -0.1359  0.1113
 3629W        W20476  16.378  19.297   0.770  0.0738 -0.2053 -0.1801
 3630W        W20477   4.839   5.176  11.484  0.1164  0.2453 -0.1869
 3631W        W20478  16.780   3.047  12.555  0.0207 -0.1747 -0.1222
 3632W        W20479  11.819   9.450   9.634  0.2220 -0.1038 -0.3477
 3633W        W20480   8.524   9.794  12.795  0.2488 -0.2005  0.3653
 3634W        W20481   8.060   0.337  12.684  0.2348  0.0825 -0.2638
 3635W        W20482  16.609  16.400  11.445  0.2535 -0.0614 -0.2579
 3636W        W20483   7.057   1.469   1.805 -0.0729 -0.1294 -0.2685
 3637W        W20484   2.654  19.348  10.759  0.3895  0.0670 -0.0655
 3638W        W20485   1.578  11.845   9.628 -0.4213  0.3345 -0.2510
 3639W        W20486   9.661   2.738   1.924 -0.1079  0.1154 -0.3098
 3640W        W20487   4.285  15.631  13.372 -0.0999  0.1125 -0.1260
 3641W        W20488  13.668   6.065  13.734  0.0174 -0.1158  0.1656
 3642W        W20489   6.502   1.466   2.309 -0.0412  0.0049 -0.1797
 3643W        W20490  15.537   4.586   0.842  0.0776  0.0818 -0.0609
 3644W        W20491  15.622  14.396  10.581 -0.0919 -0.5347 -0.3939
 3645W        W20492   3.279  13.033   0.163  0.2998  0.0997 -0.1335
 3646W        W20493  11.618  11.107  10.890 -0.1161 -0.0410  0.0233
 3647W        W20494   6.890   0.040   0.866 -0.2873  0.0018  0.2663
 3648W        W20495   5.517  10.572   1.343 -0.1038 -0.0020 -0.0548
 3649W        W20496  16.367   2.353  14.498 -0.1533 -0.2284 -0.0340
 3650W        W20497   6.108   0.706   0.568 -0.1119  0.0944 -0.0817
 3651W        W20498   5.282  11.475  12.763 -0.2316 -0.1348 -0.2394
 3652W        W20499   4.171  17.001   3.200  0.1821  0.2263 -0.2501
 3653W        W20500  10.366  12.541   2.604  0.1555  0.2601 -0.1637
 3654W        W20501   7.110   6.826   3.442 -0.3107  0.0432 -0.3355
 3655W        W20502   8.814  14.724   0.472  0.0703 -0.0556  0.0797
 3656W        W20503   0.990  16.121   0.375 -0.0778  0.1276  0.0081
 3657W        W20504  10.070   2.497  11.173  0.1265 -0.2910 -0.0126
 3658W        W20505  17.339  12.856   9.754 -0.1234 -0.0210  0.2284
 3659W        W20506   8.467  13.778   2.067  0.0436  0.1158 -0.0670
 3660W        W20507   4.447  12.254   0.247  0.0915  0.1906 -0.3850
 3661W        W20508  18.875   9.931   4.263 -0.0044  0.3417 -0.0561
 3662W        W20509   5.357   9.398   0.784  0.0270 -0.2236  0.3949
 3663W        W20510   3.924   4.213  13.333  0.0242  0.0498  0.2680
 3664W        W20511  15.939   4.502   1.822 -0.0699 -0.0011  0.2941
 3665W        W20512  11.307  15.003   2.516  0.1221 -0.3441 -0.4257
 3666W        W20513   2.839   9.892  10.912  0.0442 -0.1262  0.0264
 3667W        W20514   0.685  11.847   3.894 -0.1377 -0.1295 -0.0977
 3668W        W20515  12.152   2.374  12.902  0.0148  0.2803 -0.0361
 3669W        W20516  15.133  12.323   2.353  0.0068 -0.0091  0.0278
 3670W        W20517  18.963  13.303   9.848  0.0723  0.2123 -0.2278
 3671W        W20518   4.151  14.417   3.923 -0.0230  0.1018 -0.0527
 3672W        W20519  16.136   0.964  13.829 -0.0211 -0.1088  0.0818
 3673W        W20520  18.969   7.511   3.301 -0.2314  0.1055  0.1303
 3674W        W20521   1.155   4.625  13.234 -0.5969  0.3410  0.2795
 3675W        W20522  13.667  11.057   0.611  0.7217  0.0915 -0.1709
 3676W        W20523  14.518  16.548  12.045 -0.2581 -0.2411  0.0758
 3677W        W20524   8.800  19.516  12.707  0.0138  0.2131  0.1686
 3678W        W20525   7.666   9.083   3.858 -0.0951 -0.1882 -0.1237
 3679W        W20526   9.668   1.005  11.661  0.0298  0.1807  0.2257
 3680W        W20527  19.124   7.171   1.545 -0.4018 -0.0353  0.0610
 3681W        W20528  16.563  16.361   1.729 -0.0316  0.0605  0.0692
 3682W        W20529   5.774  15.466   4.598 -0.1645 -0.2526  0.3085
 3683W        W20530   5.274  11.004   3.996 -0.1416  0.3318  0.1003
 3684W        W20531   6.539  11.748  12.524 -0.2922 -0.0080  0.0258
 3685W        W20532  11.592  13.431  11.316 -0.2738 -0.0079 -0.2002
 3686W        W20533  17.810   0.816  12.958  0.2101 -0.2613 -0.1939
 3687W        W20534   2.892   6.790  10.848  0.0009  0.1358 -0.0953
 3688W        W20535  19.440  19.524   5.117 -0.0873  0.1422 -0.0122
 3689W        W20536  14.098   4.467   9.993 -0.2630  0.3481  0.2270
 3690W        W20537  19.038   3.783   1.098  0.0041  0.0593  0.2716
 3691W        W20538   4.402  11.511   0.007 -0.0380  0.1261  0.0593
 3692W        W20539   5.617   4.807   1.138 -0.1359 -0.1865  0.0680
 3693W        W20540   8.503  16.072   0.797  0.1630  0.1833 -0.2362
 3694W        W20541   0.858  12.956   5.712 -0.2111 -0.1248 -0.3209
 3695W        W20542  10.110  13.404   0.064 -0.0520  0.0046 -0.0078
 3696W        W20543   7.888  10.488   1.500  0.2018  0.1586  0.0449
 3697W        W20544  10.289   6.791  14.481 -0.0100 -0.1321 -0.1241
 3698W        W20545   9.052  15.694   4.913 -0.1254  0.1605  0.2211
 3699W        W20546  10.008   4.065   3.014 -0.1279 -0.0800  0.0828
 3700W        W20547  12.179  18.697   2.670 -0.1950 -0.3461  0.0620
 3701W        W20548   5.661   1.027  10.674 -0.3013 -0.0883  0.0952
 3702W        W20549  17.611   1.481   5.177  0.0035 -0.0445  0.0822
 3703W        W20550  18.450   4.497   2.281 -0.0420 -0.0232  0.0300
 3704W        W20551  17.693  15.052   3.988 -0.2607  0.2112 -0.5467
 3705W        W20552   2.755  15.755   1.639 -0.2969  0.2148 -0.0150
 3706W        W20553  11.055   0.328  13.569  0.1179 -0.3204 -0.2917
 3707W        W20554   7.465  11.179  13.635 -0.2165 -0.3576 -0.1236
 3708W        W20555   7.874  13.213   1.117  0.1159 -0.0275  0.1490
 3709W        W20556  13.430   0.209   1.783  0.1259 -0.0138  0.2549
 3710W        W20557  14.823   4.610   4.924 -0.0978  0.4341 -0.0087
 3711W        W20558   0.373  16.728  13.627  0.1722 -0.2318 -0.0089
 3712W        W20559   9.749  16.734  12.745 -0.2743  0.2762  0.3833
 3713W        W20560   4.990   3.928  12.089 -0.1295  0.1715  0.0046
 3714W        W20561   5.873   0.698   1.013 -0.1749  0.2725 -0.1603
 3715W        W20562   6.914   5.754  13.905  0.2576  0.2301 -0.0224
 3716W        W20563   5.088   3.778  14.378 -0.0432 -0.3158 -0.1192
 3717W        W20564   8.676   0.416   9.054 -0.3728  0.0229 -0.1455
 3718W        W20565  18.678   7.752   0.910  0.3970  0.1302  0.2428
 3719W        W20566   6.574   6.186  13.809  0.0801 -0.0376  0.1170
 3720W        W20567  15.345   2.321   3.635  0.2025 -0.1356 -0.0837
 3721W        W20568  14.468  17.253  10.015 -0.2193  0.0932  0.3176
 3722W        W20569  16.082   3.570  12.873 -0.0523  0.1136  0.4380
 3723W        W20570  13.929   5.900   1.099 -0.0466 -0.3703 -0.0765
 3724W        W20571   0.038   4.939  14.062 -0.0093 -0.3533  0.0709
 3725W        W20572   2.472   3.000  13.010  0.1066  0.0174  0.0945
 3726W        W20573   0.975   0.728  14.333  0.0713  0.0682  0.2764
 3727W        W20574   6.757   2.934   3.000 -0.3229  0.1554  0.0643
 3728W        W20575  12.912   7.010   3.362 -0.3100 -0.2451  0.0184
 3729W        W20576  14.243   3.657   2.973 -0.1001  0.2112  0.3409
 3730W        W20577  10.612   7.580   9.648 -0.0950 -0.0598 -0.2230
 3731W        W20578  16.063  15.138  12.142  0.2173  0.1393 -0.0124
 3732W        W20579  13.706  14.122   3.141 -0.0029 -0.1142 -0.0252
 3733W        W20580  15.130   9.260  11.715  0.0569  0.0304  0.1047
 3734W        W20581   7.445   0.478  14.144 -0.0101 -0.1988 -0.1048
 3735W        W20582  15.614  17.583   1.245  0.0303  0.2168  0.0233
 3736W        W20583   8.835   6.926  13.002  0.4147  0.0168 -0.1049
 3737W        W20584   1.234  17.179   2.249 -0.4041  0.1358 -0.2368
 3738W        W20585  10.181   7.419   5.328  0.0797  0.0807 -0.0718
 3739W        W20586   3.357  15.805   2.741 -0.3841  0.1927 -0.1454
 3740W        W20587  17.232  18.850  10.627  0.2114  0.2114  0.0851
 3741W        W20588   2.200   3.508  12.049 -0.1074 -0.1296 -0.2870
 3742W        W20589   6.322   6.100   4.671 -0.0901  0.0439  0.1475
 3743W        W20590  14.125   9.714   1.468 -0.0612 -0.0591 -0.0461
 3744W        W20591  18.699  13.385  11.018 -0.1519 -0.1672  0.0415
 3745W        W20592  19.457   5.350  14.336  0.1237 -0.2001 -0.0026
 3746W        W20593   0.410  11.951  13.876  0.3358 -0.0792 -0.1498
 3747W        W20594   3.191   0.335   3.824 -0.1189 -0.1275  0.2131
 3748W        W20595  16.614  11.458  14.593  0.2402 -0.3011 -0.1739
 3749W        W20596   3.525   0.845   1.572  0.3388  0.0103  0.1472
 3750W        W20597  11.125  13.162  11.886 -0.2080 -0.2579  0.1767
 3751W        W20598   0.097   3.698  11.701 -0.2026 -0.0635  0.0711
 3752W        W20599   3.898   2.475  10.981 -0.2224 -0.1087 -0.3639
 3753W        W20600  14.008   2.112  14.008 -0.1778 -0.0557 -0.1049
 3754W        W20601  10.521   5.379  13.673 -0.2320 -0.1054 -0.3343
 3755W        W20602  10.516  13.362   1.081 -0.0321 -0.0307  0.4582
 3756W        W20603  10.841  11.747   4.084 -0.0106 -0.2876  0.0750
 3757W        W20604  17.825  18.939   2.651  0.1143 -0.1036  0.1907
 3758W        W20605   1.409  11.062   0.796  0.0531 -0.1705 -0.0437
 3759W        W20606   9.471   6.977  13.436  0.0199  0.2946  0.0873
 3760W        W20607   2.842  18.343   1.602  0.1779  0.1465 -0.2587
 3761W        W20608   3.970  11.281  11.857  0.2235  0.1504 -0.0905
 3762W        W20609   9.522   7.823   0.186 -0.3679 -0.1374  0.0354
 3763W        W20610  16.213   1.945   2.955 -0.3441 -0.0811 -0.1858
 3764W        W20611  19.610   2.631   1.861 -0.2273 -0.1443 -0.1048
 3765W        W20612   4.212  12.957  12.236 -0.1073 -0.1485  0.2597
 3766W        W20613  12.625  10.873   1.487 -0.4472 -0.3392 -0.3940
 3767W        W20614   9.203   6.603   3.941 -0.1238 -0.3438 -0.0035
 3768W        W20615   7.051   4.530  12.922 -0.1664  0.2338 -0.1909
 3769W        W20616   5.574   0.528   4.485  0.1270  0.1677 -0.0499
 3770W        W20617  12.380   7.241   3.775  0.0165 -0.1167 -0.2518
 3771W        W20618  15.759   0.010   1.634 -0.0718  0.1653  0.1775
 3772W        W20619  18.969   2.146   2.856 -0.1182 -0.1500  0.1556
 3773W        W20620   8.655   4.059  13.083 -0.1044  0.2544  0.1727
 3774W        W20621   0.742   6.075   2.887 -0.1401 -0.1727 -0.0098
 3775W        W20622  13.713   0.279   0.553 -0.2333 -0.1471 -0.0356
 3776W        W20623   3.279   3.364  12.023  0.1647  0.1307 -0.1034
 3777W        W20624  15.421   4.685   4.897  0.0396 -0.0756 -0.1947
 3778W        W20625   0.333  14.615  10.465  0.1456  0.1798  0.4144
 3779W        W20626   4.883   3.082  13.743  0.0991  0.3147  0.0059
 3780W        W20627   6.226  10.545  13.412  0.0365 -0.2262  0.2087
 3781W        W20628   3.188  14.897  11.629  0.2091  0.0737 -0.1512
 3782W        W20629   7.431  18.419   0.786  0.2489  0.0654  0.0320
 3783W        W20630   6.142   6.472   3.657  0.2064 -0.1013  0.2960
 3784W        W20631  12.666  18.004  11.352  0.1240 -0.0650 -0.0596
 3785W        W20632  18.367  18.535   4.094  0.0665  0.2383  0.1290
 3786W        W20633   1.539   3.330   3.807  0.0101  0.3277  0.2603
 3787W        W20634   6.361   9.514   4.389 -0.0585  0.0087  0.3554
 3788W        W20635  12.951   5.975  10.932 -0.2656  0.0778 -0.1925
 3789W        W20636  18.418   9.455   0.944 -0.2774  0.2568  0.0223
 3790W        W20637  14.196   6.857   2.599 -0.0523  0.1633 -0.0905
 3791W        W20638   7.273  11.165   2.432 -0.1085 -0.0526  0.2139
 3792W        W20639  19.306  12.787   3.595 -0.0120  0.1158 -0.1657
 3793W        W20640  17.750  19.184  11.365 -0.3079 -0.0796  0.1225
 3794W        W20641  14.473  15.166   3.512 -0.0971  0.2311 -0.2187
 3795W        W20642  19.516  12.983  12.499  0.1486 -0.1615  0.1079
 3796W        W20643  10.318  16.730   5.440  0.1311  0.0741 -0.1520
 3797W        W20644   1.387   9.023   0.869 -0.2821  0.1937  0.5290
 3798W        W20645   4.515  17.585  13.632  0.0635  0.1501  0.0244
 3799W        W20646   7.368  19.124   0.151 -0.1539  0.1264 -0.0070
 3800W        W20647  12.946  14.008  12.791 -0.1496  0.1017  0.0450
 3801W        W20648   1.699  19.200  10.046 -0.1461 -0.2519 -0.0725
 3802W        W20649   8.376   5.024   4.407 -0.0944 -0.0611 -0.0904
 3803W        W20650  12.553   3.799  10.189  0.2196  0.3895 -0.1448
 3804W        W20651  17.027  12.312  12.161  0.2881  0.1350  0.2455
 3805W        W20652   3.299   6.275   1.994  0.0726 -0.1440 -0.2304
 3806W        W20653  12.017  13.463   1.549  0.1450 -0.0293  0.0498
 3807W        W20654  16.567  17.084  11.052  0.1384  0.1069 -0.3036
 3808W        W20655  18.813  10.916   3.675  0.4004  0.1107 -0.2078
 3809W        W20656   9.532  16.855   3.307  0.0649 -0.1360 -0.2327
 3810W        W20657  11.029   0.349  14.136  0.0135 -0.2011  0.1347
 3811W        W20658  13.012   7.341   4.448  0.1323 -0.1823  0.1695
 3812W        W20659   2.699  14.477   0.393  0.0703 -0.1128  0.1390
 3813W        W20660  15.319  12.590  10.444 -0.1361  0.2780 -0.2338
 3814W        W20661  16.238  16.963  14.449  0.1821  0.2911 -0.1384
 3815W        W20662  10.553  11.118  12.253 -0.1429 -0.0154 -0.0997
 3816W        W20663   6.036  14.714  10.947 -0.0450  0.0419 -0.2355
 3817W        W20664  18.695  16.453   3.838  0.1659 -0.1213 -0.0652
 3818W        W20665   1.937  11.052   4.124 -0.1104 -0.4399  0.1855
 3819W        W20666   6.633  18.027  10.080  0.2864 -0.2697 -0.0192
 3820W        W20667   9.273   8.791   3.777  0.0877  0.0774 -0.1427
 3821W        W20668  11.310  11.558   5.575  0.2881  0.0599  0.1644
 3822W        W20669  15.937   7.630   2.599  0.2071  0.3458 -0.0318
 3823W        W20670  10.253  11.738  14.573 -0.0986  0.0368  0.0750
 3824W        W20671   9.050  17.458  12.863 -0.2900  0.5176 -0.0575
 3825W        W20672   2.177  15.674   4.438 -0.2954 -0.3370 -0.1211
 3826W        W20673  16.779  14.189  12.647  0.0726  0.2651  0.0081
 3827W        W20674  17.431   9.314   2.875 -0.2172  0.0777  0.0592
 3828W        W20675  10.894   0.532   4.429  0.0923 -0.1879  0.2268
 3829W        W20676   8.834   8.526   4.869  0.0041  0.0264  0.1577
 3830W        W20677   6.341  14.543  12.328  0.1765 -0.0348  0.0242
 3831W        W20678  11.657   9.366   3.345 -0.0240 -0.1359  0.1596
 3832W        W20679  10.843   7.468  10.800 -0.2618  0.1680 -0.3440
 3833W        W20680  11.070  17.648  13.322  0.1197 -0.0166  0.1114
 3834W        W20681   4.311  14.447   1.918  0.1583  0.1059 -0.0277
 3835W        W20682  12.002   6.906   3.675  0.1524  0.4951 -0.1852
 3836W        W20683   7.450   9.346  12.293  0.0758 -0.0954  0.0568
 3837W        W20684   6.768  14.235  13.455 -0.0217  0.1840 -0.1529
 3838W        W20685   4.439  11.397  11.776  0.0479  0.1519 -0.2660
 3839W        W20686   4.155   4.100   0.348  0.1762 -0.2890 -0.0208
 3840W        W20687  14.688  15.481   0.975  0.0911 -0.2040 -0.3848
 3841W        W20688   2.657  18.137   4.133  0.1982  0.3196 -0.0736
 3842W        W20689  17.442  16.254   3.112  0.1603  0.2209  0.2126
 3843W        W20690   7.564  16.791  12.911 -0.0973  0.0018 -0.0375
 3844W        W20691   6.223  14.160   3.527  0.0914  0.0739 -0.0641
 3845W        W20692  12.661  11.222   4.319 -0.0744 -0.0166  0.0398
 3846W        W20693   9.743  17.282  13.509 -0.2300 -0.2640 -0.1713
 3847W        W20694   5.078   3.561   2.455  0.2051 -0.0036 -0.3576
 3848W        W20695   9.625  16.147   2.436  0.7414 -0.3738 -0.0755
 3849W        W20696  19.556   5.975  13.299 -0.1966 -0.0202  0.1763
 3850W        W20697   0.678  15.106   2.624 -0.1430 -0.3133  0.2205
 3851W        W20698   3.740  16.984  11.516  0.0434  0.5747  0.0794
 3852W        W20699   5.461  17.774  12.962 -0.1158  0.2144 -0.2824
 3853W        W20700  14.556   6.724  13.063 -0.1284 -0.1519 -0.0764
 3854W        W20701  17.768   0.381  10.612 -0.3831  0.0272 -0.0138
 3855W        W20702   8.431   9.655  11.429  0.0776  0.1596 -0.1275
 3856W        W20703   1.425  10.588  13.685 -0.1091  0.0528  0.2091
 3857W        W20704   7.074  17.194   3.418  0.0143 -0.0202  0.0481
 3858W        W20705  14.154   8.347  10.548  0.2206  0.0706 -0.0249
 3859W        W20706   7.514   9.845   2.230  0.2851 -0.1035 -0.0364
 3860W        W20707   3.914  12.145   1.847  0.2397  0.1989 -0.1007
 3861W        W20708   0.552   5.146  12.895  0.1466  0.0302 -0.0171
 3862W        W20709   5.516  17.337   3.774 -0.4315 -0.3754 -0.1803
 3863W        W20710  19.568   7.124  10.721  0.2767  0.0268 -0.1026
 3864W        W20711   6.243  18.967   9.534 -0.0166 -0.3565  0.2357
 3865W        W20712  13.576  15.901   2.054 -0.0933 -0.1139  0.0235
 3866W        W20713   0.859   7.990  10.843 -0.0274  0.1723  0.3435
 3867W        W20714   4.579   8.600   3.750 -0.0532 -0.0522 -0.0482
 3868W        W20715   6.837  15.085  10.814  0.3950 -0.0523 -0.3085
 3869W        W20716   5.167   5.931   4.278 -0.0970  0.1432  0.0241
 3870W        W20717  13.833  17.454   3.474  0.0996  0.3695  0.1380
 3871W        W20718  18.311   5.649   3.243  0.2223  0.2190 -0.0863
 3872W        W20719  18.002  11.317   3.771 -0.1297  0.0040 -0.2822
 3873W        W20720  11.065  18.075  14.188  0.3224 -0.0421  0.0172
 3874W        W20721  12.482  15.655   0.862 -0.0438 -0.0318  0.1122
 3875W        W20722  19.249  16.903   2.749 -0.2866 -0.0055  0.0499
 3876W        W20723  16.009  17.633  13.931  0.0490  0.0252 -0.0609
 3877W        W20724   2.611   6.128   3.715  0.0656 -0.3378 -0.0504
 3878W        W20725   5.646  15.738  13.403  0.0115  0.0746  0.0842
 3879W        W20726  13.662   9.726   4.786  0.1996  0.0871 -0.2163
 3880W        W20727   8.352   5.829  14.490 -0.1752  0.1877  0.2527
 3881W        W20728   7.197  17.826  14.580 -0.1125 -0.2115 -0.0198
 3882W        W20729  12.431  14.910   3.063  0.1752  0.0582 -0.2464
 3883W        W20730  14.473  13.654   1.159  0.1144 -0.1157 -0.1813
 3884W        W20731   9.613  13.873  10.153 -0.0381  0.2765  0.2653
 3885W        W20732  13.306   5.717  10.695  0.1548  0.0137  0.2503
 3886W        W20733  18.103   9.511   0.568  0.0744 -0.1069  0.3540
 3887W        W20734   4.439   2.250  13.518  0.0059  0.1097  0.2484
 3888W        W20735   0.132  11.187   3.270 -0.1219 -0.2532 -0.3541
 3889W        W20736   5.719  19.430  11.904  0.2426  0.1028  0.3220
 3890W        W20737   5.287  12.730   3.081 -0.1948 -0.0902 -0.0977
 3891W        W20738  13.919  14.664   1.491 -0.1955 -0.1612 -0.2665
 3892W        W20739  19.089   5.970   1.868  0.0225  0.2757  0.1834
 3893W        W20740   7.380   9.746   2.740  0.1450  0.0969 -0.6508
 3894W        W20741   7.946  14.754   4.922 -0.2049 -0.1511  0.1665
 3895W        W20742   8.661   3.241  13.895 -0.0277 -0.2011  0.2616
 3896W        W20743   1.153   5.813   1.254 -0.0129  0.0437 -0.1160
 3897W        W20744   2.954  11.691   2.365  0.0880 -0.2007 -0.3953
 3898W        W20745  14.554  16.844   2.688 -0.0940  0.0861 -0.0651
 3899W        W20746   2.299   7.864  10.718  0.0352 -0.0326  0.0351
 3900W        W20747   4.791  13.952   4.914 -0.2571  0.6216 -0.0147
 3901W        W20748  13.842  16.173   3.814  0.1394  0.0723  0.0129
 3902W        W20749   8.146  14.185  13.781  0.0324 -0.2719  0.0788
 3903W        W20750   2.744  17.071  10.205 -0.1354 -0.0886 -0.3358
 3904W        W20751  12.955  17.805   2.126 -0.0311 -0.3799  0.0551
 3905W        W20752   1.471   5.601  12.456 -0.0392  0.3019 -0.2826
 3906W        W20753   1.361   2.398  14.008 -0.2240 -0.1223 -0.1171
 3907W        W20754  19.456  13.349  14.159  0.1966 -0.1309 -0.0770
 3908W        W20755  15.554  16.765  12.533 -0.1253  0.0070  0.0886
 3909W        W20756   5.561   5.404  13.431  0.0811  0.0634 -0.0107
 3910W        W20757  18.997  13.149   0.563 -0.1541 -0.0646  0.1586
 3911W        W20758   6.003  19.293   0.456 -0.2171  0.0982  0.1446
 3912W        W20759   5.296  15.620   0.554  0.0448  0.1511  0.3117
 3913W        W20760   8.022  16.751   4.986  0.0238 -0.4216  0.1344
 3914W        W20761   7.136   2.150  13.973  0.2829  0.0433  0.1865
 3915W        W20762  14.974  15.001   2.414 -0.0102  0.1675 -0.0332
 3916W        W20763  16.770  12.385   0.604 -0.2072  0.2024 -0.0954
 3917W        W20764   6.458  18.472  11.650  0.0202 -0.0958  0.0322
 3918W        W20765   5.516   1.754  12.116 -0.1032 -0.3946  0.0421
 3919W        W20766  17.633   1.906   2.542  0.1452  0.3472  0.0642
 3920W        W20767   4.766   1.629   1.152 -0.0053 -0.2263  0.2142
 3921W        W20768   4.622  15.427  13.772 -0.2823  0.1390 -0.3041
 3922W        W20769   5.884   6.533   0.926 -0.0703 -0.0435 -0.2784
 3923W        W20770   4.858   2.939   0.701  0.1359 -0.3389 -0.1869
 3924W        W20771  15.605  13.463   0.620 -0.0279 -0.1139  0.1688
 3925W        W20772  11.173   9.715   0.697 -0.2675  0.2878 -0.2427
 3926W        W20773   0.203   4.514   3.696 -0.1527  0.1041  0.1948
 3927W        W20774   3.303  12.120   2.202 -0.1791  0.0129  0.2319
 3928W        W20775  11.836   4.448  10.831  0.1396 -0.1866  0.1019
 3929W        W20776   4.547  18.323   5.156 -0.1991 -0.0365 -0.0506
 3930W        W20777   0.262   5.531  13.124 -0.1569  0.1722  0.0532
 3931W        W20778  13.790   5.807  10.697  0.0996  0.2711  0.1664
 3932W        W20779  12.831  11.345  12.725 -0.1606 -0.1209  0.1064
 3933W        W20780  15.572   3.059   1.902 -0.1571  0.1092  0.1981
 3934W        W20781  14.062   9.498   4.604 -0.1963 -0.1490 -0.6834
 3935W        W20782   3.384  11.497   0.439  0.0547  0.3676 -0.3656
 3936W        W20783  13.505  19.578  13.905 -0.0154  0.0387 -0.0146
 3937W        W20784  11.379   2.422  14.457  0.1118  0.3826  0.0239
 3938W        W20785   2.221  11.154   2.152  0.1328 -0.1129 -0.2911
 3939W        W20786   5.083   6.938  11.276 -0.1741  0.1899  0.0484
 3940W        W20787  13.827  15.515  13.025  0.0100 -0.2305  0.3304
 3941W        W20788   6.393  19.295  14.046  0.1410  0.3228 -0.2773
 3942W        W20789  11.616  11.471  13.092 -0.2948  0.0675 -0.1157
 3943W        W20790  10.274  11.536   0.863  0.0291  0.0345  0.1623
 3944W        W20791  14.180   2.119  13.553  0.4103 -0.2898  0.0262
 3945W        W20792   2.315   0.806   0.976  0.1129  0.2261 -0.0296
 3946W        W20793  12.565   6.551  12.956  0.1121  0.3151  0.2295
 3947W        W20794   5.264  11.316  10.744 -0.2730 -0.2166  0.0182
 3948W        W20795   1.403  12.727   4.763 -0.1022 -0.1069 -0.1150
 3949W        W20796   5.209   1.061   4.691 -0.0423 -0.0589  0.0488
 3950W        W20797   1.617  10.440  11.627 -0.2178  0.0407 -0.1485
 3951W        W20798   8.263  11.312   2.281  0.2241 -0.0101 -0.0039
 3952W        W20799  13.041  14.231   0.649  0.2685  0.2976 -0.0641
 3953W        W20800   9.370   4.871  13.946  0.1032  0.1058  0.0904
 3954W        W20801  14.779   8.698  13.690 -0.2662 -0.1151  0.1671
 3955W        W20802   8.410  15.115   0.460  0.0647  0.1774 -0.1277
 3956W        W20803   3.475  14.136   1.749 -0.2077  0.2522  0.3456
 3957W        W20804  13.151  19.104  11.990 -0.0050 -0.0635  0.1168
 3958W        W20805  15.333   4.049  12.751  0.0527 -0.1706 -0.0789
 3959W        W20806   0.775   6.831   9.324 -0.1408 -0.2237  0.0048
 3960W        W20807   6.902  14.810   1.318 -0.0263  0.1677  0.0763
 3961W        W20808  17.838   8.352  14.219  0.2700  0.1767 -0.1730
 3962W        W20809   8.152   8.347   3.939 -0.1334  0.0663  0.1937
 3963W        W20810  12.765  13.062   1.862  0.1960 -0.1144 -0.1416
 3964W        W20811  13.066   9.336   1.375 -0.2996  0.1874 -0.2481
 3965W        W20812  11.736  15.464   0.512  0.0613 -0.1364  0.0094
 3966W        W20813   1.108  10.853   5.087 -0.0169  0.1175 -0.0061
 3967W        W20814   5.311  13.282   0.098 -0.0079 -0.1218  0.3332
 3968W        W20815   3.000  15.855   0.856 -0.0572  0.3088 -0.1175
 3969W        W20816  13.666  11.785   1.787  0.1893  0.2442 -0.4182
 3970W        W20817  11.683   9.990   4.296 -0.4124 -0.1896  0.0261
 3971W        W20818   6.792   2.117   9.827 -0.1920  0.2767 -0.2590
 3972W        W20819   7.481  13.487   0.242  0.0268 -0.2494  0.1918
 3973W        W20820   7.298   4.799   1.975 -0.1494 -0.0542  0.3339
 3974W        W20821   0.301  14.245  11.432 -0.1729 -0.2761  0.4413
 3975W        W20822   1.901   4.997   2.139  0.0448  0.0337 -0.0624
 3976W        W20823   1.039  18.798   4.893  0.4678 -0.0439 -0.3193
 3977W        W20824   2.440  17.022   2.213  0.3469  0.2515  0.1174
 3978W        W20825  16.944   2.883   0.683  0.3493  0.3606  0.2586
 3979W        W20826  17.433   2.383  10.965 -0.0521 -0.0591 -0.1144
 3980W        W20827  13.687   1.067  10.472 -0.1562 -0.0819 -0.1739
 3981W        W20828   3.667  14.238  10.255  0.0659  0.0781 -0.0019
 3982W        W20829   7.603  17.285  12.324 -0.1656  0.2082  0.1740
 3983W        W20830  13.843  11.658   1.284  0.0507  0.2953  0.0018
 3984W        W20831  12.611  18.864  11.684 -0.1074 -0.1846  0.2293
 3985W        W20832   0.510  17.646  10.201 -0.0388  0.1293 -0.3160
 3986W        W20833   0.847  10.282  14.598  0.0273  0.0005 -0.0301
 3987W        W20834   0.718  18.585   0.339  0.2049  0.4003  0.1221
 3988W        W20835   0.274   3.444  10.552  0.4034 -0.1196 -0.0154
 3989W        W20836   5.114  10.192   4.009 -0.1250 -0.4263 -0.0456
 3990W        W20837  17.152   7.672   3.318 -0.2672 -0.2694 -0.3875
 3991W        W20838  13.544  19.060  11.683 -0.0223  0.5819 -0.2828
 3992W        W20839  16.688   0.211  12.078 -0.2379 -0.1493  0.2648
 3993W        W20840   3.419   4.611   2.997  0.1811 -0.0694 -0.0355
 3994W        W20841  14.181   6.615   0.406  0.3744  0.1031 -0.0935
 3995W        W20842   9.280  14.977   3.648  0.2056 -0.0877  0.0262
 3996W        W20843  12.145  15.474  10.748 -0.3604 -0.0389 -0.1430
 3997W        W20844  13.776   3.099   4.017 -0.1782 -0.2315  0.0787
 3998W        W20845  13.605  11.123  12.116 -0.1626  0.0640  0.1979
 3999W        W20846   3.585  11.380  11.107 -0.0766 -0.0181 -0.1214
 4000W        W20847  11.714  17.992  13.733  0.0952  0.0688 -0.1191
 4001W        W20848   0.465  17.408   1.790  0.2831  0.0504 -0.4053
 4002W        W20849   3.722   7.165  10.262  0.3990  0.3806  0.2073
 4003W        W20850   7.395   3.899  10.430  0.0740 -0.0144  0.1591
 4004W        W20851   3.491   3.441   9.817  0.1469 -0.1146  0.0329
 4005W        W20852   4.524   7.048  13.041  0.3362  0.0184 -0.0126
 4006W        W20853  12.107  15.563  12.711 -0.0161 -0.1524 -0.1773
 4007W        W20854   0.096  10.265  12.424  0.1374 -0.1675  0.2071
 4008W        W20855  12.570  16.608   0.939 -0.0921  0.0206  0.0898
 4009W        W20856  17.006  15.620   3.764  0.1850  0.2365  0.0250
 4010W        W20857  11.038  19.159  14.321  0.0074 -0.6575 -0.0154
 4011W        W20858  12.233   5.327   4.601  0.1646  0.3151  0.1936
 4012W        W20859   7.083   1.569  13.206  0.0111 -0.0942  0.1496
 4013W        W20860  10.024   4.363  12.097 -0.2510 -0.4908  0.1732
 4014W        W20861  11.938  14.950   3.534 -0.2716 -0.0802  0.1003
 4015W        W20862   2.464   7.482  13.904  0.1262  0.1523 -0.1005
 4016W        W20863   9.888   3.954  12.340 -0.3426 -0.0775 -0.2575
 4017W        W20864  11.040  11.926  13.340  0.1709  0.1999  0.0103
 4018W        W20865  11.446   2.180   2.912  0.0746 -0.0017  0.1230
 4019W        W20866  12.410   6.112  11.003  0.0856  0.0200 -0.0193
 4020W        W20867  11.558   8.662  11.617 -0.4803 -0.1070 -0.1463
 4021W        W20868  17.269   2.197   2.034  0.1330 -0.3183 -0.1238
 4022W        W20869   0.676   1.982   0.945 -0.3024  0.0053  0.3451
 4023W        W20870   4.759   0.156  10.996  0.1176  0.1613 -0.1721
 4024W        W20871  10.360   1.283  12.495 -0.4156 -0.1493 -0.0043
 4025W        W20872   7.086   7.342   4.776  0.0239 -0.1504  0.1844
 4026W        W20873  10.046  12.266   4.289  0.0011  0.2394  0.2605
 4027W        W20874   7.769  18.134   3.518 -0.0512  0.1113 -0.0357
 4028W        W20875   3.651  15.407   0.237  0.2397 -0.4212 -0.1166
 4029W        W20876  17.974   9.294  10.784 -0.0990  0.1737 -0.4169
 4030W        W20877  10.885   9.167   4.448  0.0171 -0.0788  0.1266
 4031W        W20878  11.501   0.771  11.076 -0.0663 -0.0492 -0.0428
 4032W        W20879  14.529   9.445  11.894  0.2072 -0.0469 -0.1929
 4033W        W20880   3.766  17.412  13.871  0.1495 -0.2230 -0.1239
 4034W        W20881  15.999   9.201  11.321 -0.1008 -0.3892  0.0706
 4035W        W20882   3.607  15.025   1.683  0.0807 -0.2564 -0.0057
 4036W        W20883  18.999  17.793  13.681  0.1227 -0.1041  0.2689
 4037W        W20884  15.309   2.119   0.731 -0.1703  0.0308 -0.2646
 4038W        W20885  17.263  11.430  10.752 -0.3005 -0.0123  0.0563
 4039W        W20886   7.413  18.448   9.976 -0.2530 -0.1206  0.0064
 4040W        W20887   6.391  15.272   1.331 -0.3145  0.1412 -0.0357
 4041W        W20888   7.149  13.429  14.173  0.1900 -0.3841 -0.3062
 4042W        W20889  16.486  11.200  11.051 -0.2241 -0.2760 -0.2419
 4043W        W20890   2.782   6.156  10.048 -0.2004 -0.0980 -0.3167
 4044W        W20891  10.704  10.836   4.319 -0.0362 -0.0363 -0.3392
 4045W        W20892   0.184  11.928   4.837 -0.0083  0.3167  0.0685
 4046W        W20893  13.909   4.418  10.468 -0.1238 -0.1017  0.2833
 4047W        W20894   8.404   9.769   9.635 -0.1767 -0.1496  0.0917
 4048W        W20895   7.573   0.971  10.652  0.1475  0.0684 -0.0300
 4049W        W20896   0.219   3.484   3.868 -0.2151 -0.1566  0.4753
 4050W        W20897  18.633  14.917   3.209 -0.0891 -0.0631  0.2124
 4051W        W20898   2.045   6.245  14.178 -0.1564 -0.1569  0.2828
 4052W        W20899   1.865  12.942   4.757  0.2962  0.0726 -0.1164
 4053W        W20900  12.791   2.191   3.317  0.1800  0.6427 -0.1612
 4054W        W20901  19.064  12.064  11.548 -0.0193 -0.0972  0.1932
 4055W        W20902  15.443   4.959  13.650  0.2030 -0.0031  0.0480
 4056W        W20903   5.021  11.932  12.639 -0.1901 -0.0768  0.0804
 4057W        W20904  18.333  14.392  11.488 -0.0165 -0.0191  0.1799
 4058W        W20905   7.124   8.150   1.567  0.3060  0.2842 -0.1578
 4059W        W20906  13.138   0.560   2.110  0.1109  0.1126 -0.1411
 4060W        W20907   5.230  11.331   5.620  0.0737 -0.1075 -0.1848
 4061W        W20908   4.900  17.731  10.380  0.3391 -0.1857  0.0673
 4062W        W20909   1.884  18.171  12.108 -0.2142 -0.0874 -0.0043
 4063W        W20910   8.034  12.972  10.663 -0.2725 -0.1590  0.0564
 4064W        W20911   3.018   8.049  13.246 -0.0082 -0.1121  0.1664
 4065W        W20912   5.931   1.982   2.582 -0.0707 -0.0524 -0.1223
 4066W        W20913   6.293  16.881   1.603 -0.0678  0.0658 -0.0641
 4067W        W20914  18.851   5.257  10.764  0.1025  0.1052 -0.1788
 4068W        W20915  13.468   7.783  13.941 -0.2663 -0.3159 -0.4794
 4069W        W20916  10.532  15.654  11.413  0.2922  0.1472  0.0813
 4070W        W20917   9.013  14.854  12.688  0.0492  0.2095  0.1998
 4071W        W20918   6.308   2.351  13.415  0.1898  0.0408  0.1206
 4072W        W20919   9.829   4.174   2.240 -0.2893 -0.4602  0.4346
 4073W        W20920   3.039   3.778  11.109  0.0542 -0.2107 -0.1245
 4074W        W20921   4.567   1.519   4.583 -0.0641  0.1402 -0.2560
 4075W        W20922   5.054   0.871  12.498 -0.1051  0.3846 -0.1622
 4076W        W20923  15.185   5.035  13.126  0.4414 -0.2719 -0.4604
 4077W        W20924  16.615   1.429  13.223  0.0231  0.2294  0.1602
 4078W        W20925   2.856   6.875   4.161  0.1134 -0.3147 -0.0389
 4079W        W20926  11.007  16.232   0.125 -0.3676  0.0735  0.1541
 4080W        W20927  12.083  12.096   2.087  0.2609  0.1556  0.0076
 4081W        W20928   9.408  17.683   0.977  0.0826  0.0055 -0.2216
 4082W        W20929   9.745   2.979   3.132 -0.1258 -0.0088  0.3520
 4083W        W20930   0.416   6.022  13.112  0.3672 -0.2384 -0.0194
 4084W        W20931   7.930   4.844   3.899 -0.2567  0.3340  0.0724
 4085W        W20932  16.805   2.424   2.537 -0.0547 -0.2859 -0.2391
 4086W        W20933  14.828   2.302   1.473 -0.0063  0.2650 -0.0442
 4087W        W20934   6.233   6.374   5.065  0.0838 -0.1157 -0.1682
 4088W        W20935  18.976   9.193  12.042  0.1306 -0.0693  0.2458
 4089W        W20936   8.017  17.003  13.806 -0.0384  0.1234  0.2385
 4090W        W20937   9.474   0.163   2.819 -0.0226 -0.1457  0.0764
 4091W        W20938  11.610  11.413   9.977  0.1107 -0.0829  0.0961
 4092W        W20939   6.735   8.665   0.383 -0.4441  0.1454  0.0258
 4093W        W20940   4.930  16.449  11.504 -0.1332  0.4479 -0.2585
 4094W        W20941   4.856  16.626  12.813  0.0545  0.1335 -0.1287
 4095W        W20942  14.003  12.748  12.127  0.0217  0.0278  0.1048
 4096W        W20943  17.015   8.124   3.399  0.1117 -0.0242 -0.1492
 4097W        W20944  13.985   7.113   0.327  0.5795  0.0882 -0.4119
 4098W        W20945  16.150  19.085   3.074  0.1430 -0.0511 -0.2356
 4099W        W20946   8.357  15.034  12.423  0.1568  0.0458  0.0197
 4100W        W20947   1.933   3.671  14.170 -0.1907 -0.1423 -0.5698
 4101W        W20948   7.536   0.945  14.313  0.0233  0.2162 -0.1035
 4102W        W20949  14.566   4.143  14.589  0.0421 -0.0470 -0.0724
 4103W        W20950  12.478   1.440  10.906 -0.0205 -0.0072  0.4211
 4104W        W20951   9.178  13.388  12.514 -0.1096  0.0885  0.1444
 4105W        W20952   5.141   0.135   1.795  0.0764  0.1674 -0.1258
 4106W        W20953   1.296  17.803   1.454 -0.0125 -0.0281 -0.1247
 4107W        W20954   9.638  17.024   1.774  0.1661 -0.1434 -0.0413
 4108W        W20955  15.050   0.388   1.256 -0.1924 -0.0988  0.1373
 4109W        W20956  10.258  13.874   1.082 -0.0028 -0.3112  0.1436
 4110W        W20957  13.474  15.013  13.588  0.3166 -0.2927 -0.1883
 4111W        W20958  11.952   0.947  10.363  0.1118  0.2962  0.0574
 4112W        W20959   1.163   4.367   3.685  0.2713 -0.3698  0.0482
 4113W        W20960  19.614  19.536  10.124  0.0797 -0.1037 -0.1051
 4114W        W20961  19.379  14.949   0.494  0.2714  0.0435  0.0371
 4115W        W20962  12.939  18.410   4.009 -0.4309 -0.3197 -0.0378
 4116W        W20963   5.576  14.648   0.658  0.2471 -0.1361  0.1531
 4117W        W20964   4.628   0.020   0.653 -0.3126 -0.0893  0.1100
 4118W        W20965   2.518   3.810   1.706 -0.1651  0.0185 -0.1492
 4119W        W20966   7.338  18.536  11.983  0.5539  0.1480 -0.1192
 4120W        W20967  12.853   2.603   1.317 -0.2193 -0.0994 -0.3733
 4121W        W20968   5.165   1.528  12.873  0.1494  0.1753  0.0885
 4122W        W20969  16.262   3.112   0.488  0.1263 -0.0741  0.0891
 4123W        W20970  16.776   5.638   0.813 -0.2963  0.2051 -0.0215
 4124W        W20971   9.512  10.677  11.118  0.2423 -0.0751 -0.1319
 4125W        W20972  15.409  19.185   3.122  0.1011 -0.1033 -0.2230
 4126W        W20973  14.862   0.171   2.255  0.0613 -0.0890  0.3480
 4127W        W20974   0.256  11.575  11.166 -0.3313  0.0910 -0.1745
 4128W        W20975   1.984  19.217  11.804 -0.0695 -0.3023  0.1542
 4129W        W20976   3.736   1.275  11.339  0.2635  0.2958 -0.3802
 4130W        W20977  16.686   0.705  14.347 -0.0257  0.0115  0.0683
 4131W        W20978  11.933   7.334  10.874 -0.0228  0.3523 -0.2187
 4132W        W20979   1.561   5.717  11.958  0.2315  0.2340  0.0443
 4133W        W20980  14.203   4.971   2.490 -0.3590 -0.0698 -0.3233
 4134W        W20981  14.186   5.234   5.174  0.1728  0.3624 -0.0257
 4135W        W20982   5.116  18.604   1.131  0.1499 -0.1421  0.1479
 4136W        W20983  17.234   3.199   3.557 -0.2102 -0.0617  0.1724
 4137W        W20984  15.372   4.451   3.259  0.2139  0.1000 -0.0557
 4138W        W20985   7.398   9.379   3.438  0.4136  0.0301 -0.1713
 4139W        W20986  15.637   8.745   1.883  0.0863  0.0914  0.2778
 4140W        W20987   5.938   6.268   3.121 -0.1565  0.2921  0.2873
 4141W        W20988   7.501  16.268   3.512 -0.2222  0.0784  0.1920
 4142W        W20989  18.204  12.040  12.090  0.1453 -0.1157  0.0225
 4143W        W20990   8.274   1.750  12.116  0.1758 -0.4089 -0.1646
 4144W        W20991  10.484   0.221   0.615 -0.2868 -0.0214 -0.1767
 4145W        W20992  18.783   6.839  12.775 -0.5351  0.2707 -0.0490
 4146W        W20993   6.431   3.040  10.346 -0.0144  0.1723  0.1117
 4147W        W20994  12.459   1.890   2.990 -0.3010 -0.0422 -0.0716
 4148W        W20995  17.693   8.927   2.039 -0.0855  0.0313  0.2049
 4149W        W20996  12.659   4.732   2.622 -0.1294  0.1821 -0.1157
 4150W        W20997   4.566   8.529   2.561  0.1915 -0.3251 -0.0161
 4151W        W20998   0.166  12.999   1.576 -0.1591  0.2638  0.0091
 4152W        W20999   9.736   0.779   2.439 -0.3819 -0.0011 -0.2540
 4153W        W21000   8.420  12.032  11.789 -0.1587 -0.3265 -0.1774
 4154W        W21001   1.070   0.743  13.771 -0.2833  0.2274 -0.0619
 4155W        W21002   0.602   0.203   4.124 -0.2137 -0.0055  0.0058
 4156W        W21003  15.955  19.094  12.831 -0.0973 -0.3124  0.1852
 4157W        W21004  15.808  13.715   3.295  0.0010  0.1524  0.3431
 4158W        W21005  15.802   7.601  14.415  0.1111 -0.3941 -0.3953
 4159W        W21006   8.989   4.693   0.124  0.0210  0.3916  0.0866
 4160W        W21007   4.763   9.680  14.407 -0.1354  0.2221  0.0895
 4161W        W21008   4.894  12.242   3.696  0.2461  0.2207  0.2807
 4162W        W21009   3.244   3.095   2.136  0.1633  0.0655  0.0253
 4163W        W21010   8.037   0.721  13.443 -0.1778  0.1932  0.0415
 4164W        W21011  15.656   1.300   0.358 -0.2225  0.1576  0.0017
 4165W        W21012  16.437  12.210  13.891  0.0319  0.0736  0.3749
 4166W        W21013   6.232   9.113   2.127  0.1509  0.0905 -0.0741
 4167W        W21014  14.751  19.299   4.246  0.0185 -0.2674 -0.1099
 4168W        W21015  18.658   8.032  11.747  0.0769 -0.1652 -0.0505
 4169W        W21016   8.712   8.971   2.038 -0.0195 -0.2022  0.1534
 4170W        W21017   7.356   2.509  14.479  0.2323 -0.1218  0.4270
 4171W        W21018  13.148   2.189   4.350 -0.0727  0.0587 -0.1884
 4172W        W21019   7.893  15.699   2.313  0.0857 -0.2746  0.1406
 4173W        W21020  14.473   6.373   3.753 -0.0887  0.0030  0.2833
 4174W        W21021   5.911   7.562   1.222  0.2181  0.0086  0.1015
 4175W        W21022  10.917  19.135   3.321  0.2048  0.0625 -0.2651
 4176W        W21023  11.749   3.496   4.095 -0.0624  0.1166 -0.1453
 4177W        W21024  16.861  15.404  11.566  0.1414 -0.5158 -0.1983
 4178W        W21025  17.455  10.475   1.232  0.2196 -0.1243  0.2963
 4179W        W21026   1.976   2.303  11.907 -0.3138  0.1600 -0.0477
 4180W        W21027   7.700  10.144   3.834  0.1904 -0.0499 -0.0259
 4181W        W21028  16.418  17.521   0.644 -0.2553  0.0410  0.2692
 4182W        W21029   4.766  13.677  13.311 -0.0763  0.3220  0.0199
 4183W        W21030   2.087   6.679   4.735  0.5442  0.0667  0.0455
 4184W        W21031   5.829  16.297   2.588  0.0590 -0.0253 -0.2062
 4185W        W21032   6.898  19.507   4.460 -0.1434 -0.3600  0.0868
 4186W        W21033   6.470  14.332  10.803 -0.0033 -0.0346  0.1496
 4187W        W21034  17.399  16.387   3.628  0.1193 -0.1218 -0.0754
 4188W        W21035  17.693   7.751   0.412 -0.0807  0.2162  0.2613
 4189W        W21036   4.179  13.723  14.429  0.1063 -0.1110  0.1423
 4190W        W21037  17.426   9.374  12.236  0.0239  0.0814  0.0636
 4191W        W21038  16.579   4.347  11.742  0.2683 -0.1013 -0.0005
 4192W        W21039   1.348  17.604   1.937  0.0310  0.0542  0.0923
 4193W        W21040   1.317   1.227   2.093 -0.1660  0.4422  0.1037
 4194W        W21041  11.472   4.251   1.514 -0.1087 -0.0572  0.2324
 4195W        W21042   6.040   8.634   2.138 -0.1649  0.2628 -0.3950
 4196W        W21043   1.703   3.440   0.281 -0.0888  0.3773 -0.0337
 4197W        W21044   5.724   1.798  13.703  0.0917  0.2579  0.3164
 4198W        W21045   9.087   8.931  12.822 -0.0090  0.1310 -0.2229
 4199W        W21046  10.303   0.389  12.861 -0.0148 -0.2232  0.3615
 4200W        W21047  17.304  12.714  11.916 -0.2730 -0.0286 -0.0958
 4201W        W21048   2.714  11.406   6.062  0.0685 -0.1071  0.1831
 4202W        W21049  19.247   5.524  12.552  0.1656  0.0881 -0.2572
 4203W        W21050   9.705  17.515  12.930 -0.1458 -0.1441  0.0663
 4204W        W21051  15.793  18.736  12.395 -0.0236  0.0648 -0.0180
 4205W        W21052   1.127  15.772  14.366 -0.1796 -0.1643 -0.0679
 4206W        W21053  17.310   0.753   1.820  0.1121  0.1938  0.0157
 4207W        W21054  11.671   8.792   1.507 -0.1685  0.0015 -0.0373
 4208W        W21055  14.603  12.566  13.335 -0.1916  0.2507 -0.3335
 4209W        W21056   9.532   3.195  11.431  0.1709  0.1501 -0.2754
 4210W        W21057   3.842   7.284  12.164 -0.1781  0.1516  0.5475
 4211W        W21058   5.212   5.882   2.036 -0.0643  0.0998 -0.0230
 4212W        W21059  18.070   6.865   1.664  0.0912  0.2925  0.1364
 4213W        W21060   4.998   2.376   4.201 -0.2728 -0.3613 -0.0553
 4214W        W21061  12.278   9.686   1.968  0.0114  0.0068 -0.3698
 4215W        W21062  18.075   5.924   0.225  0.1067  0.1764 -0.3232
 4216W        W21063  16.729   6.228  12.066  0.1189 -0.0267  0.1862
 4217W        W21064  18.314   8.088   4.707  0.2225 -0.1124  0.2199
 4218W        W21065  16.827   7.620  13.789  0.1752  0.0353  0.0783
 4219W        W21066   7.178   8.297   2.061  0.0122 -0.3703  0.3365
 4220W        W21067   7.524   2.676   1.198 -0.1330  0.2516  0.0660
 4221W        W21068  19.195  15.485  13.440 -0.2946 -0.1520  0.0129
 4222W        W21069   1.676   1.061   1.077  0.0376 -0.4222  0.2686
 4223W        W21070   5.543  12.687   0.636  0.0355  0.1880 -0.0481
 4224W        W21071   7.499   8.188  12.123 -0.2709 -0.1576  0.0266
 4225W        W21072   6.736   9.465   0.250  0.1027 -0.2263  0.1978
 4226W        W21073  15.650   9.282  14.571 -0.0529  0.1399 -0.2093
 4227W        W21074  16.876   9.345  12.348  0.1707  0.0670 -0.3225
 4228W        W21075  16.830   2.038  12.710 -0.1768 -0.0486  0.1687
 4229W        W21076   8.877  17.800  11.147 -0.0110  0.1873  0.4002
 4230W        W21077   9.285   7.663  11.988 -0.0767  0.3018 -0.1968
 4231W        W21078   9.906   8.172  13.089 -0.0115 -0.0580  0.0157
 4232W        W21079  13.060  13.646   0.568  0.1209  0.2119 -0.0383
 4233W        W21080   6.103   4.954   3.935 -0.0359 -0.2344  0.0829
 4234W        W21081  19.103   3.879  13.434 -0.5945  0.0517 -0.1768
 4235W        W21082  11.971  18.209   4.910 -0.1503  0.2547  0.0235
 4236W        W21083  12.343   3.280   9.068  0.2239 -0.2023  0.1102
 4237W        W21084  13.668   2.523   3.039  0.0538  0.2479  0.0507
 4238W        W21085  10.841  15.333  12.503  0.0941 -0.1577 -0.0034
 4239W        W21086  15.595  12.384   3.728 -0.0377  0.4591  0.2032
 4240W        W21087  15.911   1.481   0.747  0.0186 -0.3236  0.0319
 4241W        W21088  12.038   9.282  13.792  0.0393 -0.2991 -0.1027
 4242W        W21089   5.949  14.784  12.437  0.2609 -0.3054  0.0492
 4243W        W21090  14.946   3.631   3.581  0.2377  0.0973  0.0882
 4244W        W21091   9.864  13.351   3.428 -0.3202 -0.1668 -0.0087
 4245W        W21092  17.426   1.790   3.562 -0.1628 -0.1151 -0.2121
 4246W        W21093   9.523   9.765   4.647 -0.2317 -0.0902 -0.0831
 4247W        W21094   3.250  17.170   9.301  0.1758  0.3543  0.0294
 4248W        W21095  13.523  12.668   4.124  0.0406 -0.1252  0.0306
 4249W        W21096  10.948  12.274   4.245 -0.3460 -0.2740 -0.2426
 4250W        W21097  10.311  12.436  13.775 -0.0254  0.1144 -0.1211
 4251W        W21098   6.748   9.922  11.329  0.2468  0.1285  0.0211
 4252W        W21099   2.249  12.888   0.316 -0.2773 -0.0637  0.3322
 4253W        W21100  14.726   2.949  13.345 -0.1928 -0.3898 -0.0427
 4254W        W21101   0.408  16.467  11.580 -0.1840  0.2895 -0.1040
 4255W        W21102  16.124   5.290   1.895 -0.0787 -0.0258 -0.1271
 4256W        W21103   2.425  18.393   1.399  0.2774 -0.1824 -0.1488
 4257W        W21104   5.165   8.158   1.410  0.1512 -0.1736  0.0974
 4258W        W21105  15.859   6.203   1.024 -0.0965 -0.1219 -0.2747
 4259W        W21106   0.689   0.499   2.216  0.1481 -0.1689  0.0573
 4260W        W21107  16.360  12.164  12.880  0.1383  0.0534 -0.0414
 4261W        W21108   4.601  18.554   2.266 -0.0436 -0.3715 -0.0337
 4262W        W21109  12.807   2.344   1.862 -0.2284  0.4105  0.1398
 4263W        W21110  12.694   7.709   4.538  0.2149 -0.2148 -0.2017
 4264W        W21111  16.110   1.780  12.541 -0.0993  0.1023 -0.4169
 4265W        W21112   5.415  18.572  11.779 -0.1832 -0.0846 -0.2379
 4266W        W21113   4.873  18.162   2.054 -0.0543  0.0137 -0.2707
 4267W        W21114   5.449   6.314   3.041 -0.1971  0.1041 -0.0705
 4268W        W21115   5.386  19.090   0.967  0.0912 -0.0847  0.0979
 4269W        W21116   8.476  19.349  14.121 -0.0831 -0.1132  0.0842
 4270W        W21117  18.818   6.434  11.542  0.2844 -0.1643  0.0075
 4271W        W21118   7.459  13.258  13.158 -0.0340  0.4233  0.3270
 4272W        W21119   6.576   5.098   3.697  0.1668  0.0577  0.3285
 4273W        W21120  15.968   3.251   1.069 -0.0663 -0.0243 -0.0926
 4274W        W21121  14.706  12.587  12.860  0.1524  0.0857 -0.2865
 4275W        W21122  18.929  10.433   2.203 -0.0296 -0.0500  0.1011
 4276W        W21123   3.820   5.399   0.408  0.0411  0.0118 -0.2986
 4277W        W21124   7.748   7.025  13.647  0.2093  0.4690  0.1934
 4278W        W21125   0.031  15.369   3.908  0.1316 -0.1389  0.0900
 4279W        W21126  18.596  18.046  11.144  0.0555  0.1487 -0.0983
 4280W        W21127   6.679   5.762  11.112  0.1463 -0.2124 -0.1162
 4281W        W21128  10.681  11.689   4.763 -0.0846 -0.2823 -0.3147
 4282W        W21129  14.799  16.912  13.232 -0.1645 -0.2314 -0.0191
 4283W        W21130  12.922  14.088   2.585 -0.0712  0.1885  0.1890
 4284W        W21131   7.422  18.652  11.386 -0.3521 -0.0545  0.1503
 4285W        W21132   5.211  19.214   2.141  0.0662 -0.1045 -0.3768
 4286W        W21133  15.934   9.483   4.478  0.1369 -0.1513 -0.0810
 4287W        W21134   7.991  17.666  13.766 -0.1719 -0.0699  0.2384
 4288W        W21135  19.208   5.337   3.643 -0.1783 -0.2816 -0.2544
 4289W        W21136  16.225   8.677  13.882  0.2496  0.1627  0.2802
 4290W        W21137  12.261  12.526   4.134 -0.1714 -0.2226 -0.0072
 4291W        W21138   2.444   7.577   2.664  0.0174 -0.1126  0.0990
 4292W        W21139   1.155  12.843   1.256  0.2829 -0.0546 -0.1350
 4293W        W21140  11.585   6.504   3.096 -0.0437 -0.0624 -0.2992
 4294W        W21141  19.038   4.373  11.746 -0.0290 -0.0381  0.0617
 4295W        W21142  13.065  14.716  10.190  0.0929  0.1967  0.1477
 4296W        W21143   8.138  17.732  11.549  0.0515 -0.1088 -0.0502
 4297W        W21144   2.133  15.199  11.758 -0.1371 -0.1078  0.1575
 4298W        W21145   2.091   0.992   4.864  0.2126  0.2346  0.1421
 4299W        W21146  12.265  18.559   1.762 -0.0767  0.3718  0.1273
 4300W        W21147  16.964  12.631   1.481 -0.0378 -0.0527  0.1407
 4301W        W21148   9.832  10.331  11.243 -0.1305  0.1643  0.2341
 4302W        W21149  12.125  14.381  13.335  0.0299  0.0833  0.2621
 4303W        W21150   1.489   5.115   3.052 -0.1064  0.1110 -0.3506
 4304W        W21151  18.047  12.548  10.777 -0.0549  0.0594  0.1091
 4305W        W21152  15.362  12.186  13.397  0.1008 -0.1095  0.1261
 4306W        W21153   9.454  13.935   0.615 -0.3356 -0.2277  0.0800
 4307W        W21154  13.125   9.363  13.147 -0.0638  0.1900  0.0565
 4308W        W21155   9.365   7.198  10.591  0.0640 -0.2054 -0.0448
 4309W        W21156   2.738   3.015   2.328  0.0180 -0.1525  0.1055
 4310W        W21157   3.948  11.799  13.882 -0.0877 -0.0501 -0.0031
 4311W        W21158   7.329  19.116   2.501  0.1477 -0.0688 -0.3394
 4312W        W21159   4.416  16.794  10.053 -0.0568 -0.0558 -0.2714
 4313W        W21160   7.411  17.133   3.788  0.3856  0.0757  0.3449
 4314W        W21161   1.766  10.135  12.902 -0.0692 -0.0014 -0.1411
 4315W        W21162  17.689  19.626   2.520  0.0053 -0.0597  0.0906
 4316W        W21163   4.911   9.758  12.664  0.0492  0.0563  0.1786
 4317W        W21164   2.821   2.359   3.858  0.0051 -0.0481 -0.2189
 4318W        W21165   5.430   1.092  12.797 -0.3515  0.1180 -0.2853
 4319W        W21166   4.770  11.110   1.779 -0.1157 -0.1591  0.0315
 4320W        W21167  10.488   0.765   1.742 -0.0480  0.3002 -0.1894
 4321W        W21168   0.513  13.181   3.879  0.1612  0.3054 -0.3127
 4322W        W21169   0.497  15.244  12.082 -0.0969 -0.3495  0.0342
 4323W        W21170   9.795  10.551  12.654  0.2365  0.1606  0.0768
 4324W        W21171   4.351   1.838  10.210  0.0680 -0.0184 -0.0934
 4325W        W21172  14.063   4.540  11.866  0.0395 -0.0402  0.2064
 4326W        W21173  19.140   5.662   2.238  0.1845 -0.1571 -0.0114
 4327W        W21174   7.794  13.953  11.105  0.0725 -0.0028  0.2175
 4328W        W21175  14.814   2.275   0.983 -0.1529  0.0761 -0.0351
 4329W        W21176   1.411   7.678   3.270  0.2036 -0.2491  0.0390
 4330W        W21177   8.468  14.035   0.811  0.3908  0.1683  0.1912
 4331W        W21178  11.348   8.909  10.608  0.5832  0.0278  0.0711
 4332W        W21179  19.182  15.975   9.964  0.0546  0.1197  0.3615
 4333W        W21180   6.150  13.983  12.204  0.1572 -0.1067 -0.1002
 4334W        W21181   3.900   6.247   3.351  0.0881 -0.1452  0.4467
 4335W        W21182   0.377   3.472   4.419 -0.2856 -0.2856  0.2627
 4336W        W21183  13.414   4.446  10.765 -0.1992  0.1768  0.0991
 4337W        W21184  15.435  13.891  10.323 -0.2250  0.0083  0.2545
 4338W        W21185  12.239   8.136   0.897  0.0232  0.0559 -0.0980
 4339W        W21186   5.929   4.638  12.101  0.0594  0.2459  0.0439
 4340W        W21187  15.005   1.703  10.657  0.2387 -0.1031 -0.0295
 4341W        W21188  18.554  12.493   2.545 -0.3156 -0.0760 -0.2392
 4342W        W21189  17.299  12.503   0.022  0.0759 -0.1142 -0.3027
 4343W        W21190  14.433   0.097   4.531 -0.1258  0.3856  0.0481
 4344W        W21191  13.475  17.471  12.949  0.0543 -0.0959  0.0743
 4345W        W21192   1.722  15.356   2.180 -0.0487  0.1091  0.0240
 4346W        W21193   3.077   1.848  12.600 -0.0539  0.1512 -0.2039
 4347W        W21194  10.892  12.346  13.026  0.1610  0.1549  0.0727
 4348W        W21195  13.366   6.836  12.029 -0.2218  0.2323  0.0910
 4349W        W21196  18.191  16.139   2.269  0.1370  0.0514  0.3193
 4350W        W21197  17.452  10.066   0.329  0.0673  0.0000  0.1019
 4351W        W21198   9.498  10.080   4.047 -0.4567  0.0507  0.1180
 4352W        W21199   2.907   3.733   2.866  0.0602  0.2193 -0.3091
 4353W        W21200   6.795  13.524  10.663  0.2118 -0.2586  0.2007
 4354W        W21201  17.519   9.291   3.744  0.1670 -0.2081  0.3211
 4355W        W21202   3.510   8.878  13.602 -0.2178  0.2649 -0.1983
 4356W        W21203   7.307   7.220  14.296 -0.0303  0.1779 -0.3089
 4357W        W21204  14.571   1.362   2.774 -0.0128  0.1282  0.0600
 4358W        W21205  11.758   8.688  10.564  0.0811  0.0142 -0.0038
 4359W        W21206   4.666   9.532  10.506  0.2319 -0.0400 -0.3891
 4360W        W21207  13.456   2.810  11.480  0.1560 -0.0778  0.1555
 4361W        W21208  13.735   8.301   2.490 -0.1644 -0.0176 -0.1057
 4362W        W21209   0.674   6.579  12.484 -0.0985  0.1472  0.0079
 4363W        W21210  16.513   5.909  12.481  0.1039 -0.1206 -0.2868
 4364W        W21211  17.209   3.092  12.243 -0.2225  0.0860 -0.3049
 4365W        W21212   5.610   4.042  13.351 -0.2179  0.2375 -0.2151
 4366W        W21213   2.356  10.837  10.075  0.0021  0.1915 -0.3915
 4367W        W21214  18.433   4.757   4.385 -0.3701 -0.1495 -0.0044
 4368W        W21215   7.914   6.398   0.471  0.0452 -0.2134  0.3243
 4369W        W21216   2.643   3.044   4.542  0.1350  0.2552 -0.1695
 4370W        W21217   0.121   6.988   3.961 -0.0812  0.3240 -0.1275
 4371W        W21218   0.448   3.990   3.081 -0.0336  0.3218 -0.0801
 4372W        W21219   1.233  10.976  12.117 -0.1588 -0.0340 -0.0700
 4373W        W21220  17.699  13.953  11.899 -0.0931  0.1151  0.0375
 4374W        W21221   3.206   9.206   1.052  0.3505  0.2579  0.1003
 4375W        W21222  12.106   3.383   1.289  0.5362 -0.0944 -0.5537
 4376W        W21223  12.939  12.186   0.901 -0.0670  0.2505 -0.1070
 4377W        W21224   6.623   5.723   4.828  0.0385 -0.0056  0.1958
 4378W        W21225   2.339   9.394   3.885  0.0058 -0.1249 -0.0891
 4379W        W21226  13.981   3.571  10.373  0.1056  0.1503  0.0354
 4380W        W21227  18.986  16.310   0.804  0.2027 -0.0997 -0.0516
 4381W        W21228   4.958  12.666  12.435  0.1553  0.1734  0.0115
 4382W        W21229   0.638   1.677   5.114  0.0244  0.0639 -0.2779
 4383W        W21230   2.158  15.640   0.003  0.1412  0.0176 -0.0832
 4384W        W21231   2.054   7.874   5.643  0.0586  0.1482  0.0587
 4385W        W21232   1.468   6.698  11.436  0.0598 -0.2172 -0.1526
 4386W        W21233  13.658  14.974  10.717 -0.2812 -0.0645  0.3796
 4387W        W21234   6.072  18.596  14.175  0.1857  0.0164  0.1377
 4388W        W21235   6.846  10.375  13.555  0.2417  0.0485 -0.0525
 4389W        W21236  11.320  11.058   3.749 -0.1368 -0.1806 -0.1179
 4390W        W21237  11.352  17.589  10.481  0.0667 -0.0464  0.3127
 4391W        W21238   5.680  18.937  11.552  0.2326  0.0518  0.4104
 4392W        W21239   1.332  16.793   2.703 -0.0547 -0.0076 -0.0963
 4393W        W21240  19.426  16.802  13.481 -0.2109 -0.0509  0.1426
 4394W        W21241  12.082  17.015   4.271 -0.2251 -0.2211 -0.4270
 4395W        W21242  19.578  12.486  12.544  0.0790  0.0399  0.4187
 4396W        W21243   8.224  12.505  14.499 -0.0743 -0.0283 -0.0860
 4397W        W21244  19.514  17.293   2.434 -0.0885 -0.1863 -0.0068
 4398W        W21245   1.989  14.205  12.678  0.0396  0.0438  0.0437
 4399W        W21246   1.092  11.497   0.843 -0.0142  0.0447  0.0710
 4400W        W21247   8.843   2.616   5.309  0.0343 -0.5228 -0.1295
 4401W        W21248   9.978  10.714   5.260 -0.2368  0.0514 -0.1272
 4402W        W21249  16.547  17.910  14.594  0.2376 -0.5489 -0.4510
 4403W        W21250  17.178   0.513   4.673  0.0116  0.0182  0.2431
 4404W        W21251   7.885   2.529   1.761 -0.1176 -0.0961 -0.2259
 4405W        W21252  10.358  15.210  12.464  0.1169 -0.3062  0.2697
 4406W        W21253   7.408   0.461   1.350  0.1447  0.2529 -0.3109
 4407W        W21254   2.176  13.495  12.040 -0.0223  0.0867 -0.3512
 4408W        W21255  18.360   0.006   2.618  0.1401 -0.1456  0.1018
 4409W        W21256  19.239   0.017   0.860 -0.0570 -0.0350 -0.1549
 4410W        W21257   1.382   4.705   4.001  0.2000  0.0875 -0.1318
 4411W        W21258  13.787   0.309   4.903 -0.0268 -0.0957  0.0717
 4412W        W21259  14.442  17.951   4.173  0.0424  0.0268  0.2776
 4413W        W21260  17.103   7.988   2.921 -0.0626  0.1006  0.0968
 4414W        W21261  10.259  17.117   2.982 -0.1869  0.1257  0.1696
 4415W        W21262   9.933   1.916   2.899 -0.4991  0.0649 -0.0801
 4416W        W21263   2.437  16.999   2.691  0.0007  0.3515  0.0630
 4417W        W21264  15.268   0.856  10.900 -0.2573 -0.1408 -0.0322
 4418W        W21265   0.435  17.603   4.579  0.0563  0.1046 -0.1047
 4419W        W21266   1.671   6.863  11.946 -0.2274 -0.3037 -0.1755
 4420W        W21267   6.897  13.705  13.802 -0.2135 -0.0264  0.1760
 4421W        W21268   1.730   9.657  12.717  0.0782  0.1284 -0.2697
 4422W        W21269  18.877   7.319   5.627  0.2615  0.1265  0.0959
 4423W        W21270  10.400   1.832   4.215 -0.1131  0.4068  0.3766
 4424W        W21271  11.741  17.337   0.045  0.0096  0.0321  0.1303
 4425W        W21272   6.467   9.674   4.975  0.0023 -0.0397  0.0624
 4426W        W21273   6.050  16.005   3.316 -0.1205 -0.1964  0.3312
 4427W        W21274  16.636  10.411   1.590 -0.0940 -0.0879 -0.1865
 4428W        W21275  12.265   5.633  13.518 -0.0285  0.3656  0.0318
 4429W        W21276   7.777  11.449   0.309 -0.2706 -0.0478  0.3134
 4430W        W21277   9.918   8.096   0.534  0.1188 -0.0360  0.0381
 4431W        W21278   9.972   3.410   0.734  0.0579  0.2538 -0.0443
 4432W        W21279  19.619  14.503   1.091 -0.0383  0.0918 -0.1267
 4433W        W21280  19.511  12.387   0.418 -0.1802  0.2702  0.1791
 4434W        W21281   9.045   1.257   3.355 -0.1391 -0.2268 -0.0008
 4435W        W21282  15.871  16.477   4.349  0.4438  0.0561  0.1709
 4436W        W21283  13.481  19.355   1.030  0.0887  0.2019 -0.1275
 4437W        W21284   4.982   7.122  13.733 -0.1248  0.1245 -0.1941
 4438W        W21285  13.086   6.677   0.325 -0.1485  0.1183  0.0332
 4439W        W21286   0.898   7.819   4.363  0.1131 -0.0598  0.2145
 4440W        W21287   8.686   6.489   4.869  0.0907 -0.0755 -0.1857
 4441W        W21288   2.703  12.607  12.887 -0.2509  0.1027  0.1060
 4442W        W21289   2.875   7.555   1.299 -0.3032 -0.0421 -0.3042
 4443W        W21290  19.036   9.892   4.741 -0.1378  0.3541 -0.0023
 4444W        W21291   9.135  12.328  13.528 -0.2185 -0.0428 -0.0947
 4445W        W21292   3.611  11.256   4.374  0.0750  0.1587 -0.0643
 4446W        W21293  12.525  12.752  10.914 -0.0048 -0.0200  0.1654
 4447W        W21294   1.731   4.353  13.131  0.3101  0.0713  0.0976
 4448W        W21295  17.813   2.166  12.994 -0.0659 -0.4774 -0.2562
 4449W        W21296   2.685   8.889  13.187 -0.0228  0.0845  0.1646
 4450W        W21297   8.210   5.264  13.489  0.0219  0.0451 -0.1148
 4451W        W21298   9.608  16.360  13.194  0.1913  0.0732  0.4220
 4452W        W21299  19.258  12.802   3.057 -0.1974  0.0022 -0.0760
 4453W        W21300  11.627  10.106  11.672 -0.1369  0.4023  0.0803
 4454W        W21301   9.482   3.707  11.469 -0.1060  0.0539 -0.0477
 4455W        W21302  11.826  18.487   0.563  0.3478 -0.1816  0.2717
 4456W        W21303   3.639   7.942  12.515  0.1039 -0.0591  0.2042
 4457W        W21304   4.602  14.520   9.534 -0.0467 -0.1209  0.0873
 4458W        W21305  15.320   5.522  12.287 -0.2868 -0.4062 -0.0116
 4459W        W21306   4.285  10.174   3.462  0.0510  0.0952 -0.0761
 4460W        W21307  10.372  12.444   1.962 -0.0119 -0.2368 -0.3855
 4461W        W21308  15.433  17.718   3.208 -0.1593  0.0960 -0.1471
 4462W        W21309  17.641   0.203  11.816  0.2168  0.1564  0.1778
 4463W        W21310  10.503   7.235   3.182 -0.1829 -0.5907 -0.0528
 4464W        W21311  18.263  15.897  11.312  0.1993  0.1790 -0.1638
 4465W        W21312  11.523  13.481  11.808 -0.4010 -0.0904 -0.2652
 4466W        W21313   3.765   7.004  11.740 -0.0873 -0.0177 -0.3969
 4467W        W21314   4.616  15.899   2.250  0.1592 -0.3361  0.0017
 4468W        W21315  15.879  12.950  14.550 -0.1129  0.1459  0.0427
 4469W        W21316   8.573  13.623  12.435 -0.2753  0.2131 -0.1666
 4470W        W21317   8.878   5.964  14.595  0.1356 -0.0243 -0.4161
 4471W        W21318  11.862  16.399  13.068 -0.0235 -0.4325  0.0515
 4472W        W21319   2.394   5.934  13.859 -0.1760 -0.3086  0.0649
 4473W        W21320   7.767  17.613   0.895  0.0996 -0.0797 -0.0766
 4474W        W21321  16.727   9.459   0.837  0.2031 -0.1459 -0.1868
 4475W        W21322   7.684  13.884  12.943  0.1342  0.0364 -0.2093
 4476W        W21323   3.341   0.836  10.695 -0.0596  0.0391 -0.1845
 4477W        W21324  17.207  18.943  12.747  0.3452  0.0151 -0.0342
 4478W        W21325  13.126  16.769   3.763 -0.0893 -0.2477  0.4365
 4479W        W21326  11.177  10.159  12.928 -0.1973  0.2512 -0.0371
 4480W        W21327  13.420   8.756  10.384 -0.1247 -0.1663 -0.0680
 4481W        W21328   5.760   6.590   2.248 -0.1640 -0.3120 -0.0161
 4482W        W21329  13.906  16.337  10.744  0.2018  0.2084 -0.2395
 4483W        W21330  19.028  13.559   0.013  0.2211  0.3711 -0.1996
 4484W        W21331  17.867   6.705  10.678 -0.0220 -0.0416 -0.0693
 4485W        W21332   5.343   0.574  12.091  0.0310  0.1272  0.0068
 4486W        W21333  11.751   4.112  12.841  0.1757  0.2583  0.3052
 4487W        W21334  16.327   0.140   4.681  0.1007  0.3514  0.2163
 4488W        W21335   7.323   1.755   2.099 -0.2533 -0.4561  0.2910
 4489W        W21336   4.644   0.629  13.239  0.1447 -0.0129  0.1294
 4490W        W21337  10.644   5.420   2.562  0.2187 -0.1253 -0.1374
 4491W        W21338  17.527   7.912   1.947  0.0185  0.2229 -0.0801
 4492W        W21339  12.516   6.097   4.208  0.1268  0.4522 -0.0109
 4493W        W21340   0.506   8.506   3.367  0.0169 -0.0111 -0.0772
 4494W        W21341   3.148  11.076   6.154  0.2852 -0.0630 -0.1803
 4495W        W21342   9.464   6.329  10.084  0.0187  0.0684  0.0291
 4496W        W21343   4.286  14.024   4.782 -0.2363 -0.1384 -0.2347
 4497W        W21344  19.363   4.414   3.823  0.0880  0.0220  0.3629
 4498W        W21345   5.189   2.589  10.547 -0.0830 -0.1152  0.3818
 4499W        W21346   1.518   5.465   3.418 -0.1379 -0.0776  0.0867
 4500W        W21347   3.235   7.586  11.480  0.0904  0.0188 -0.0174
 4501W        W21348  14.450  19.454  12.698  0.0478  0.2877  0.3047
 4502W        W21349   8.018  14.038  14.354  0.0761  0.0659 -0.1875
 4503W        W21350  15.565  14.695  14.576 -0.0636 -0.0926 -0.2899
 4504W        W21351  10.910  11.985  12.200  0.0727  0.0487 -0.2339
 4505W        W21352   6.840   0.439  14.037  0.0376 -0.1420 -0.0385
 4506W        W21353  15.177   6.729   1.153  0.1886  0.1070  0.0631
 4507W        W21354  14.676   4.402   1.344  0.0437 -0.0411  0.1269
 4508W        W21355   3.337   5.341   0.520  0.1376  0.2998 -0.0563
 4509W        W21356  19.591   5.087   1.481  0.0063 -0.1809  0.0535
 4510W        W21357   6.394  10.990  12.546 -0.0307 -0.3562 -0.3990
 4511W        W21358   8.228   3.500   0.961 -0.0639 -0.0772 -0.1819
 4512W        W21359   2.911   7.110   4.914  0.3280 -0.0489 -0.3059
 4513W        W21360   1.897  14.887  13.447 -0.2990  0.1661  0.0863
 4514W        W21361   9.443  13.127  12.097  0.0134  0.0862  0.0276
 4515W        W21362   2.959  15.137   2.484 -0.0358  0.1291 -0.2465
 4516W        W21363  17.514  19.190   3.842  0.1265  0.0057  0.0492
 4517W        W21364  12.616  16.602   0.074 -0.2376  0.0697  0.0065
 4518W        W21365   5.816   9.114   0.682 -0.3162 -0.2054 -0.0532
 4519W        W21366  16.541   7.034  12.990  0.0043  0.1833  0.0944
 4520W        W21367   4.209   2.899   1.907  0.0519 -0.1281 -0.3307
 4521W        W21368  11.679   1.715  13.286 -0.1127 -0.2410 -0.3401
 4522W        W21369  12.643  11.869  11.990 -0.1849 -0.1533 -0.1398
 4523W        W21370  18.160  19.223   3.351  0.0978 -0.0451  0.0390
 4524W        W21371  12.710   7.948  13.552  0.1309 -0.0817 -0.2399
 4525W        W21372   0.214  18.963  10.678  0.0666  0.1206 -0.2179
 4526W        W21373  18.377   9.109   9.914 -0.0847 -0.1085 -0.0628
 4527W        W21374   8.529   1.193   2.240 -0.2975  0.1239 -0.1790
 4528W        W21375  14.441  11.994   3.418  0.2214  0.0785 -0.0751
 4529W        W21376   6.262  17.485   2.380 -0.0069  0.2346 -0.3097
 4530W        W21377  10.332  12.384  12.967  0.0187  0.2873  0.2521
 4531W        W21378   8.244  19.086   0.537  0.0729  0.0047  0.1754
 4532W        W21379  16.618  10.591   2.234 -0.2246 -0.3404  0.4275
 4533W        W21380   6.614  19.002  11.638  0.2674  0.0080  0.5711
 4534W        W21381  16.935  18.785   1.495  0.2266  0.0256 -0.0153
 4535W        W21382   0.663   0.187   0.900 -0.2822 -0.2522 -0.3049
 4536W        W21383  18.503  14.700   1.040 -0.1297  0.1365 -0.3270
 4537W        W21384  11.992   1.912  13.784  0.6321 -0.0292 -0.1508
 4538W        W21385   6.207  13.281   1.927 -0.2628  0.1269  0.1542
 4539W        W21386   0.623   9.813  11.924 -0.0029 -0.2169  0.2354
 4540W        W21387  11.165  15.681  12.058  0.1597  0.0008  0.0698
 4541W        W21388  10.136   1.211  11.573  0.1229  0.6124 -0.1138
 4542W        W21389   2.673   9.805  12.230 -0.1766 -0.1082  0.0742
 4543W        W21390   7.447   7.826  10.475  0.0264  0.2104  0.0456
 4544W        W21391   2.972  11.001   5.124 -0.1363 -0.2938 -0.0830
 4545W        W21392  19.004  15.723   2.050 -0.0116  0.1322  0.1708
 4546W        W21393  11.707   8.663   0.470  0.1630  0.0717 -0.2452
 4547W        W21394   0.032  18.550   1.561  0.1022 -0.3612 -0.1089
 4548W        W21395   8.963  14.722  13.210 -0.0314 -0.3350  0.1188
 4549W        W21396  14.975   3.110   3.573 -0.2789 -0.0151 -0.0264
 4550W        W21397   5.638   0.377  14.494  0.1014  0.1130 -0.0445
 4551W        W21398  13.067  10.130  13.364  0.1387  0.1836  0.1382
 4552W        W21399   2.758   0.121   3.697  0.0081  0.0290  0.4423
 4553W        W21400   9.797  15.206  12.038 -0.1017 -0.2034 -0.0665
 4554W        W21401  11.013   1.927  12.022 -0.1007  0.2679  0.1472
 4555W        W21402   7.565   1.002   1.464  0.0065  0.0197  0.1642
 4556W        W21403   3.605  14.546  13.716  0.0998  0.0114 -0.0048
 4557W        W21404  15.771  15.215   0.159 -0.1125 -0.0927 -0.0167
 4558W        W21405  10.826   0.594   0.742  0.2387 -0.0543 -0.0569
 4559W        W21406  16.600   8.748  14.186  0.0067 -0.0279  0.2138
 4560W        W21407   2.625   9.679   0.640  0.0330  0.1255  0.1111
 4561W        W21408   9.089   7.911   3.749 -0.2129  0.0029 -0.1659
 4562W        W21409  11.097  18.562  13.843  0.2450  0.0122  0.0857
 4563W        W21410  13.123   5.148  13.581 -0.1190 -0.1634 -0.1002
 4564W        W21411   4.905   0.386  11.871 -0.0407 -0.2764  0.0144
 4565W        W21412  11.160  10.702  11.553 -0.0132 -0.3126 -0.5910
 4566W        W21413   5.259  11.272  12.285 -0.0460 -0.2069 -0.2005
 4567W        W21414   7.491   0.860   3.719  0.1843  0.0011  0.1294
 4568W        W21415   3.425   1.730   3.967 -0.3153  0.2062  0.2288
 4569W        W21416  18.161  13.078  11.954 -0.0555  0.1573 -0.0827
 4570W        W21417   6.667  17.683   3.526 -0.3417 -0.1027 -0.0038
 4571W        W21418  16.281   6.565   2.150  0.1569 -0.1146  0.4286
 4572W        W21419  15.660  16.821   9.760  0.1161 -0.2234 -0.1815
 4573W        W21420   2.338  16.320   3.545  0.2949  0.0865 -0.1872
 4574W        W21421   1.281  10.294  13.318 -0.4697 -0.1825 -0.1220
 4575W        W21422   8.834  16.913   4.352  0.1267 -0.1960  0.2509
 4576W        W21423   8.812   7.675  10.768  0.0326  0.0989  0.1511
 4577W        W21424   7.425  15.109  10.442  0.1405  0.2468 -0.1967
 4578W        W21425  15.466  12.724  12.660 -0.0740  0.3548  0.0003
 4579W        W21426  15.783   4.272  12.456 -0.1591  0.4000  0.1084
 4580W        W21427  11.203   5.342   2.845 -0.0795 -0.0040 -0.1097
 4581W        W21428  13.038  15.832   3.450 -0.0103  0.5523  0.2423
 4582W        W21429   9.014  17.539   0.342  0.1132 -0.0180 -0.2273
 4583W        W21430   0.995   6.054   1.860  0.0227 -0.1917  0.2128
 4584W        W21431  13.703   2.395  14.302 -0.1473 -0.0893 -0.0349
 4585W        W21432   8.839  11.458  12.561 -0.3232  0.2817 -0.2229
 4586W        W21433  19.390   9.914   4.406 -0.0868  0.3015 -0.2296
 4587W        W21434  13.344   6.457   2.241 -0.1230 -0.0288 -0.3597
 4588W        W21435  14.642   3.548   2.663 -0.2642  0.0858  0.1130
 4589W        W21436  15.556   3.300  12.165  0.2568  0.0650  0.3742
 4590W        W21437   3.824   2.739   8.932 -0.2215 -0.2616  0.0073
 4591W        W21438   9.185   2.471   2.125  0.2299  0.0715 -0.0766
 4592W        W21439  11.810  16.534   2.187 -0.2730  0.1468  0.0474
 4593W        W21440   1.745  18.588  11.110 -0.0115 -0.1219  0.0239
 4594W        W21441  16.430  16.449   2.712 -0.0665 -0.2791 -0.2472
 4595W        W21442  17.875   0.350   1.261 -0.0255  0.1704 -0.2853
 4596W        W21443  10.200   9.870  11.408 -0.2207 -0.2013  0.0011
 4597W        W21444  17.103   8.851  12.062 -0.0644 -0.1499 -0.0245
 4598W        W21445   5.805   5.692  10.590  0.0069  0.2229 -0.1960
 4599W        W21446  13.682   0.723  11.879  0.1030  0.4603  0.0199
 4600W        W21447  10.722   4.966  14.394 -0.1810  0.0444 -0.1128
 4601W        W21448   2.685   1.918  13.361  0.1836 -0.1107 -0.0455
 4602W        W21449  19.552   0.123  13.081  0.2729  0.2375  0.2312
 4603W        W21450  14.024  10.987   2.889  0.1126 -0.1665  0.0022
 4604W        W21451   3.802  12.735   1.319 -0.0274 -0.0893  0.0093
 4605W        W21452  10.327   6.312   1.020  0.4262  0.4307 -0.1498
 4606W        W21453  12.449   8.625  11.663 -0.0968  0.1289  0.1574
 4607W        W21454  16.756  15.118  12.386 -0.1076  0.2102  0.0381
 4608W        W21455   7.220   7.185   2.202  0.2362  0.0742  0.1902
 4609W        W21456   2.277   3.475   0.504 -0.1064  0.0262 -0.0709
 4610W        W21457   1.489   4.420  13.584  0.0702  0.3337  0.0612
 4611W        W21458  18.584   0.622  12.183  0.1381 -0.0835 -0.2312
 4612W        W21459  18.163  13.920   0.185  0.0484 -0.1810 -0.2016
 4613W        W21460  17.938   6.067  14.321 -0.0559  0.0767 -0.1111
 4614W        W21461   1.002  10.002   1.197  0.3307 -0.0823  0.0991
 4615W        W21462  10.407   1.663  11.703 -0.0232 -0.1686 -0.2771
 4616W        W21463   0.625  18.720  10.689 -0.1560  0.4757  0.2679
 4617W        W21464   0.622  10.974   3.453  0.1048 -0.0572  0.4471
 4618W        W21465   6.589  11.926   0.771 -0.0243 -0.0845  0.0289
 4619W        W21466  16.531   5.206   1.532  0.0599 -0.2876 -0.0868
 4620W        W21467  18.476  11.609   5.381  0.3078  0.3662 -0.2854
 4621W        W21468  12.569  15.313  13.487 -0.0151 -0.2532  0.4508
 4622W        W21469   2.819  18.353  12.480  0.0137  0.0163  0.0863
 4623W        W21470   0.850   7.451   0.796  0.2225  0.0399  0.2247
 4624W        W21471   7.636  16.266  13.477 -0.0179  0.2017 -0.1174
 4625W        W21472  19.170   4.972   5.033 -0.0183 -0.0323 -0.0355
 4626W        W21473  16.566  18.339  10.650 -0.0261 -0.1588 -0.1775
 4627W        W21474   8.286   3.124   1.445 -0.1797 -0.4220  0.2595
 4628W        W21475   6.350   6.893  14.135 -0.2902 -0.0567  0.1624
 4629W        W21476  14.056  15.488   0.266 -0.1031  0.0316 -0.0823
 4630W        W21477  11.751  12.924   4.835  0.2675 -0.0685  0.0224
 4631W        W21478   8.734   0.667  11.311 -0.0294 -0.0007 -0.1917
 4632W        W21479  11.849  14.284  12.873 -0.1191 -0.0790  0.0836
 4633W        W21480   8.206  10.043  11.225 -0.2853  0.2464  0.1356
 4634W        W21481  18.943   1.017  12.221 -0.1417 -0.0830 -0.1558
 4635W        W21482  13.593  10.212   1.226  0.1022  0.2681 -0.1328
 4636W        W21483  14.425   8.648  13.236  0.0389  0.3665 -0.0212
 4637W        W21484  12.695  14.486   2.868  0.0521  0.3138  0.1625
 4638W        W21485   2.119   4.746   3.836 -0.1055  0.2378  0.0441
 4639W        W21486  15.172   4.599   1.270  0.0411  0.0599 -0.0907
 4640W        W21487   6.076   9.472   2.398 -0.1983 -0.2871  0.4332
 4641W        W21488  14.420   1.615  12.603 -0.0496 -0.1161 -0.0729
 4642W        W21489   6.633   9.401  12.931 -0.0319  0.1105  0.0945
 4643W        W21490  18.876   5.110   3.891  0.3601 -0.0395 -0.2662
 4644W        W21491   5.987   6.026  13.911 -0.2160 -0.2005 -0.0590
 4645W        W21492   6.221   1.057  14.217  0.0776  0.2083  0.0810
 4646W        W21493  12.582   0.045   3.026 -0.1722  0.0495  0.0033
 4647W        W21494  16.234   8.853  13.378  0.1416 -0.0065 -0.1293
 4648W        W21495   5.304   1.250  13.682  0.2238 -0.0708 -0.2279
 4649W        W21496   9.412  12.222   2.485 -0.2025  0.0858 -0.0754
 4650W        W21497   1.977   7.285   3.954  0.2747 -0.0177 -0.1043
 4651W        W21498  11.962   5.356   4.186  0.0656  0.0124 -0.0888
 4652W        W21499   3.674   0.765   0.731 -0.1419 -0.0128  0.1083
 4653W        W21500  11.183   2.416   4.119 -0.2631  0.1399  0.0603
 4654W        W21501  17.748   2.479  13.927 -0.0275 -0.1477  0.0680
 4655W        W21502  16.715   1.986   1.182  0.0953 -0.1706 -0.4696
 4656W        W21503  17.885   2.687  10.925  0.0425 -0.0157  0.1201
 4657W        W21504   0.935   9.235  13.787 -0.2028  0.1729  0.0761
 4658W        W21505  14.439   9.625  12.976  0.0287  0.1259 -0.1045
 4659W        W21506   8.721   7.558   9.900  0.0767 -0.1431  0.1763
 4660W        W21507  19.178  12.605  13.776  0.0259 -0.3931 -0.1699
 4661W        W21508   2.085   6.846   1.602  0.0231 -0.0594 -0.2184
 4662W        W21509  11.761  16.882   1.898 -0.1280 -0.0354  0.0239
 4663W        W21510   9.895   6.202  12.205  0.0457  0.2806 -0.0798
 4664W        W21511   0.707   6.869  12.933  0.1129 -0.0444  0.2454
 4665W        W21512   2.007  13.794  12.958  0.4162  0.0627 -0.1397
 4666W        W21513   7.008  10.205   0.732  0.0854  0.0960  0.3784
 4667W        W21514  16.302   0.341   8.914  0.0593 -0.1715  0.3038
 4668W        W21515  12.640  10.663   3.138  0.0767 -0.3587 -0.0704
 4669W        W21516  11.148  10.453   0.283  0.0179 -0.0854 -0.3624
 4670W        W21517   6.165  19.374   3.938  0.1164  0.1547  0.1544
 4671W        W21518   5.124   1.253   1.139 -0.0304  0.0656 -0.0616
 4672W        W21519   0.185   1.379   9.049 -0.2501  0.0273 -0.0191
 4673W        W21520  11.647  16.013  13.323 -0.0400 -0.1267 -0.2019
 4674W        W21521  18.680   9.745  11.643  0.2539  0.2460  0.0352
 4675W        W21522   4.730   8.879  11.613 -0.1034  0.1294  0.2508
 4676W        W21523  10.663  11.657   1.597  0.0254  0.0607  0.0538
 4677W        W21524   2.211  16.409  11.329 -0.1103 -0.1344 -0.3151
 4678W        W21525   1.978   5.188  10.224 -0.0724  0.0484 -0.1156
 4679W        W21526   3.214   1.352  12.501 -0.2043 -0.2749  0.1447
 4680W        W21527   5.696   4.958  11.410 -0.1978 -0.1143  0.0155
 4681W        W21528  19.374  14.964   3.078 -0.2741 -0.2382  0.0748
 4682W        W21529  14.262   3.198   3.067  0.1749  0.1275 -0.2866
 4683W        W21530   9.608  12.526  14.307  0.2381  0.0038 -0.2317
 4684W        W21531  15.898   9.711  10.538 -0.1355 -0.1562  0.0483
 4685W        W21532  11.760  18.022  11.330  0.1194  0.3114  0.0192
 4686W        W21533  13.385   7.021   2.638 -0.3238 -0.1170 -0.1687
 4687W        W21534  16.254  18.017   2.658  0.0823  0.0318 -0.0974
 4688W        W21535   9.776   0.517   2.884 -0.1372 -0.0572 -0.0762
 4689W        W21536  12.698  10.685  14.518 -0.0500  0.0150 -0.0663
 4690W        W21537  10.167   1.567  12.178  0.1442 -0.0773 -0.1246
 4691W        W21538   7.377  14.180  10.818 -0.1862 -0.0633  0.1884
 4692W        W21539  18.711  19.289  11.870 -0.0264 -0.0716  0.1011
 4693W        W21540   5.485  12.878   4.778 -0.1077  0.1834  0.0671
 4694W        W21541  12.628   1.668   3.483  0.2434  0.2544  0.1181
 4695W        W21542   0.558   8.756   4.295  0.2701  0.2882  0.1033
 4696W        W21543   5.337   8.432  12.723 -0.0105  0.0272 -0.2650
 4697W        W21544   0.323   3.999   3.817 -0.3177  0.1556  0.0970
 4698W        W21545   8.094  15.161   3.151  0.0236  0.2886 -0.3139
 4699W        W21546  13.892  18.405  11.092 -0.2436 -0.2937  0.0591
 4700W        W21547   6.158   1.581   9.156 -0.0488 -0.0676  0.0869
 4701W        W21548   7.025  13.216   2.994  0.2875  0.0045  0.0471
 4702W        W21549  14.267   0.773   3.041 -0.2587  0.0110  0.1720
 4703W        W21550   7.983   2.690   0.287 -0.1289  0.1637 -0.0249
 4704W        W21551   2.242   8.623   5.445 -0.0236  0.0238  0.2237
 4705W        W21552   3.281  10.130   1.192 -0.2310 -0.0234 -0.0365
 4706W        W21553   7.924  16.202  11.731 -0.1832  0.0405  0.1819
 4707W        W21554   8.275   3.739  14.608  0.0283 -0.0003 -0.1351
 4708W        W21555  10.600  16.772   3.297  0.0940  0.0988 -0.0333
 4709W        W21556   5.421   2.723   4.575  0.0440 -0.2839 -0.2053
 4710W        W21557   8.164  14.117   1.278  0.0191  0.2636 -0.0971
 4711W        W21558   0.715   9.370   0.608  0.0679  0.1678 -0.2176
 4712W        W21559   9.909  17.244   0.472  0.1448  0.0786  0.1008
 4713W        W21560  12.808   3.191   1.242 -0.0734 -0.0429 -0.2986
 4714W        W21561  17.874  13.802   1.053 -0.1748 -0.3797  0.0244
 4715W        W21562   0.913   1.655   4.302  0.4157 -0.3679 -0.0908
 4716W        W21563  14.877   2.980  11.245  0.2435 -0.1469 -0.2998
 4717W        W21564  10.406   6.334   3.965 -0.1646 -0.0344  0.2367
 4718W        W21565  18.926  10.923   2.173  0.2074 -0.1229  0.0961
 4719W        W21566  17.297   7.343  12.532 -0.0128 -0.1297 -0.0998
 4720W        W21567   4.987  15.860   3.196 -0.0039  0.0001 -0.1539
 4721W        W21568   1.290   3.973   1.078 -0.1091  0.1584 -0.1347
 4722W        W21569  18.485  19.369   2.996  0.2493  0.0716 -0.1724
 4723W        W21570   8.302   6.321   4.102 -0.1312  0.0473  0.1490
 4724W        W21571   2.101  19.248   4.142 -0.0178  0.3024  0.0759
 4725W        W21572  13.421  11.571   0.572  0.0743  0.1913  0.1638
 4726W        W21573  16.220  10.812  13.980 -0.2405  0.0713  0.1124
 4727W        W21574   8.424   3.081  10.484  0.0127  0.0914  0.1578
 4728W        W21575   4.612  15.701   4.100 -0.1232  0.1677  0.1035
 4729W        W21576   1.168   6.281   2.261 -0.1623  0.1754  0.1064
 4730W        W21577  10.812  11.344   3.001  0.1367 -0.0579  0.0672
 4731W        W21578   1.398  16.825  13.471 -0.0313 -0.1021 -0.0582
 4732W        W21579   4.571  10.130  14.595  0.1651 -0.1934  0.3022
 4733W        W21580  15.539  16.501  10.152  0.0849 -0.0542 -0.3260
 4734W        W21581   8.067  13.705  12.458 -0.1458 -0.0966  0.1858
 4735W        W21582   6.548   2.436  11.191  0.3450  0.2022  0.1611
 4736W        W21583  10.143   7.849   0.971 -0.0234  0.0282  0.2302
 4737W        W21584  15.626  17.643  13.085 -0.2612  0.1518 -0.4230
 4738W        W21585  18.987   4.404   0.474  0.0020  0.3865 -0.1226
 4739W        W21586  17.601  10.648   1.688  0.0465  0.1036  0.2546
 4740W        W21587  18.445  10.910  13.234  0.1851  0.2365  0.0257
 4741W        W21588  16.686  15.197   2.424 -0.0232 -0.0564 -0.3356
 4742W        W21589  18.592  16.996  13.614  0.2028 -0.3651  0.2611
 4743W        W21590  11.086  10.628  13.331  0.1809  0.0903  0.0409
 4744W        W21591   9.948   8.957   0.537  0.2032  0.2451  0.1356
 4745W        W21592  11.272   0.019   1.897 -0.1615 -0.0666 -0.1581
 4746W        W21593   9.626  19.332  11.757  0.1404  0.3643 -0.0328
 4747W        W21594  13.414  17.259   2.213  0.2631 -0.0074  0.4384
 4748W        W21595   8.458   9.400  14.536 -0.1025 -0.2344 -0.0991
 4749W        W21596   0.033   0.762   4.259  0.0771 -0.1045  0.2947
 4750W        W21597  17.449   5.971  14.331 -0.0135  0.0466 -0.0884
 4751W        W21598   2.317   5.098   1.527  0.0516  0.0813 -0.0564
 4752W        W21599   3.705  16.904  13.611  0.0735  0.2679 -0.2375
 4753W        W21600   5.986   2.704   1.408 -0.3021  0.0133  0.0947
 4754W        W21601   2.062  14.208  11.285 -0.2123  0.3533 -0.2150
 4755W        W21602   2.593   4.115   2.889 -0.2680 -0.3246 -0.0889
 4756W        W21603  18.497  17.339  12.575 -0.0243  0.0304 -0.0565
 4757W        W21604   8.136  13.358  13.312 -0.1851 -0.1781  0.2851
 4758W        W21605  10.052   1.133  13.902 -0.0971  0.0209  0.0003
 4759W        W21606  13.280   4.148   1.989  0.0958  0.2878 -0.0326
 4760W        W21607  14.340   4.538   1.007  0.0424  0.1083 -0.0732
 4761W        W21608  11.497   7.610  11.458  0.0869  0.3543 -0.1093
 4762W        W21609  11.873  17.004  10.160  0.1977  0.0659 -0.0047
 4763W        W21610   9.452  15.854   3.338  0.0730 -0.0763  0.0822
 4764W        W21611  18.800   8.012   3.295  0.1507 -0.0846  0.2001
 4765W        W21612   9.873   4.940  13.756  0.0767 -0.1173 -0.0273
 4766W        W21613  10.102   0.421  12.322  0.1956  0.2859 -0.2950
 4767W        W21614  14.815  16.036   4.624 -0.0856  0.0822  0.4061
 4768W        W21615   9.160   6.339  10.518  0.2329  0.2864 -0.1277
 4769W        W21616   0.435   2.467   1.741 -0.0680 -0.0369  0.0879
 4770W        W21617  13.496   3.570  10.258 -0.4273 -0.0363  0.1759
 4771W        W21618  17.393  15.699  13.174  0.1700 -0.0782 -0.1852
 4772W        W21619   7.329   0.481  13.309  0.1300  0.2084 -0.0644
 4773W        W21620  11.571   5.623   4.111 -0.0898 -0.0706 -0.2376
 4774W        W21621  10.595   8.976  14.471  0.0317 -0.2532  0.0902
 4775W        W21622   5.943  12.233  11.497 -0.0191  0.2380  0.1252
 4776W        W21623  11.300  16.923   1.682 -0.0545  0.0268 -0.0554
 4777W        W21624   1.597   0.682  12.422  0.1238 -0.1091 -0.1845
 4778W        W21625  14.764  11.119  10.953 -0.0949 -0.3511 -0.0373
 4779W        W21626   9.336  11.361  12.644  0.1512 -0.1304 -0.1165
 4780W        W21627  18.388   3.665  13.166 -0.1144 -0.2563 -0.0122
 4781W        W21628   2.362  15.529  12.852 -0.1466 -0.1524  0.1462
 4782W        W21629   2.429   9.288   2.843 -0.0612 -0.0326 -0.0269
 4783W        W21630  12.276  11.691   4.635 -0.0349 -0.3060 -0.1049
 4784W        W21631  12.023   1.385  11.062 -0.0661 -0.1224  0.1365
 4785W        W21632  13.066  12.883   2.335  0.2811 -0.0946  0.1175
 4786W        W21633   3.550   4.822   4.066 -0.0369  0.3711  0.1381
 4787W        W21634   4.244   9.105  12.102  0.0380 -0.1249 -0.2353
 4788W        W21635   0.836  10.501  13.217  0.3051  0.2536 -0.1925
 4789W        W21636   8.059   9.046  13.283 -0.0483  0.0675 -0.2278
 4790W        W21637  17.874  15.595   3.422  0.0295  0.4559 -0.1269
 4791W        W21638   2.375   4.250   2.044  0.1117  0.1996 -0.1574
 4792W        W21639  18.760   8.263   2.640  0.0445 -0.1167 -0.0295
 4793W        W21640   0.064   0.542   1.204 -0.0559  0.0054 -0.0741
 4794W        W21641  16.551   1.483   3.923 -0.0662  0.0928  0.0646
 4795W        W21642  17.146   7.364   4.187  0.1568  0.4712  0.2230
 4796W        W21643   3.746   5.431   5.489 -0.0680  0.2115  0.2942
 4797W        W21644  14.169  12.921   2.662 -0.0375  0.1559  0.1223
 4798W        W21645   0.253  18.331   0.675  0.0596  0.1360  0.0753
 4799W        W21646  14.245   4.853  10.966 -0.0184 -0.0988  0.2132
 4800W        W21647  14.948  14.613  12.922 -0.1148 -0.0518 -0.0469
 4801W        W21648  14.691  14.723  12.355  0.0303  0.0628 -0.1289
 4802W        W21649  18.071  16.373  11.299 -0.0225 -0.0999 -0.1282
 4803W        W21650  10.645   6.656  10.444  0.2194  0.1114 -0.1927
 4804W        W21651   9.734   0.225   3.345 -0.0603 -0.1423 -0.4233
 4805W        W21652  13.634   0.032   4.042  0.2630 -0.2275 -0.1372
 4806W        W21653  13.437  12.934   1.941  0.1521  0.2917  0.2334
 4807W        W21654   3.843  17.301  14.355  0.1290 -0.3099 -0.3243
 4808W        W21655  14.484  12.016   9.517  0.0429  0.0044  0.0297
 4809W        W21656  13.437   8.248  10.027  0.0651  0.0948 -0.1857
 4810W        W21657   5.061  13.741  10.558  0.2291  0.1734 -0.0530
 4811W        W21658  18.669   2.334  11.288 -0.1637  0.1551 -0.1614
 4812W        W21659  17.327  12.176   3.066  0.1508  0.1664  0.2566
 4813W        W21660  14.034   5.139   1.369  0.0742  0.0310 -0.1258
 4814W        W21661   4.057  11.897   0.187  0.0794 -0.2032 -0.1725
 4815W        W21662  10.274   6.428   0.482 -0.3523 -0.0576 -0.1796
 4816W        W21663  14.744   9.789  14.440  0.0308  0.1694 -0.2585
 4817W        W21664   5.063   0.871   0.426  0.0866  0.1996  0.1272
 4818W        W21665   5.499   8.792   0.923  0.2304 -0.1438 -0.1526
 4819W        W21666   9.868  13.893  12.419 -0.1435 -0.0334 -0.3497
 4820W        W21667   8.021  12.480   4.890 -0.1778  0.2464 -0.1580
 4821W        W21668   1.833  10.656   3.263 -0.0883 -0.2625  0.0023
 4822W        W21669  14.868   0.951  12.136  0.0694  0.1760  0.0623
 4823W        W21670   2.285  10.689   1.338 -0.0547 -0.2745  0.0228
 4824W        W21671   6.110   6.510  11.265 -0.0816 -0.2204  0.1817
 4825W        W21672  17.091  10.332   0.658 -0.1251  0.2211  0.0331
 4826W        W21673   8.896   6.224   4.273 -0.1209 -0.1450  0.0410
 4827W        W21674  16.291  15.983  11.671  0.2617 -0.0327 -0.2300
 4828W        W21675   6.308  19.504   0.937  0.3146 -0.1802 -0.1857
 4829W        W21676   8.979   1.279   2.811 -0.0156 -0.0971 -0.1462
 4830W        W21677  17.041   7.129  13.886  0.5123 -0.0020 -0.0650
 4831W        W21678   0.937  13.289   1.357  0.0888 -0.1795 -0.2739
 4832W        W21679  13.425  19.189  14.597  0.1939  0.0218  0.2070
 4833W        W21680   7.935   6.651  11.025  0.1743 -0.0148 -0.1488
 4834W        W21681  11.486  13.624   3.402  0.1064  0.1290  0.1161
 4835W        W21682   6.386   0.118   2.331  0.2951  0.0993 -0.0670
 4836W        W21683   7.679  10.249  12.969 -0.1259  0.0134  0.0985
 4837W        W21684  15.477  15.950   1.232  0.4602  0.3268  0.0952
 4838W        W21685   6.180   1.950  13.222  0.0127  0.0805  0.3808
 4839W        W21686   6.379   9.178  10.305 -0.3014 -0.2396  0.1711
 4840W        W21687   0.527  17.316  12.289  0.0790 -0.1114  0.5997
 4841W        W21688   4.129   5.973   3.710 -0.3274  0.1950 -0.1476
 4842W        W21689  16.248  11.720  13.804  0.1862 -0.2653  0.2456
 4843W        W21690   4.790   8.395  13.767 -0.0367 -0.0561  0.1322
 4844W        W21691  17.385   7.492  12.004 -0.1202  0.1513 -0.2186
 4845W        W21692  17.323  18.706  11.497  0.2454  0.1437  0.1806
 4846W        W21693   7.870   8.040   1.043 -0.0114 -0.1536  0.0311
 4847W        W21694  19.066   9.428   4.220 -0.1427 -0.1742 -0.1097
 4848W        W21695   1.619  16.046   2.594 -0.3835  0.1135 -0.2415
 4849W        W21696   6.834  19.176  10.852 -0.0761  0.1131  0.2592
 4850W        W21697  17.852  13.430  11.512 -0.3179  0.2438  0.4428
 4851W        W21698  19.546   9.277  11.928 -0.0184 -0.1977 -0.0913
 4852W        W21699   4.872  19.100   2.463  0.2496 -0.0161 -0.3792
 4853W        W21700  16.166   0.015   2.887  0.1833 -0.1878 -0.0152
 4854W        W21701   9.660   1.735   9.242  0.1481 -0.0506  0.0675
 4855W        W21702   4.795  11.181  12.614 -0.1877 -0.0427  0.2395
 4856W        W21703  13.730   9.894   5.272  0.5091  0.1384 -0.3138
 4857W        W21704  12.335   4.848  10.060 -0.0577  0.0421  0.0302
 4858W        W21705   3.733   1.731  13.064 -0.0399  0.2243  0.2634
 4859W        W21706   3.232  11.045  12.300 -0.2834  0.1605  0.0647
 4860W        W21707  18.003  14.686   1.148  0.0210  0.1237 -0.0262
 4861W        W21708   3.138  11.811  13.735  0.0180  0.2462  0.1613
 4862W        W21709   2.586   7.214   0.305 -0.2241  0.0351 -0.1218
 4863W        W21710   4.379   3.812   4.448  0.0985 -0.1551 -0.2454
 4864W        W21711   8.974   4.368   4.040  0.2013  0.1204  0.1455
 4865W        W21712   8.894  15.711   1.122  0.2981 -0.0501 -0.1890
 4866W        W21713   1.202  12.248   1.991 -0.0951 -0.0289 -0.4509
 4867W        W21714   4.792  17.013   4.510 -0.2542 -0.1174 -0.2566
 4868W        W21715  13.650   4.045  14.428 -0.1643  0.1380  0.2780
 4869W        W21716  16.200   6.928   3.623 -0.0816  0.3019  0.1232
 4870W        W21717   7.050  19.526  11.981  0.0558  0.2731  0.2187
 4871W        W21718  14.979   6.939   2.217  0.4103 -0.1273  0.2054
 4872W        W21719   1.437  13.869   2.616 -0.0704 -0.0190  0.0988
 4873W        W21720  18.349   2.598  13.127 -0.2565  0.3723  0.2558
 4874W        W21721  13.677  19.500   2.039 -0.1910  0.2542 -0.2852
 4875W        W21722  11.676   4.988  11.521  0.1688 -0.2415 -0.2745
 4876W        W21723   8.926   9.352  10.344 -0.0971 -0.0492 -0.0031
 4877W        W21724   4.376   1.945  13.984  0.0100 -0.0332 -0.0497
 4878W        W21725   7.720   3.768  11.979  0.0045  0.0918  0.2429
 4879W        W21726  14.593   7.364   2.233 -0.3053 -0.3806 -0.0042
 4880W        W21727   8.428  13.638  14.509 -0.1669  0.2009  0.1343
 4881W        W21728   2.676   5.449   4.233 -0.1823  0.1171  0.2792
 4882W        W21729   4.325   8.956   1.742  0.2917  0.2287  0.2651
 4883W        W21730   6.441   1.782  12.783 -0.2594  0.1186 -0.3400
 4884W        W21731   0.264   7.428  13.707  0.0520  0.0089 -0.1581
 4885W        W21732  16.961  10.265  14.179  0.3500 -0.0411 -0.3866
 4886W        W21733  10.337   2.001  13.948 -0.1597 -0.0615 -0.1310
 4887W        W21734  11.798  16.890   3.530 -0.0734  0.0253 -0.1794
 4888W        W21735  18.775   8.638  14.107 -0.1772 -0.0513 -0.0924
 4889W        W21736   1.421   8.390   3.830  0.2153 -0.3237 -0.5849
 4890W        W21737  13.746   3.517  11.757 -0.3557 -0.0610 -0.2164
 4891W        W21738   5.453   3.469  12.170 -0.0115 -0.0387 -0.3820
 4892W        W21739   2.825  16.421   0.924  0.2862 -0.1080 -0.2198
 4893W        W21740   8.870  17.619   2.345  0.1965 -0.1997  0.1092
 4894W        W21741  17.784   0.102  12.309 -0.2414  0.0635 -0.2961
 4895W        W21742   9.317   5.566  12.608  0.2251 -0.1912  0.0574
 4896W        W21743  11.918  12.172  10.382 -0.1794  0.3398 -0.0495
 4897W        W21744   1.181  10.564  14.255  0.4047  0.2669  0.0614
 4898W        W21745  10.572  18.423   1.172  0.0588 -0.0561 -0.0044
 4899W        W21746   4.482  16.000   0.936  0.2849  0.1074  0.1502
 4900W        W21747  12.597  12.031   0.610  0.0408  0.0718 -0.1403
 4901W        W21748  15.213   6.297   2.748 -0.2175 -0.1183 -0.0704
 4902W        W21749   8.483  11.248  12.873  0.1279  0.0486  0.2170
 4903W        W21750   8.430   7.125  11.806 -0.1115 -0.0721  0.0025
 4904W        W21751   3.333  13.293   4.357  0.0039  0.0056  0.0952
 4905W        W21752  16.183  14.741   1.227 -0.0537 -0.1515 -0.0202
 4906W        W21753   5.423  17.000  10.606  0.1519 -0.2460  0.0485
 4907W        W21754  13.981  17.889  13.507  0.0593  0.2098  0.1152
 4908W        W21755   7.107   3.709   3.439  0.0855  0.1482  0.0516
 4909W        W21756   1.475  11.928  13.786  0.2464  0.1858  0.1513
 4910W        W21757   2.537   0.813   0.049  0.0767  0.1400 -0.0142
 4911W        W21758   3.723  15.895  10.956  0.0399 -0.1292  0.2605
 4912W        W21759   5.142  19.398   4.018 -0.1995 -0.1062 -0.3146
 4913W        W21760   5.128  17.397  13.499  0.2550 -0.0088  0.0260
 4914W        W21761  18.232   5.645  10.698 -0.0407 -0.1888 -0.1001
 4915W        W21762  14.648  10.677  10.745 -0.0831 -0.1082  0.1233
 4916W        W21763  16.915  19.413  10.715  0.0266  0.6442  0.0152
 4917W        W21764   5.135   6.619  12.157  0.1497 -0.3695 -0.3813
 4918W        W21765  16.109  11.329  12.966 -0.2170 -0.2575 -0.0766
 4919W        W21766  16.920   0.163   4.016  0.0892  0.0017  0.3073
 4920W        W21767  10.745  18.457   3.863  0.3755 -0.1844 -0.2562
 4921W        W21768  18.717  10.201  12.776 -0.4405  0.0267 -0.0823
 4922W        W21769  15.594  18.445  11.916  0.0880  0.1586  0.2317
 4923W        W21770  16.730  13.248   0.113 -0.2631 -0.2835  0.1585
 4924W        W21771   3.028   1.852   0.664  0.0759 -0.0523  0.3339
 4925W        W21772  15.377   5.033  11.482 -0.1852 -0.0159 -0.0771
 4926W        W21773   0.989   5.406  12.826 -0.2262  0.0876 -0.4455
 4927W        W21774  18.734  10.197   5.485 -0.2494  0.2588 -0.0868
 4928W        W21775   2.219   0.858  13.779  0.0649  0.1894  0.0497
 4929W        W21776  10.079  15.893  13.990 -0.0917 -0.0256  0.2090
 4930W        W21777   9.383  12.696   2.199  0.0600 -0.0486 -0.1536
 4931W        W21778   0.387  16.147   2.954  0.1251 -0.0241  0.0334
 4932W        W21779  14.961  16.262  12.166 -0.2714 -0.2923 -0.0229
 4933W        W21780  15.689  16.873  14.271  0.1377  0.0439  0.2952
 4934W        W21781   0.550  16.451   3.853  0.0112 -0.0563 -0.1637
 4935W        W21782  13.784   8.610   0.176 -0.1187 -0.0448 -0.2425
 4936W        W21783  11.685  14.360  13.701  0.4046 -0.1214  0.0776
 4937W        W21784   6.577   0.895  10.272  0.1894 -0.1723  0.0514
 4938W        W21785   6.122  16.458  11.400  0.0786  0.2215  0.1334
 4939W        W21786  19.276   5.834   4.585 -0.3363  0.0052 -0.5220
 4940W        W21787  17.690  15.603   3.872  0.0762 -0.0984 -0.2486
 4941W        W21788   1.491   0.449   0.955  0.0067  0.2125  0.0077
 4942W        W21789   2.833  15.132   3.859 -0.2078  0.0931  0.0114
 4943W        W21790   8.687  16.015   4.538 -0.3584 -0.0228  0.1579
 4944W        W21791   4.392  19.387  11.191 -0.1728 -0.1014  0.1276
 4945W        W21792   0.312   7.250  14.179 -0.3326  0.3841 -0.2741
 4946W        W21793  16.527  15.825  13.539 -0.1151  0.0148 -0.1780
 4947W        W21794  12.668   6.996  12.362 -0.0875 -0.1493 -0.2713
 4948W        W21795   1.000   9.917   1.716 -0.1130 -0.2563  0.1528
 4949W        W21796  18.662   5.796   0.120 -0.1851  0.1263 -0.1265
 4950W        W21797   9.543  11.574   2.444  0.1297 -0.0690 -0.0688
 4951W        W21798  13.548  12.020  12.690  0.2171 -0.2829  0.2563
 4952W        W21799   9.159   8.700   1.975 -0.0832  0.4662  0.0754
 4953W        W21800   2.659  18.864   1.911  0.2330 -0.2912  0.0727
 4954W        W21801  18.448  14.193  13.297  0.1343  0.0538 -0.1875
 4955W        W21802   0.800   9.318   4.141 -0.1561  0.0351  0.1476
 4956W        W21803  16.063   3.921   3.038 -0.0760 -0.0277 -0.0123
 4957W        W21804   6.998  12.183   2.666  0.2104 -0.1503  0.0502
 4958W        W21805  15.020   3.089  13.791 -0.1874 -0.1191 -0.0861
 4959W        W21806   7.718   5.138   4.999  0.0228 -0.1259 -0.3111
 4960W        W21807   8.317   0.395   2.455 -0.0753  0.2660 -0.0347
 4961W        W21808   6.874   5.093   1.376 -0.0029  0.0500 -0.2157
 4962W        W21809  14.014   2.500   0.297 -0.1637  0.1477  0.0008
 4963W        W21810   3.036  12.896  11.354  0.3886 -0.1928  0.1634
 4964W        W21811   9.134   5.579  14.396 -0.0557 -0.0825  0.0291
 4965W        W21812   8.382  16.757   2.580  0.2729 -0.2921  0.2126
 4966W        W21813  12.405   6.087   5.020  0.0887  0.1832  0.0643
 4967W        W21814  18.072  16.065   1.009  0.0256 -0.2224  0.1004
 4968W        W21815  15.919  16.342  12.289  0.2877 -0.0268  0.2521
 4969W        W21816  13.180   3.889   0.068 -0.2285 -0.0258  0.1007
 4970W        W21817  18.089   0.635  11.892 -0.0206 -0.0127  0.3096
 4971W        W21818  13.256  17.844   4.182  0.0680 -0.0765  0.3804
 4972W        W21819   1.730   1.517  12.905 -0.1083 -0.0420  0.0684
 4973W        W21820   9.816  16.964   0.897 -0.3224  0.1149  0.0529
 4974W        W21821  11.727  17.900  12.246  0.1298 -0.0809  0.0877
 4975W        W21822  19.100  17.802   3.935  0.2245  0.0691  0.0600
 4976W        W21823   2.116  12.740   3.041 -0.0970  0.0185  0.1988
 4977W        W21824   6.991  13.161   2.322  0.0071 -0.0946  0.2251
 4978W        W21825  17.580  17.934  10.872 -0.1776  0.0565 -0.1943
 4979W        W21826  17.576  12.801   0.278  0.0997  0.1173  0.2941
 4980W        W21827   6.917  13.003   1.534  0.0288  0.1296 -0.2661
 4981W        W21828   9.162  16.856  14.199  0.1623 -0.1437  0.0457
 4982W        W21829  17.167   6.845  12.495 -0.0797  0.1859  0.1030
 4983W        W21830   0.588   4.429  11.319  0.0614 -0.0952  0.2833
 4984W        W21831  18.294   0.745  11.196  0.1602  0.2685  0.0680
 4985W        W21832  17.981  14.912   4.345 -0.0846  0.1302 -0.1751
 4986W        W21833   6.184   1.007  13.074 -0.1427 -0.0859 -0.1536
 4987W        W21834   5.539   7.082  13.856 -0.6451  0.2334  0.1032
 4988W        W21835   4.690   9.245   2.029  0.2285 -0.0952 -0.1364
 4989W        W21836   8.062   2.198   4.527  0.2301  0.1313 -0.1300
 4990W        W21837  11.037  13.677   1.663  0.1906  0.2252 -0.1249
 4991W        W21838   8.938  15.776  12.324 -0.2817  0.2412  0.1757
 4992W        W21839   1.555  10.891  14.289 -0.0755  0.2859 -0.0164
 4993W        W21840   7.826  12.455  11.614  0.0731 -0.0556 -0.1955
 4994W        W21841  16.282   5.651   4.840 -0.2328  0.2725 -0.1886
 4995W        W21842  14.608   0.616  13.717 -0.2141  0.1989  0.1204
 4996W        W21843   6.072  16.016   0.124 -0.2541  0.0453 -0.2501
 4997W        W21844  17.034  14.046  10.445 -0.3894 -0.1208  0.0405
 4998W        W21845  18.047  11.200   3.305  0.1795 -0.0719 -0.2219
 4999W        W21846  14.284  15.934  13.920 -0.1751 -0.2143  0.0103
 5000W        W21847  15.701   9.425  11.006  0.0578 -0.2678 -0.2931
 5001W        W21848   2.483  15.843   2.120  0.0441  0.1882  0.0530
 5002W        W21849   1.823  12.533   3.823  0.1576  0.3085  0.0050
 5003W        W21850  17.402   3.249  13.621  0.1605 -0.0060 -0.0573
 5004W        W21851  13.843  12.984   2.310  0.0120 -0.3323  0.1290
 5005W        W21852   9.104   1.615   4.884  0.1662 -0.0496  0.2620
 5006W        W21853   2.135   4.324   1.211  0.0932  0.2144 -0.2468
 5007W        W21854  17.496  12.543   1.687  0.1701 -0.1110 -0.1506
 5008W        W21855   4.591   4.437   9.130  0.0636  0.1332  0.0476
 5009W        W21856   3.526   3.032   2.633  0.3426 -0.1734 -0.1304
 5010W        W21857  14.147   0.177  10.467  0.0670 -0.2719 -0.3212
 5011W        W21858  16.448   8.744   4.979  0.5123 -0.1450 -0.1270
 5012W        W21859   8.174   5.306  14.407  0.0296 -0.0977  0.0774
 5013W        W21860   0.191   2.231  13.251  0.1511  0.1129  0.1051
 5014W        W21861   7.928   0.870   4.821  0.2068  0.0883  0.1716
 5015W        W21862  15.121  12.096  10.478 -0.0671  0.0903  0.1433
 5016W        W21863  12.458  11.400  11.978 -0.0289  0.0091 -0.2005
 5017W        W21864  15.533   9.827   4.591 -0.0457 -0.0129  0.1273
 5018W        W21865   5.581   6.247   1.937  0.1026  0.0655  0.2986
 5019W        W21866   7.582   6.022  13.737  0.1367  0.2186  0.3746
 5020W        W21867  15.295  10.014  10.282  0.1829 -0.0363 -0.0473
 5021W        W21868   0.706   7.220   4.309  0.5452 -0.1306  0.1167
 5022W        W21869   7.861  14.619   4.420 -0.2875  0.2366 -0.1272
 5023W        W21870   5.497   0.362  14.026  0.2633  0.1333  0.0982
 5024W        W21871  15.273   2.308  11.705 -0.3734 -0.0319  0.2164
 5025W        W21872   0.938   7.930   4.862 -0.1287  0.2411 -0.1306
 5026W        W21873   2.684   7.199   0.880  0.0685  0.1747  0.0917
 5027W        W21874  18.918   4.353  13.380 -0.1694 -0.0202 -0.0604
 5028W        W21875  11.900  17.264   2.592 -0.0488  0.0887 -0.0572
 5029W        W21876   5.813  10.867   3.425  0.2668  0.1621 -0.0928
 5030W        W21877   8.017   0.237   4.127  0.0162 -0.1238 -0.4129
 5031W        W21878  13.720   5.477   3.015  0.2150  0.0158  0.1080
 5032W        W21879  16.743  16.015   9.502 -0.0325  0.2177  0.2089
 5033W        W21880  11.968   9.837   2.875 -0.1510 -0.0987  0.0376
 5034W        W21881  13.991   9.023  13.450 -0.0884  0.0172 -0.1502
 5035W        W21882  11.391  17.305   1.239 -0.2667  0.4565 -0.2170
 5036W        W21883   4.972   0.361   0.788  0.5521  0.0418  0.1409
 5037W        W21884  15.041   8.993   4.817  0.0579 -0.0849  0.0278
 5038W        W21885  16.319   9.285   2.270 -0.5640 -0.2001  0.5862
 5039W        W21886  14.359   7.031   4.551  0.4403 -0.1022  0.2967
 5040W        W21887   1.196  13.412  12.711  0.2823 -0.0031 -0.1033
 5041W        W21888   3.637  14.090  13.918 -0.2077  0.1076 -0.1015
 5042W        W21889   7.582  17.682  11.477  0.1146 -0.0775 -0.2595
 5043W        W21890  14.025   4.505  13.882 -0.0080  0.0559 -0.3207
 5044W        W21891  17.387  12.177  11.865  0.0108  0.1747  0.3783
 5045W        W21892   0.128  11.050  11.272  0.1654 -0.0300 -0.3537
 5046W        W21893  14.748  16.267   0.440 -0.1690  0.1015 -0.0876
 5047W        W21894   3.846  13.757   0.214 -0.1654 -0.0585  0.2396
 5048W        W21895   3.023  16.271   4.238 -0.1531 -0.2818  0.0019
 5049W        W21896  10.631   4.405   3.259 -0.0323  0.1162 -0.1205
 5050W        W21897  14.575  18.058   0.535 -0.2036 -0.1582  0.6779
 5051W        W21898   6.463   5.255  11.866 -0.0295 -0.0884  0.0698
 5052W        W21899   3.114   6.561  10.110 -0.0285  0.3283 -0.1933
 5053W        W21900   0.373   2.651   4.372  0.0752 -0.2838  0.0618
 5054W        W21901   3.116  14.971   2.950 -0.2057  0.1299  0.1679
 5055W        W21902  19.546   6.958  12.002  0.0576  0.2688  0.1526
 5056W        W21903   2.312   4.680   0.824 -0.4786 -0.0744 -0.0158
 5057W        W21904  15.677  11.805   0.865  0.1681  0.1291 -0.4033
 5058W        W21905   8.815  11.467  14.367 -0.3256  0.1090 -0.1648
 5059W        W21906  18.484   3.945   3.946 -0.1737 -0.1339  0.0204
 5060W        W21907  13.600   2.809   0.033 -0.0552 -0.1331 -0.0438
 5061W        W21908   0.477   8.461   0.297  0.0476  0.0445 -0.2808
 5062W        W21909  12.874  10.265  14.362  0.0295 -0.0892  0.0883
 5063W        W21910  10.811   0.563   3.020  0.0079  0.2552 -0.1416
 5064W        W21911   3.594  15.782   0.697 -0.1915 -0.0812 -0.0432
 5065W        W21912  17.395   4.689   4.980 -0.1335  0.0842 -0.0069
 5066W        W21913  12.411   6.781   1.493  0.2469  0.1079 -0.3588
 5067W        W21914  18.193   4.616  13.937  0.3662  0.0374 -0.0280
 5068W        W21915   7.081  18.043  12.909 -0.4447  0.2024 -0.1530
 5069W        W21916  15.508  14.369  12.769  0.1979 -0.0070 -0.1076
 5070W        W21917  16.923  10.395  12.394  0.0942  0.4812 -0.2860
 5071W        W21918  18.842   5.924  13.808  0.0527 -0.1566 -0.1895
 5072W        W21919   8.161   9.787   2.208  0.0823 -0.3909 -0.2572
 5073W        W21920  16.761  16.934  14.310 -0.1476  0.0563  0.0979
 5074W        W21921  18.667   9.323  13.012  0.1013 -0.1178 -0.1903
 5075W        W21922   5.686  14.426   4.521 -0.1794 -0.0264 -0.2756
 5076W        W21923   7.529   4.429  14.264 -0.1072  0.0712  0.0506
 5077W        W21924  16.403  12.928   4.063  0.3460  0.2092  0.0536
 5078W        W21925  14.080   8.965   0.457 -0.0060 -0.1984  0.1604
 5079W        W21926  18.433   0.539   4.405 -0.1527 -0.0548 -0.2279
 5080W        W21927  16.052  11.593   4.727 -0.1496 -0.0533  0.0119
 5081W        W21928   6.735  17.695   2.214 -0.0516 -0.2114 -0.1431
 5082W        W21929  14.981  14.520   4.180  0.2302  0.1263  0.4665
 5083W        W21930  13.405  19.237  11.270 -0.0089 -0.2042 -0.2178
 5084W        W21931   9.738  14.542   4.554 -0.1318 -0.0909 -0.1868
 5085W        W21932  13.887  11.317  14.374  0.1728 -0.0183  0.0434
 5086W        W21933  10.055   9.182  12.406 -0.1158 -0.0087 -0.1130
 5087W        W21934   3.458   1.420   2.716  0.0617 -0.0123  0.1375
 5088W        W21935   4.600   6.776  10.985 -0.0033  0.2576  0.0489
 5089W        W21936   2.362   8.380   3.446 -0.0700  0.0108  0.0453
 5090W        W21937  11.916  16.680  11.294 -0.2369  0.2200  0.2098
 5091W        W21938   9.776  15.517   0.025 -0.3740  0.3090  0.2018
 5092W        W21939   3.275   7.267  13.528  0.0669 -0.0001 -0.0189
 5093W        W21940   1.174   0.229   3.898  0.0692  0.0128 -0.0133
 5094W        W21941   7.651   1.257  11.553 -0.0675 -0.0046 -0.1464
 5095W        W21942   5.493   3.455  12.700 -0.1809  0.1103 -0.1260
 5096W        W21943  14.719  12.565  11.197  0.1545  0.0259  0.0517
 5097W        W21944   5.025   0.296   4.096  0.0650  0.1585 -0.0539
 5098W        W21945  14.692  13.344  10.133  0.1119 -0.3851 -0.0303
 5099W        W21946  14.621  11.682   3.076 -0.1447  0.1354 -0.3356
 5100W        W21947  11.801  18.612  10.848 -0.2444 -0.1858  0.1342
 5101W        W21948  18.488  15.368  11.057  0.0465 -0.3955 -0.0619
 5102W        W21949  10.052   3.634   5.236  0.0580  0.0386  0.2860
 5103W        W21950  16.878  18.500  13.563  0.0431  0.0579 -0.2008
 5104W        W21951   1.150  12.291   0.086 -0.0567  0.0838  0.2674
 5105W        W21952   0.350   4.043   0.958 -0.0056 -0.2715 -0.2861
 5106W        W21953   5.385   3.013   0.792  0.0704 -0.0812  0.1603
 5107W        W21954   4.297   6.397   1.640  0.0405 -0.0669  0.0829
 5108W        W21955   4.489  12.336   3.253  0.0235 -0.1076  0.0686
 5109W        W21956  13.387  14.280   4.427  0.1151 -0.1040  0.0215
 5110W        W21957   2.084   3.036   5.080 -0.1463  0.0057  0.0931
 5111W        W21958   2.193   8.480  13.171 -0.0133  0.3370  0.2135
 5112W        W21959   2.142  17.411  12.670  0.0844 -0.0572 -0.1410
 5113W        W21960   4.370   2.346  10.118 -0.1250 -0.0937  0.1634
 5114W        W21961   5.659  19.386  10.809 -0.0993  0.0467  0.0838
 5115W        W21962  18.768  15.609   3.813  0.0490 -0.0770  0.2355
 5116W        W21963  12.577  14.408  11.105  0.0718  0.1144  0.2080
 5117W        W21964   0.275   4.694   0.177 -0.3193  0.2340  0.0874
 5118W        W21965  14.728  10.323  11.054  0.0682 -0.0498  0.0199
 5119W        W21966   8.045  13.828   3.355 -0.0334  0.2472  0.2499
 5120W        W21967   6.196  18.383   0.527 -0.1219  0.2381 -0.2689
 5121W        W21968  10.069  11.236   3.977 -0.0536 -0.1465  0.0404
 5122W        W21969   6.136  12.196  11.991  0.2173 -0.1496  0.2201
 5123W        W21970  13.222  15.543  12.322 -0.0121 -0.2431 -0.3239
 5124W        W21971   3.528  12.896   4.062 -0.2116 -0.3110  0.2307
 5125W        W21972  12.230   3.705   0.339  0.0742 -0.0870  0.0638
 5126W        W21973   4.785  19.129   3.800  0.0584  0.1750 -0.0645
 5127W        W21974  16.064   6.438  13.261 -0.2731  0.1583 -0.0846
 5128W        W21975  17.002  13.882   3.625 -0.0479 -0.3931  0.1618
 5129W        W21976   0.765   6.849   3.501 -0.1589 -0.0548 -0.1101
 5130W        W21977   0.202  14.109   0.880 -0.0556  0.0886  0.2204
 5131W        W21978   7.176  17.248  14.609  0.3727 -0.0430 -0.0276
 5132W        W21979   2.216  17.552   2.006  0.1894 -0.1434  0.3234
 5133W        W21980  19.451  11.864  13.202 -0.0213  0.0305  0.2920
 5134W        W21981  15.888  19.315  14.475  0.2794 -0.0157  0.0513
 5135W        W21982  16.012   0.356  10.539  0.0840  0.0102  0.2944
 5136W        W21983  10.039  15.328   3.836 -0.1961 -0.1447 -0.2612
 5137W        W21984  16.737   8.447   1.181 -0.2293  0.4638  0.2551
 5138W        W21985   5.876  12.619  11.874  0.0767  0.1485 -0.1575
 5139W        W21986  14.287   5.735  10.631  0.0635  0.0295  0.1042
 5140W        W21987   1.509   3.336   1.394  0.1611 -0.1152  0.1618
 5141W        W21988   8.980  16.979  13.578 -0.0436 -0.0334  0.3377
 5142W        W21989  13.537   4.767  11.263  0.1947 -0.0626 -0.0645
 5143W        W21990  16.363  14.110  14.606  0.1428  0.0163  0.0818
 5144W        W21991   5.344   6.569  11.075 -0.1840 -0.1639  0.0241
 5145W        W21992   9.357   5.566   4.773 -0.1674  0.0383 -0.1075
 5146W        W21993   7.080  17.287   0.780  0.2522  0.0576 -0.2616
 5147W        W21994   0.526   5.952   9.447 -0.1466  0.2943  0.2198
 5148W        W21995  17.037   3.785   2.372 -0.2208 -0.2362  0.0909
 5149W        W21996  11.965   6.573   1.744 -0.3547  0.0883  0.3043
 5150W        W21997  12.006   7.322  13.543 -0.0859  0.0143  0.4889
 5151W        W21998  16.201   1.528   2.544 -0.3870  0.2262 -0.1849
 5152W        W21999  13.877  15.475   2.190 -0.1453  0.0235  0.1436
 5153W        W22000   2.246  16.077  12.980  0.0012 -0.1218 -0.0774
 5154W        W22001  14.872   1.316   3.294 -0.0647  0.0203  0.1886
 5155W        W22002  17.254  17.428   3.694 -0.3641 -0.1396  0.1981
 5156W        W22003   3.516   6.694  11.424 -0.1520  0.0222  0.1415
 5157W        W22004   1.600  12.726  10.871 -0.0638  0.1825 -0.1612
 5158W        W22005  16.215   8.429  14.363  0.0869 -0.1353  0.1688
 5159W        W22006   5.350   1.489   0.246 -0.2544  0.1477 -0.1922
 5160W        W22007  16.297   9.419   5.216  0.0302 -0.0327 -0.0043
 5161W        W22008   2.849   2.160  14.212 -0.3070 -0.1254 -0.0841
 5162W        W22009   4.011   6.161   4.764 -0.1114 -0.1262  0.0482
 5163W        W22010  10.507  15.051  14.097 -0.1843  0.3432 -0.1982
 5164W        W22011  13.013  16.822   1.507  0.0482 -0.1978 -0.2547
 5165W        W22012   0.889  14.287   1.461 -0.2692  0.0641 -0.0344
 5166W        W22013   6.042  18.929   2.161  0.2715 -0.1175  0.1810
 5167W        W22014  14.989   6.041  11.157  0.0527 -0.4031 -0.0309
 5168W        W22015  10.757  13.677  12.945 -0.0385  0.1119  0.2563
 5169W        W22016   3.305   4.293   0.117  0.0543  0.0572 -0.2970
 5170W        W22017   2.033   8.383   3.036 -0.0827  0.3888  0.2837
 5171W        W22018   6.950   7.576  14.070 -0.1602  0.1469 -0.2877
 5172W        W22019  12.330   9.090   4.006 -0.4306 -0.0453 -0.1855
 5173W        W22020  10.783   1.218   3.756 -0.2487  0.0324 -0.3453
 5174W        W22021  11.940  12.675  10.319  0.2185 -0.0606 -0.2716
 5175W        W22022  14.610   0.076   0.821  0.4536  0.3575  0.0473
 5176W        W22023   1.295  10.780   1.284 -0.2061 -0.1605  0.1145
 5177W        W22024   2.216   1.179  10.406  0.3614  0.0034 -0.0289
 5178W        W22025   1.020  17.035  13.662 -0.2108  0.0737  0.0618
 5179W        W22026  10.853  12.309  11.493 -0.0201 -0.3630  0.1621
 5180W        W22027  13.007   2.413  11.559  0.0810 -0.0111 -0.2527
 5181W        W22028  10.994  15.495   1.442 -0.0127 -0.2983 -0.3944
 5182W        W22029  13.639   1.791  10.778 -0.0178  0.1645 -0.0864
 5183W        W22030  19.480   4.201   0.747  0.1201 -0.1073 -0.0724
 5184W        W22031  16.652   6.488   9.126 -0.3382 -0.2103 -0.1641
 5185W        W22032  13.100   0.021   2.832  0.0173  0.5648  0.0921
 5186W        W22033  16.312  17.642   2.296  0.1892  0.2269 -0.0709
 5187W        W22034   0.763  18.874   2.954 -0.2626 -0.0816  0.4323
 5188W        W22035  11.138   6.691  14.550 -0.1007 -0.2126  0.3154
 5189W        W22036  19.123   0.203  14.459  0.1624 -0.1831 -0.3837
 5190W        W22037  10.505   4.338   1.625 -0.1951 -0.1077 -0.1551
 5191W        W22038  17.937  16.649   3.419 -0.0469  0.2664  0.1624
 5192W        W22039   0.054   8.771   1.605  0.3611  0.2532  0.0693
 5193W        W22040  15.534  11.526  11.154 -0.0767 -0.1786 -0.0282
 5194W        W22041  19.399   6.005  12.457 -0.0556 -0.0053 -0.0734
 5195W        W22042  13.890  15.730  12.464  0.3423 -0.1918 -0.0498
 5196W        W22043  12.275  13.597   3.032  0.0274  0.0177  0.1347
 5197W        W22044   3.982  15.751   3.833 -0.3226  0.3006  0.2279
 5198W        W22045   6.196  15.454   3.273  0.0477 -0.0184  0.0074
 5199W        W22046  14.697   8.270   3.440 -0.1281 -0.2405 -0.1992
 5200W        W22047  11.807  10.284   3.764  0.2110 -0.0703 -0.1205
 5201W        W22048   4.726  17.958   5.439  0.0022 -0.0344 -0.0213
 5202W        W22049   9.855   8.338  10.763 -0.0117  0.1361  0.2910
 5203W        W22050   0.211  10.104   0.354  0.1395  0.2466  0.3930
 5204W        W22051  15.180   4.857   0.491 -0.0645 -0.1248  0.2443
 5205W        W22052   1.293  18.033   1.014 -0.1675 -0.3019 -0.0174
 5206W        W22053   0.073   6.173   9.513  0.0939 -0.3141 -0.1397
 5207W        W22054  17.845  17.784   3.041 -0.0340 -0.0361 -0.0574
 5208W        W22055   0.514   3.028  10.428  0.1411 -0.0930 -0.2503
 5209W        W22056   0.835  18.851  12.132  0.0940 -0.2068 -0.0096
 5210W        W22057   7.709   5.002  10.967 -0.2461 -0.1685  0.0355
 5211W        W22058   7.687  15.866   1.757 -0.2841 -0.1794 -0.0005
 5212W        W22059   0.215   2.930  12.252  0.0788 -0.1514  0.2328
 5213W        W22060   1.615   9.258  11.200 -0.0132 -0.0533 -0.0137
 5214W        W22061   0.949  14.167   1.952 -0.1962 -0.1047  0.0586
 5215W        W22062   6.657   7.599   4.387 -0.2739 -0.1780 -0.1387
 5216W        W22063  16.027   3.940   4.231 -0.0386 -0.2446 -0.0519
 5217W        W22064   6.112  12.027  14.057 -0.1065 -0.0402 -0.0449
 5218W        W22065   7.697  14.095  13.546  0.5221 -0.0810  0.0061
 5219W        W22066   3.278   1.921  10.817  0.1768  0.0161 -0.0037
 5220W        W22067   7.439  19.625   0.057  0.4519  0.2300  0.2492
 5221W        W22068  18.916  17.056   0.739  0.0693 -0.2137 -0.0153
 5222W        W22069  14.880   4.381  14.217 -0.1899  0.2621 -0.1573
 5223W        W22070   6.060   9.073  12.362  0.0308  0.2572 -0.0257
 5224W        W22071   1.568   4.751   4.508  0.1028  0.1500 -0.0676
 5225W        W22072   9.854  14.216  14.259  0.1390 -0.3117  0.0755
 5226W        W22073   6.153  12.592  13.832 -0.0669  0.2463  0.0671
 5227W        W22074  15.141   9.454   3.950  0.2213 -0.3267 -0.1005
 5228W        W22075   4.786  16.303  13.288 -0.1571 -0.1915 -0.0509
 5229W        W22076   4.051   0.947   3.337 -0.2571 -0.1547 -0.1085
 5230W        W22077   7.489  12.543   4.497 -0.2045 -0.0300  0.0174
 5231W        W22078   0.744  18.469   3.422  0.0958 -0.3246 -0.0258
 5232W        W22079   3.169  18.770   1.658  0.2542 -0.1309 -0.0051
 5233W        W22080   5.279  19.153  13.128  0.0010  0.1183 -0.0127
 5234W        W22081  12.008  16.866  12.830  0.1621 -0.2359 -0.1228
 5235W        W22082   4.722  16.365  11.998 -0.1349  0.1563  0.0756
 5236W        W22083   2.865  13.813  12.678  0.2181  0.0702 -0.0921
 5237W        W22084   7.260  14.159  13.074  0.2114  0.1138  0.2428
 5238W        W22085   7.290   4.560   5.456 -0.0434 -0.0456 -0.0215
 5239W        W22086  16.918  18.618  13.020 -0.1913  0.0977  0.2441
 5240W        W22087  10.546   9.637   2.235 -0.0667  0.1926 -0.1927
 5241W        W22088  19.617   0.101   2.198 -0.1179  0.0861  0.0429
 5242W        W22089   9.464  17.263   0.209 -0.1471 -0.0425 -0.1471
 5243W        W22090  15.198  14.713  12.445 -0.0044 -0.0869 -0.0925
 5244W        W22091  15.305  16.038   0.341  0.2619  0.1582  0.3599
 5245W        W22092  18.775  12.903   4.301 -0.0168  0.0906 -0.0036
 5246W        W22093  12.214  13.012   3.873 -0.1051 -0.0566  0.1738
 5247W        W22094  19.038   2.959   1.326  0.0404  0.1036  0.1258
 5248W        W22095   9.968  10.091   2.576 -0.0778 -0.1636 -0.3636
 5249W        W22096   7.292  11.061  14.099  0.1088  0.0504  0.0421
 5250W        W22097   9.245  19.398  12.132 -0.3829  0.2142  0.0684
 5251W        W22098   9.542  11.288   3.999 -0.1762 -0.1035  0.2417
 5252W        W22099   8.137   8.982  12.193  0.1781 -0.1492  0.2276
 5253W        W22100   3.759   7.880   1.016  0.1953 -0.1362  0.3033
 5254W        W22101  13.202   9.574   4.899  0.0268 -0.2079  0.0472
 5255W        W22102  12.094   4.683   3.989 -0.1846 -0.0556  0.1979
 5256W        W22103  19.446  15.485   2.083 -0.2545 -0.1094  0.0305
 5257W        W22104  12.151   0.976   3.161  0.1822 -0.1240 -0.0838
 5258W        W22105   1.318  16.700  11.353  0.0696 -0.1091 -0.0036
 5259W        W22106   2.694   8.925  13.982 -0.1100  0.0440 -0.3554
 5260W        W22107   6.185   3.988  11.617  0.1159  0.4404 -0.0438
 5261W        W22108  18.131   6.552   2.318  0.0660 -0.4972 -0.2670
 5262W        W22109   2.241   8.838   9.570 -0.4043  0.0692  0.0672
 5263W        W22110  11.692   1.848   0.431  0.2079  0.2699  0.1860
 5264W        W22111   2.648   7.300   2.092 -0.1440  0.0928  0.0161
 5265W        W22112   2.083  18.059  14.403  0.3999  0.1482  0.0767
 5266W        W22113   6.890   1.899  13.632  0.0488 -0.0173  0.1448
 5267W        W22114   7.987   5.291  11.885  0.0537 -0.2071 -0.1139
 5268W        W22115  13.090   1.263  13.940  0.0793 -0.1615 -0.0613
 5269W        W22116   4.314  12.065  11.883 -0.0620  0.0842  0.0073
 5270W        W22117  14.472  19.174   2.786 -0.1372 -0.0345  0.3272
 5271W        W22118  19.404   5.577  11.104 -0.0143  0.2116  0.1723
 5272W        W22119   8.448   2.227  10.890 -0.0114  0.1950  0.1033
 5273W        W22120  15.552   6.031   3.660  0.2192  0.1929 -0.1807
 5274W        W22121  10.200  14.310  13.326 -0.2650  0.2049  0.2546
 5275W        W22122   5.627   3.876   0.540  0.3282  0.0168  0.0422
 5276W        W22123   8.351   6.523  13.607  0.0674 -0.2373  0.0200
 5277W        W22124  12.137  17.150  14.203 -0.0595 -0.1844  0.1137
 5278W        W22125  12.453   9.078  12.010  0.0174 -0.0331 -0.3428
 5279W        W22126   0.152  19.154   9.766 -0.2757  0.0779 -0.1369
 5280W        W22127   2.140  17.926  11.213  0.2960 -0.3129 -0.2606
 5281W        W22128  16.234  12.936   5.560  0.1150 -0.0206 -0.0781
 5282W        W22129  10.058   4.322  14.376  0.2290 -0.1045  0.2906
 5283W        W22130  14.316  10.741   4.456  0.3727 -0.0489 -0.0761
 5284W        W22131  11.542  18.510  13.439  0.0331 -0.3647 -0.0736
 5285W        W22132   5.057  17.148   4.047  0.0009 -0.2065  0.0249
 5286W        W22133   2.297   1.010   3.543  0.3536  0.4269  0.0430
 5287W        W22134   4.558  11.016   4.074 -0.1984  0.1506  0.1562
 5288W        W22135   1.141  14.139   0.735  0.2561 -0.3506  0.2505
 5289W        W22136  13.885  16.992  13.086  0.3733 -0.0189 -0.0621
 5290W        W22137  16.425   7.627  14.383  0.4398  0.2505  0.2177
 5291W        W22138   9.863  13.701   0.443 -0.0879  0.0206  0.0013
 5292W        W22139  14.952  12.445  12.177 -0.1286 -0.1210  0.1673
 5293W        W22140   6.480   3.556   1.041 -0.4660  0.2512  0.3027
 5294W        W22141   3.317   7.431  10.445  0.1277 -0.1454  0.0408
 5295W        W22142   4.143  12.520   2.167 -0.2865  0.0595 -0.1154
 5296W        W22143  13.868   3.540  13.478 -0.1835  0.5784  0.1243
 5297W        W22144  15.119   6.877   4.927  0.0945 -0.1640 -0.0291
 5298W        W22145  13.962   1.736  12.667  0.1086  0.1409  0.1809
 5299W        W22146  15.816  10.945  13.344 -0.0789  0.0154  0.1618
 5300W        W22147  10.239  10.871   3.625 -0.2790  0.0178 -0.2507
 5301W        W22148  12.697   9.728   4.701  0.0149 -0.1078  0.1574
 5302W        W22149  13.669   4.569  12.671  0.2722 -0.1014 -0.0410
 5303W        W22150  18.836  18.517  10.111 -0.3122 -0.3348  0.1794
 5304W        W22151   2.644  14.071   2.716  0.0501 -0.0551 -0.0279
 5305W        W22152  13.546  10.615   5.856 -0.0657  0.0626  0.4635
 5306W        W22153  15.363  12.488   5.624  0.2144 -0.0956 -0.1623
 5307W        W22154  11.758   9.426  12.880  0.1068  0.0883  0.0591
 5308W        W22155  17.278  15.323  12.313 -0.1250 -0.5640  0.1208
 5309W        W22156  14.993   1.588  12.896 -0.1395 -0.4323  0.0059
 5310W        W22157  18.743   8.455  11.423 -0.2109  0.2327  0.2434
 5311W        W22158   5.859   6.989   2.643 -0.0549 -0.3559  0.0782
 5312W        W22159   4.159   6.981   4.023 -0.3469  0.1924  0.0633
 5313W        W22160   9.759  12.688  11.453 -0.0972  0.1159  0.0413
 5314W        W22161  14.863   5.340   2.879  0.0921  0.0787  0.1980
 5315W        W22162  14.660   4.554  11.789  0.2253 -0.0262 -0.1160
 5316W        W22163  18.417  16.231   0.592 -0.0516  0.3770 -0.1501
 5317W        W22164  16.322   7.259   5.394 -0.0714  0.0009  0.0122
 5318W        W22165  13.927  18.097  11.666 -0.0971 -0.1314  0.2458
 5319W        W22166   1.033   2.797  11.722  0.2692 -0.1461 -0.0510
 5320W        W22167   1.610   6.408  13.373  0.1441 -0.0783 -0.3283
 5321W        W22168   6.848   6.830  12.944  0.1470 -0.0260  0.1530
 5322W        W22169  18.159   0.741   1.043  0.4457  0.1872 -0.1109
 5323W        W22170  11.620   4.880  10.619 -0.0323  0.0730 -0.1721
 5324W        W22171   5.330   5.830  12.573 -0.0204 -0.1131  0.0476
 5325W        W22172  13.485  17.190   2.755 -0.1918  0.2030  0.1701
 5326W        W22173  11.890   3.235   9.961 -0.1444  0.1399  0.2107
 5327W        W22174  15.124   1.529  14.121  0.0666 -0.1245  0.0789
 5328W        W22175  11.129  16.294  12.826 -0.0181  0.1575  0.2380
 5329W        W22176   7.296   8.103   9.982  0.2689  0.3495  0.0667
 5330W        W22177   9.140   4.535  11.153 -0.4588  0.0459 -0.0370
 5331W        W22178   9.227  16.022  11.968 -0.2184 -0.2490 -0.4037
 5332W        W22179   0.456  13.619   0.851 -0.0180  0.0385 -0.0945
 5333W        W22180   9.445   9.137   2.059 -0.0371 -0.2918 -0.0134
 5334W        W22181  16.299   1.532  11.269 -0.0711  0.1378 -0.0278
 5335W        W22182  12.382   5.910   3.195 -0.0144  0.3378  0.0269
 5336W        W22183  15.060   7.504  12.403  0.1167 -0.0418 -0.3119
 5337W        W22184   3.770  17.481  12.667  0.2052  0.2378  0.3551
 5338W        W22185   0.007  14.030   3.056 -0.0701  0.1626 -0.1006
 5339W        W22186   5.890   3.919  10.396  0.4605  0.4156  0.1793
 5340W        W22187  15.840  14.709  12.995  0.1163  0.0519  0.6851
 5341W        W22188  11.476   4.396  10.426 -0.1219 -0.0262 -0.0162
 5342W        W22189   0.078  18.133  12.434 -0.0617 -0.1130  0.2091
 5343W        W22190   3.482   8.566  14.365 -0.0399 -0.2743 -0.0320
 5344W        W22191   4.285   9.560  10.244 -0.0391 -0.1393  0.1802
 5345W        W22192   7.701  12.128   4.701  0.1756 -0.2761  0.0182
 5346W        W22193   7.570  10.654  14.075  0.1157 -0.3104  0.0287
 5347W        W22194  14.141   6.122   0.398  0.1802 -0.1915 -0.2967
 5348W        W22195  10.273  10.342  12.409  0.0787 -0.3096 -0.3514
 5349W        W22196   6.425   6.786  13.683 -0.2322  0.0805  0.2190
 5350W        W22197   9.306   5.802   2.820 -0.3671  0.1722 -0.2443
 5351W        W22198  16.356  12.689  14.515 -0.3002  0.1838 -0.0540
 5352W        W22199   7.274   1.739  14.558  0.1578 -0.0742 -0.0669
 5353W        W22200   9.259  10.952   0.208 -0.0314 -0.0647 -0.0722
 5354W        W22201   2.122  10.739   5.037  0.1303  0.5352 -0.0655
 5355W        W22202   2.798   1.749   5.445 -0.4079 -0.0767 -0.2105
 5356W        W22203   2.664   4.104  11.592 -0.2288  0.1069  0.0549
 5357W        W22204   8.141  10.201  13.899  0.2549  0.0465  0.0805
 5358W        W22205  12.082  15.231  13.668  0.2361 -0.1135 -0.1991
 5359W        W22206  11.666  17.687   0.965  0.0682  0.2569 -0.0923
 5360W        W22207   0.523  16.253  13.237 -0.0995 -0.0504  0.2331
 5361W        W22208  14.479  18.892  10.414  0.0345 -0.2142  0.1880
 5362W        W22209  13.759  16.843   4.784 -0.0946  0.1231 -0.2059
 5363W        W22210   1.789  15.941   5.262 -0.2300 -0.2538  0.5106
 5364W        W22211  12.404   6.362  11.802  0.3652  0.3288 -0.3238
 5365W        W22212   1.393  14.864  11.191 -0.2422 -0.1694  0.1071
 5366W        W22213  16.786   9.851  12.160 -0.1450 -0.1753  0.2619
 5367W        W22214  18.843  14.934   0.716 -0.2563 -0.2004 -0.1529
 5368W        W22215   5.944  19.506   2.157 -0.2666 -0.1680 -0.1642
 5369W        W22216  10.193  19.087   3.889  0.1158 -0.0680  0.1707
 5370W        W22217   0.822   4.134  11.709 -0.1786  0.2092 -0.1989
 5371W        W22218  10.129  13.536  11.935  0.3428  0.0169 -0.1401
 5372W        W22219  10.214   6.950   5.592  0.2418 -0.1649  0.1683
 5373W        W22220   2.086   5.655  10.690 -0.0592 -0.1640  0.0828
 5374W        W22221  14.345   2.880  10.122  0.1668 -0.2588  0.2351
 5375W        W22222   1.602   2.192  10.085 -0.1897  0.0313 -0.1873
 5376W        W22223  15.312   0.102   2.933  0.2240 -0.0784 -0.0630
 5377W        W22224   6.077   7.144  13.825 -0.0451 -0.2542 -0.0076
 5378W        W22225  15.249  18.712   4.211  0.1599  0.0398  0.2175
 5379W        W22226   9.427  10.233  14.203  0.0225 -0.0167 -0.0255
 5380W        W22227  10.168   2.109   0.467  0.1230  0.1032  0.1167
 5381W        W22228  11.991   0.578  12.127 -0.0527 -0.1615 -0.3247
 5382W        W22229  19.172  16.786  13.985 -0.0752 -0.0935  0.1810
 5383W        W22230  18.289  18.006  12.866  0.0512  0.2158  0.2230
 5384W        W22231   2.712   7.610   3.622 -0.1568 -0.3752  0.1523
 5385W        W22232  10.320   7.843   9.946  0.0143 -0.1139  0.0804
 5386W        W22233  13.572  12.917  13.949  0.0106 -0.0793  0.1602
 5387W        W22234  16.294   7.632   4.384  0.2978 -0.0220 -0.0309
 5388W        W22235  17.099   4.351  12.003 -0.1654  0.0160  0.1907
 5389W        W22236  13.603  12.170   2.924  0.2960 -0.1015 -0.0670
 5390W        W22237   7.224  16.799   1.769 -0.1847  0.0523  0.1194
 5391W        W22238  17.241  18.300   9.888  0.2030  0.4412 -0.0556
 5392W        W22239   5.622   9.440   2.181  0.2118 -0.0136 -0.0334
 5393W        W22240   6.185   4.609   3.335 -0.3173  0.2696  0.0580
 5394W        W22241  17.224   5.929   1.252  0.2952 -0.1286 -0.1902
 5395W        W22242   5.631  13.699  13.283 -0.2001  0.1822 -0.0487
 5396W        W22243  17.191  16.966  14.023  0.2307 -0.1625 -0.4632
 5397W        W22244  10.413   3.206   5.234  0.0646  0.1840  0.1387
 5398W        W22245  16.893  11.684   1.264 -0.1213 -0.1837  0.2002
 5399W        W22246   7.982   9.263  14.526 -0.3540 -0.0284  0.5865
 5400W        W22247  11.051   6.832   0.609  0.1567 -0.2036 -0.2831
 5401W        W22248   5.214   1.645   0.840  0.3983 -0.0016 -0.2269
 5402W        W22249   5.659   4.233   5.081  0.0512 -0.2988  0.0540
 5403W        W22250  17.565  13.260  14.529  0.0090  0.0125 -0.1710
 5404W        W22251   4.709   2.530  12.677  0.0364  0.1515 -0.7230
 5405W        W22252   5.096   4.291  10.756  0.0741 -0.1466  0.0277
 5406W        W22253  15.708   2.459   3.338  0.0065 -0.1494 -0.0254
 5407W        W22254   8.655   5.871  11.680 -0.0734  0.1657  0.2736
 5408W        W22255   0.070   0.916   0.333  0.2810  0.0488  0.0835
 5409W        W22256   4.220   7.938  10.465  0.3533 -0.1121  0.0455
 5410W        W22257  16.372  12.487   4.340 -0.2722  0.2393 -0.2987
 5411W        W22258   1.469   4.971   9.556 -0.0184 -0.1940  0.0161
 5412W        W22259   5.850  16.459  12.760 -0.1787  0.1541 -0.0306
 5413W        W22260  16.283   9.952   3.430 -0.0925 -0.3014  0.1602
 5414W        W22261   1.824   0.305   1.597  0.3900  0.0223  0.0381
 5415W        W22262   5.924  18.009   2.041 -0.1047 -0.1521  0.0354
 5416W        W22263   1.797   2.353  11.182 -0.1080 -0.0012 -0.0864
 5417W        W22264  19.558  15.646  11.132  0.0657 -0.3219 -0.1753
 5418W        W22265   7.685   0.511   3.208  0.0141 -0.4675  0.0308
 5419W        W22266  14.878   6.619  12.587  0.0032 -0.3898  0.2404
 5420W        W22267   2.811   3.685   0.340  0.0338 -0.0507 -0.0632
 5421W        W22268   1.503  12.081  11.424  0.1300 -0.2127 -0.0304
 5422W        W22269  12.120   7.715   2.905 -0.0273  0.1204 -0.1835
 5423W        W22270   5.440   6.620   2.642 -0.0935  0.1944  0.1992
 5424W        W22271  17.715  11.734  11.571  0.0669  0.0978 -0.4831
 5425W        W22272   8.283  16.493  12.606  0.1498 -0.0181  0.0196
 5426W        W22273  17.321  13.430   0.336 -0.2643 -0.0661  0.1441
 5427W        W22274   3.054  12.285  12.737  0.1010  0.2084 -0.1845
 5428W        W22275   9.243  10.035  13.133  0.0360  0.0640 -0.0835
 5429W        W22276   4.040   7.688   2.881 -0.3072 -0.3147  0.1359
 5430W        W22277   4.694   9.563  13.107  0.0702  0.0080 -0.2427
 5431W        W22278  17.894   4.144   5.312  0.0829 -0.1153 -0.2364
 5432W        W22279   3.107   5.324  14.202  0.0211  0.0051  0.5884
 5433W        W22280  18.130   7.875   1.767 -0.1064  0.2386 -0.3727
 5434W        W22281  13.161  11.786   1.650 -0.0661 -0.2577  0.2061
 5435W        W22282   3.771  11.698   0.696  0.0907  0.1314  0.0077
 5436W        W22283  16.720  19.333   2.247  0.0528  0.1212 -0.1185
 5437W        W22284   0.264  17.616   2.676 -0.0930 -0.2123  0.0321
 5438W        W22285   8.135   2.009  13.965  0.0441  0.0031 -0.0803
 5439W        W22286   7.229  11.901   4.609 -0.0171  0.0978  0.1255
 5440W        W22287  11.659  19.626   5.187 -0.1319  0.1889 -0.0754
 5441W        W22288  16.408   9.088  13.810  0.2186 -0.1900 -0.0996
 5442W        W22289  18.650   4.714   0.184  0.1071  0.0319  0.0776
 5443W        W22290  18.181  16.094  13.731 -0.0966 -0.3602 -0.1348
 5444W        W22291  19.332  16.527  14.407  0.2797 -0.1669 -0.3316
 5445W        W22292  17.958   8.515  12.743 -0.0573 -0.4738 -0.0286
 5446W        W22293   8.724  10.979   3.960  0.1061  0.1331  0.1244
 5447W        W22294   6.426   0.043  10.004 -0.0614  0.2675  0.1664
 5448W        W22295   4.481  14.524   4.659  0.1427 -0.4746  0.4446
 5449W        W22296   8.755  10.373   4.348 -0.2473  0.0356  0.0444
 5450W        W22297   6.567   3.953   4.084 -0.0850 -0.0903 -0.1753
 5451W        W22298   6.654   6.123   3.896 -0.1190  0.0687 -0.1875
 5452W        W22299  13.478  12.024  13.652  0.0759 -0.1355 -0.0915
 5453W        W22300   7.553  19.498  12.037 -0.3193  0.2523 -0.0569
 5454W        W22301   5.685   3.015   1.180  0.0021 -0.2277 -0.0710
 5455W        W22302   2.801  10.865   4.512  0.1296 -0.3035 -0.0305
 5456W        W22303  18.137  18.232   4.723  0.4100 -0.0657 -0.2488
 5457W        W22304  18.846  10.202   1.315  0.2292 -0.0773 -0.1421
 5458W        W22305  10.350  10.648  12.023  0.0364  0.1673  0.1389
 5459W        W22306   1.226  14.441  10.558  0.1198 -0.1914 -0.1162
 5460W        W22307   4.850   5.416  12.447  0.0637  0.0560  0.0360
 5461W        W22308  15.723  12.028   4.117  0.3111 -0.2219  0.1218
 5462W        W22309  12.336  10.016   0.405 -0.1196 -0.0586 -0.0684
 5463W        W22310  18.413   6.099   0.647  0.0679 -0.1526 -0.1772
 5464W        W22311   8.830   5.050   2.842 -0.3227 -0.1662  0.2316
 5465W        W22312  14.733   0.439   0.471  0.1045  0.2611  0.1014
 5466W        W22313   8.359  12.169   5.195 -0.2067 -0.1761 -0.1517
 5467W        W22314  13.081   9.891  14.040  0.1142  0.0082  0.1158
 5468W        W22315   9.415  18.517  14.489 -0.0290 -0.0924  0.1281
 5469W        W22316   8.962   1.163   1.971 -0.3479  0.1758 -0.2263
 5470W        W22317   4.005   3.952   3.341 -0.2375  0.0833  0.0871
 5471W        W22318   5.401  10.797  13.929 -0.0279  0.1652 -0.3819
 5472W        W22319  18.612  11.291   0.101 -0.0363  0.0536 -0.0518
 5473W        W22320  18.617  13.651   0.329  0.0756 -0.0023  0.5514
 5474W        W22321  16.653  15.725   9.931  0.1097 -0.3311  0.3182
 5475W        W22322  10.011   1.896  11.043 -0.2927  0.1969 -0.0960
 5476W        W22323  19.052   6.922   3.235  0.1392 -0.2269  0.2648
 5477W        W22324  10.695   6.916   1.541  0.3298  0.2164  0.0504
 5478W        W22325   3.609   8.376  11.220 -0.2516  0.7147  0.1489
 5479W        W22326   7.404  13.690   2.192 -0.0043 -0.3315 -0.2547
 5480W        W22327  17.154  10.545  13.724  0.4028 -0.3029  0.0543
 5481W        W22328   8.802  19.214  11.385 -0.1770  0.1600 -0.2394
 5482W        W22329   9.678  12.452   1.521 -0.0231  0.0217  0.1110
 5483W        W22330  15.760  11.842   1.885  0.0652 -0.2082  0.1220
 5484W        W22331   3.097  17.745   4.264  0.0790  0.0392 -0.0433
 5485W        W22332  14.247  11.342   3.210 -0.3392 -0.0366 -0.0746
 5486W        W22333   6.037  12.598   0.381 -0.1236 -0.2612 -0.0028
 5487W        W22334  17.400  18.485  11.930 -0.0867  0.2149  0.0068
 5488W        W22335  17.536   8.653   0.634  0.2529  0.0632  0.1344
 5489W        W22336   7.090  10.491   8.779  0.3858  0.2829 -0.0105
 5490W        W22337  12.968   8.505   3.700  0.1329  0.1836  0.0324
 5491W        W22338  15.103   3.283   0.093 -0.0236 -0.0814 -0.0940
 5492W        W22339   8.344   1.039   3.954  0.1284  0.2035  0.0663
 5493W        W22340   2.068  17.984   0.531  0.0525  0.0763 -0.0983
 5494W        W22341  18.205  13.655  11.947 -0.2131  0.1358 -0.4327
 5495W        W22342  15.791   6.828  11.288 -0.2612 -0.1977  0.1187
 5496W        W22343   0.519  17.538   9.615  0.2719 -0.0724  0.2993
 5497W        W22344  12.870  18.810   2.270 -0.0128 -0.0498  0.0237
 5498W        W22345   2.649   7.564   3.105  0.3429  0.0655 -0.0311
 5499W        W22346   0.313  19.440  13.229  0.0214  0.1960 -0.1276
 5500W        W22347  12.688   2.272   2.774  0.0274 -0.1326 -0.1117
 5501W        W22348  10.241   9.164  13.232 -0.0746  0.3615  0.2340
 5502W        W22349  15.854   3.703  11.563 -0.1740 -0.0322  0.0845
 5503W        W22350   6.445   3.756   2.371  0.0015 -0.1185 -0.0851
 5504W        W22351   1.736   5.578   4.903  0.1311  0.0988 -0.1405
 5505W        W22352  14.317  17.374   3.380  0.0077 -0.1113 -0.1419
 5506W        W22353  14.615   8.317   5.061  0.2840  0.0532 -0.0440
 5507W        W22354   5.926  10.075   3.108 -0.2514 -0.0288 -0.0633
 5508W        W22355  12.296  10.406   3.791 -0.0102  0.3324 -0.1180
 5509W        W22356   4.556  13.193   2.792  0.2855 -0.1048 -0.0430
 5510W        W22357  12.050   8.641  11.309 -0.1576  0.3617  0.1047
 5511W        W22358  18.362   9.886   0.101  0.0338  0.1677 -0.0537
 5512W        W22359  13.892   5.630   1.588 -0.2631  0.4705  0.3818
 5513W        W22360   6.283   1.319   1.743  0.4278 -0.2119  0.0873
 5514W        W22361  16.689   8.652   4.257  0.0332  0.0770 -0.0675
 5515W        W22362  17.990   4.519   4.361 -0.0391 -0.2270 -0.1461
 5516W        W22363  19.476  18.959   0.324  0.0489  0.0714  0.3848
 5517W        W22364   3.410  14.609   1.636 -0.1337  0.0754 -0.0127
 5518W        W22365   8.709   1.419  10.622 -0.1277 -0.1939 -0.0389
 5519W        W22366  11.916   0.587  14.538  0.3362  0.0868 -0.1179
 5520W        W22367  12.064  16.007  10.526 -0.5612 -0.0814 -0.0711
 5521W        W22368   8.185  16.965  14.566 -0.1899 -0.1578  0.0174
 5522W        W22369   6.121   5.124   9.475  0.1050 -0.1895  0.4483
 5523W        W22370   2.232  13.769   1.639 -0.0558 -0.0469 -0.0754
 5524W        W22371   0.827   2.939   2.206 -0.0093  0.0013  0.1052
 5525W        W22372  12.186   0.643   0.714  0.2445 -0.0003  0.1858
 5526W        W22373  16.355  18.920   3.543 -0.2452  0.0925 -0.1165
 5527W        W22374  11.416  19.387   4.191  0.1941  0.1954  0.0703
 5528W        W22375   4.254  18.300   0.553  0.0542 -0.0142 -0.0910
 5529W        W22376   2.950  18.978   4.196 -0.1371 -0.1772 -0.2650
 5530W        W22377  17.089  11.685  11.379 -0.1048  0.2633  0.0736
 5531W        W22378   0.976  17.774  10.874  0.0792  0.5988  0.0556
 5532W        W22379   8.189  13.214   4.370  0.0869 -0.2811 -0.1740
 5533W        W22380   1.555   1.412  14.130  0.1443 -0.1960 -0.1150
 5534W        W22381  17.400   4.782  11.422  0.1842 -0.1683 -0.2092
 5535W        W22382   5.762  16.498  13.405 -0.0465  0.0525  0.0944
 5536W        W22383  15.330   3.533  12.820  0.0287 -0.1515 -0.0648
 5537W        W22384  12.040  14.378  11.123 -0.2406 -0.0859 -0.3532
 5538W        W22385   1.321  14.897  12.165 -0.2403  0.1046 -0.0500
 5539W        W22386   6.478   1.020   0.472  0.3446  0.0081  0.2344
 5540W        W22387  11.097   5.231   4.674 -0.1107 -0.1913  0.0840
 5541W        W22388  17.957   6.805   0.451 -0.1784 -0.0369 -0.1085
 5542W        W22389  16.282  12.392   3.107 -0.0259 -0.3573  0.0046
 5543W        W22390   6.440   8.109  12.254 -0.2861  0.0850  0.0529
 5544W        W22391   4.157   0.869  11.497 -0.1925  0.1235 -0.3106
 5545W        W22392  12.462   1.326   2.912 -0.2879 -0.2618  0.0798
 5546W        W22393   9.058   1.916   1.410 -0.2580 -0.1519  0.2192
 5547W        W22394   9.299   9.515  13.979  0.1859  0.1757 -0.2042
 5548W        W22395   2.044  13.277   3.904  0.1107  0.1355 -0.1728
 5549W        W22396   7.045  11.009   4.421  0.0759 -0.0561 -0.4513
 5550W        W22397  14.160  16.944   0.940  0.2094  0.1161  0.2433
 5551W        W22398  15.182   7.908   1.925 -0.1161 -0.1604  0.3808
 5552W        W22399   8.373  18.974   9.694 -0.1353  0.2210  0.2337
 5553W        W22400  11.777   4.174  13.340 -0.0500 -0.1673 -0.4276
 5554W        W22401   6.214  17.671   4.814  0.1545  0.1520  0.0709
 5555W        W22402  13.671  17.035   1.097 -0.2499 -0.1685  0.2481
 5556W        W22403  19.190  15.058  12.251 -0.2713 -0.0791 -0.1177
 5557W        W22404   5.957   8.843  13.407  0.1132  0.0737 -0.1382
 5558W        W22405  12.189  14.202   0.289 -0.0166  0.3659 -0.1893
 5559W        W22406   2.964  15.829   4.979 -0.0823 -0.0740  0.0575
 5560W        W22407  17.925   8.244   5.032 -0.1492  0.1447 -0.2981
 5561W        W22408  15.916  14.091   2.843  0.2139 -0.0436  0.1970
 5562W        W22409   1.924  16.377  11.740 -0.0049 -0.1505 -0.2229
 5563W        W22410   1.121  17.222  10.935 -0.0833 -0.5039 -0.0099
 5564W        W22411   9.802  11.243  13.341  0.2639 -0.1460 -0.2427
 5565W        W22412   3.704   1.741   0.091  0.0958 -0.2000  0.0012
 5566W        W22413  11.730   7.877  13.119 -0.3681  0.0039 -0.0396
 5567W        W22414  17.595   9.400   1.516  0.2041  0.1532  0.1547
 5568W        W22415   6.155   8.885   3.744 -0.0944 -0.4404  0.1024
 5569W        W22416   0.469   5.968   1.961  0.1073 -0.0215  0.0218
 5570W        W22417   7.100  18.644   5.121  0.0811  0.0895  0.0083
 5571W        W22418   0.880  16.400  13.596  0.0013 -0.2730 -0.1102
 5572W        W22419  10.136   2.605   0.363  0.1843 -0.2630 -0.0122
 5573W        W22420   1.555   6.111  14.351  0.1982 -0.0492  0.5345
 5574W        W22421  14.554   4.268   1.826  0.0921  0.0455  0.1365
 5575W        W22422  14.650  12.184  10.823  0.1367 -0.3846  0.1406
 5576W        W22423   6.106   1.463  12.428  0.0478 -0.1059  0.0654
 5577W        W22424   2.796  18.848  13.241  0.4100 -0.0112 -0.2463
 5578W        W22425   9.778   9.637   2.881 -0.1875  0.4136  0.0951
 5579W        W22426   6.504  18.798  12.502  0.1749 -0.2024  0.0828
 5580W        W22427   8.479   8.926   0.855  0.2459  0.0814  0.1661
 5581W        W22428  10.576   7.211  11.160  0.0105 -0.1548  0.1316
 5582W        W22429  12.993  16.292  13.903 -0.1663 -0.3487  0.1250
 5583W        W22430  13.005  13.905   4.265 -0.0458  0.1173 -0.1808
 5584W        W22431   0.253   7.214   4.771  0.3612  0.2832  0.1249
 5585W        W22432   5.952  12.806   1.892 -0.1063  0.1563 -0.1065
 5586W        W22433   1.099   0.791   2.084 -0.0217  0.4356 -0.1510
 5587W        W22434   7.952  16.484  13.052  0.0297 -0.2398  0.1326
 5588W        W22435   6.389   3.600   3.766  0.4812 -0.1651  0.0667
 5589W        W22436  13.757   4.862  10.786 -0.2231 -0.1743  0.1692
 5590W        W22437  16.490   8.407  12.703  0.0320 -0.0969 -0.2037
 5591W        W22438  16.496   5.807   3.595  0.0140  0.0903  0.0379
 5592W        W22439   4.711  15.507  11.413  0.0529  0.2406 -0.1943
 5593W        W22440  13.396  18.744   4.110  0.2028 -0.1022 -0.0608
 5594W        W22441   7.777   6.154  12.745  0.1179 -0.1023  0.0055
 5595W        W22442   2.118   9.847   4.021 -0.1170  0.0993  0.4184
 5596W        W22443  18.707  16.268  13.444 -0.0435  0.0112 -0.2869
 5597W        W22444  13.564   2.191   0.117  0.0597  0.4285 -0.1399
 5598W        W22445  16.092  12.918   1.214  0.3946  0.1189 -0.0680
 5599W        W22446   4.122   7.282   3.585 -0.1053  0.2533 -0.1633
 5600W        W22447   7.462   4.903  14.254  0.0122  0.0513 -0.2848
 5601W        W22448  19.385   8.784   2.979 -0.1161  0.0612 -0.0425
 5602W        W22449   4.307  18.249  14.124  0.1426  0.0815  0.0631
 5603W        W22450  16.349  12.380  13.444  0.2247 -0.0871  0.1937
 5604W        W22451   6.056   4.967   2.450 -0.4201  0.0964 -0.2150
 5605W        W22452  15.431   6.045  10.408  0.1452  0.1877  0.1197
 5606W        W22453   6.180  17.326   0.827  0.1686 -0.0819  0.0388
 5607W        W22454  11.636  12.453   2.142 -0.1593  0.0050  0.1917
 5608W        W22455  19.619  16.662   4.360 -0.0025  0.0236  0.0009
 5609W        W22456   9.540  14.467   0.012  0.2272  0.2956  0.1371
 5610W        W22457  19.195   2.333   1.962 -0.1961  0.1097  0.0037
 5611W        W22458   1.809   1.373  10.898  0.1258  0.4223  0.1009
 5612W        W22459  13.465   8.195  13.045 -0.0440  0.2218 -0.0824
 5613W        W22460   6.102   3.764  13.955 -0.1298  0.2424  0.0825
 5614W        W22461  15.383  12.159   3.284 -0.0156  0.0243 -0.0315
 5615W        W22462   4.679  12.628   0.415  0.2846  0.0782  0.0164
 5616W        W22463   9.721  15.262  13.369 -0.1302  0.2159  0.0225
 5617W        W22464   3.856   9.591  14.152  0.2694  0.1340 -0.1867
 5618W        W22465   5.725  18.804   0.567  0.1213 -0.0363  0.4014
 5619W        W22466  18.831   3.782   0.622 -0.1606  0.0040 -0.1279
 5620W        W22467  16.723  10.747  10.858  0.1669 -0.1516  0.1240
 5621W        W22468   6.255  12.696   4.238 -0.0122 -0.2122  0.2355
 5622W        W22469  18.640  17.002   9.817  0.2373 -0.1999  0.1047
 5623W        W22470   8.182  11.053   2.731 -0.0882 -0.2831 -0.3436
 5624W        W22471   7.637   1.053  12.137 -0.1381 -0.0178 -0.0219
 5625W        W22472   0.005  15.068  10.317 -0.0642 -0.1490 -0.1584
 5626W        W22473  14.115   5.276  10.734  0.1445  0.1006 -0.2655
 5627W        W22474  13.742   7.637  12.803 -0.0071 -0.0138 -0.0066
 5628W        W22475  15.829  16.831   4.918  0.2574 -0.1237  0.1386
 5629W        W22476  13.960  18.906  10.499 -0.4510  0.1116  0.0080
 5630W        W22477  18.053  15.411   1.629  0.0048 -0.0544  0.1460
 5631W        W22478   2.685  14.750   2.705 -0.0548  0.1034 -0.2172
 5632W        W22479   1.146   8.021  12.213  0.2622 -0.0577 -0.3596
 5633W        W22480   3.764   0.346  13.260 -0.0408 -0.0368  0.0093
 5634W        W22481   5.708  17.344  14.500 -0.0983 -0.1915  0.2874
 5635W        W22482   0.005  14.020   2.577 -0.2823 -0.1330  0.0142
 5636W        W22483   3.964   5.230  10.848 -0.0501 -0.0406  0.1055
 5637W        W22484  17.064   9.966  14.610 -0.0585  0.3882  0.1569
 5638W        W22485   2.430   6.573   2.794  0.1215 -0.2065 -0.0099
 5639W        W22486   3.664   6.302  11.819 -0.2342 -0.0347  0.0594
 5640W        W22487   8.772   8.956   3.768  0.0390 -0.1998 -0.1906
 5641W        W22488  15.716  13.763   9.069 -0.1365 -0.0737  0.0984
 5642W        W22489  14.605  13.481  14.429  0.0501 -0.1552 -0.0056
 5643W        W22490   8.318   4.512  12.298  0.1018 -0.1702  0.1240
 5644W        W22491  19.248  19.102   4.617 -0.1551  0.0222 -0.0200
 5645W        W22492  11.921   0.241   3.204  0.1183 -0.0358 -0.0202
 5646W        W22493   4.856   4.670   2.357 -0.2044  0.1152  0.1411
 5647W        W22494  15.869   9.575   0.750 -0.0525  0.1687 -0.1116
 5648W        W22495  13.559   1.890  14.080 -0.1859 -0.3565  0.0945
 5649W        W22496  17.533   3.005   1.300  0.4584 -0.2191  0.0762
 5650W        W22497  18.596   9.460   4.480 -0.2452  0.2007  0.1425
 5651W        W22498  14.372   6.466   1.811  0.0509 -0.2027 -0.2625
 5652W        W22499  17.264  12.238  12.779  0.0218  0.1161 -0.3459
 5653W        W22500   2.806  10.774  12.147 -0.1927  0.0522  0.0652
 5654W        W22501   5.350  19.111  12.088  0.0008 -0.1560 -0.1750
 5655W        W22502  13.786  15.992  13.428 -0.1367 -0.0820 -0.0070
 5656W        W22503   7.924   7.589  13.061  0.1432 -0.0404  0.1092
 5657W        W22504   6.058  15.445  11.325  0.1850  0.4192  0.2752
 5658W        W22505  12.922  11.400   1.351 -0.0445 -0.1087 -0.0286
 5659W        W22506  15.964  15.468   3.979  0.4134  0.0891  0.0515
 5660W        W22507   7.559  14.131   1.972 -0.3500  0.0939 -0.3302
 5661W        W22508   4.623   9.409  12.351  0.2410  0.0028  0.4071
 5662W        W22509   1.172   7.282   1.192  0.0287 -0.1611 -0.3448
 5663W        W22510   1.942   5.922   4.200  0.2831  0.0321 -0.2212
 5664W        W22511   7.587   3.853   1.945  0.1093 -0.1756 -0.2487
 5665W        W22512  10.679  18.341  10.584 -0.0233  0.0406  0.0445
 5666W        W22513  11.653   4.816   0.953 -0.0693  0.1961 -0.0913
 5667W        W22514  14.849   8.721   4.337  0.0171  0.1154 -0.4006
 5668W        W22515   8.370   4.975  14.050 -0.3884 -0.2896  0.3056
 5669W        W22516   2.184   5.628  13.465  0.0367 -0.2559  0.1235
 5670W        W22517  11.350   8.774  14.002 -0.1333  0.1102 -0.2648
 5671W        W22518  19.358  14.474  14.211 -0.2101 -0.1257 -0.2925
 5672W        W22519  11.019   6.900  11.022  0.0749  0.1118  0.2778
 5673W        W22520   1.824  17.719   1.757  0.0592  0.1820 -0.1698
 5674W        W22521   5.150   4.145   0.638  0.1637  0.2789 -0.1326
 5675W        W22522   6.051  18.536   2.662 -0.0380  0.0436 -0.3095
 5676W        W22523   0.896  14.379   2.452  0.0511  0.1969 -0.0820
 5677W        W22524  10.369  16.896   0.704 -0.0986 -0.4153 -0.2260
 5678W        W22525   8.532  18.270  14.307  0.1417  0.2879  0.3744
 5679W        W22526  17.247  12.160   1.403 -0.4068 -0.1294  0.1404
 5680W        W22527  18.625   8.250  14.526  0.1882 -0.0143 -0.1397
 5681W        W22528  16.253   0.747   4.092 -0.3287 -0.0749  0.0095
 5682W        W22529   5.695   2.497   3.521  0.1809 -0.2201  0.2174
 5683W        W22530   1.089  18.446   1.234  0.1816 -0.2635 -0.0356
 5684W        W22531  13.526  11.454   4.229 -0.0591  0.2003  0.0381
 5685W        W22532  13.589  11.342   2.012 -0.0046  0.0165  0.0699
 5686W        W22533  17.751   3.169  12.120  0.1179  0.2182  0.3007
 5687W        W22534   8.892  15.253   0.286  0.0112  0.0498 -0.0306
 5688W        W22535   5.230   5.179   0.474 -0.0428  0.0709  0.1013
 5689W        W22536   4.161  11.382   2.461  0.3022  0.2039 -0.0137
 5690W        W22537   3.426   5.798   2.308 -0.1302  0.3296 -0.0166
 5691W        W22538  11.898  11.621   2.648  0.1411  0.1596 -0.0602
 5692W        W22539   1.785   2.146   1.711 -0.0639  0.0522  0.1703
 5693W        W22540  10.791   8.548  13.610  0.1903 -0.1336  0.4517
 5694W        W22541  13.824  12.003  13.195 -0.0700 -0.1031 -0.1031
 5695W        W22542   2.693   3.609   3.736  0.1281  0.3126 -0.0425
 5696W        W22543  18.812   1.441  11.999 -0.1608  0.1888  0.2618
 5697W        W22544  14.548   6.664   2.239  0.0586 -0.0972  0.1131
 5698W        W22545  17.258  19.476   1.712 -0.0030  0.0592 -0.2993
 5699W        W22546   5.492   8.102   5.350  0.0046  0.0926 -0.0006
 5700W        W22547   4.317   3.964  11.461  0.1080  0.1303 -0.0917
 5701W        W22548  15.038  17.626   2.100 -0.0625  0.0297 -0.0707
 5702W        W22549  17.485   4.806   2.049  0.4469 -0.2703 -0.1608
 5703W        W22550  13.382  14.357  12.786  0.0451 -0.0504 -0.1660
 5704W        W22551  13.643   9.451   1.341  0.4383 -0.3396  0.0194
 5705W        W22552  18.085   5.924   3.604  0.0859  0.0527 -0.0166
 5706W        W22553   0.257  19.035  12.832  0.1419  0.0519  0.1564
 5707W        W22554   0.593   0.417  12.518  0.1131 -0.1009  0.0217
 5708W        W22555  13.484  11.748   2.688 -0.0782 -0.1344  0.0785
 5709W        W22556   1.885  13.156   0.994 -0.0197  0.1792  0.1727
 5710W        W22557  11.784   9.316   1.642  0.0511 -0.0363  0.1556
 5711W        W22558   9.669  15.473   1.944 -0.1074  0.1448  0.2840
 5712W        W22559  16.681  10.170  10.295 -0.1313 -0.1157  0.1161
 5713W        W22560  16.322   2.488   2.457 -0.1813  0.0946  0.2494
 5714W        W22561   0.428   8.000   4.916 -0.4152  0.0315  0.0558
 5715W        W22562  13.577   1.414   1.654 -0.0716 -0.2518 -0.1414
 5716W        W22563   5.440   8.287   1.864  0.1338  0.0128  0.0556
 5717W        W22564  18.698   2.581   1.914  0.0323 -0.1772 -0.0534
 5718W        W22565   7.350  10.729  14.587 -0.2304 -0.1265 -0.2216
 5719W        W22566   6.824  15.059   1.977 -0.0594  0.0809  0.0755
 5720W        W22567   1.062   9.634  14.604  0.1090 -0.0267  0.2571
 5721W        W22568   2.156   0.015  13.308 -0.0178  0.0248 -0.1934
 5722W        W22569  19.279  13.291  13.405  0.1206  0.2239  0.1683
 5723W        W22570   7.833  12.950  10.201 -0.2574  0.3295 -0.2069
 5724W        W22571   6.706   0.458   9.982  0.1404 -0.0790 -0.2492
 5725W        W22572   2.116  13.448   2.572 -0.2140  0.3272 -0.1173
 5726W        W22573   9.678   1.226   2.762  0.0735 -0.1651 -0.1768
 5727W        W22574  16.691  11.017   9.585  0.2928  0.2442  0.1005
 5728W        W22575   4.984  15.350   4.086 -0.0643 -0.1814  0.1279
 5729W        W22576   4.349  13.949   2.267  0.2798  0.2217  0.2624
 5730W        W22577  10.703  18.895  14.004  0.1053 -0.1843  0.2604
 5731W        W22578  12.210   1.947  14.292 -0.0441 -0.3720  0.0604
 5732W        W22579   9.055   5.544  13.452  0.3956  0.1858  0.0005
 5733W        W22580   5.912   5.466   3.839 -0.0306  0.1890 -0.1687
 5734W        W22581   9.521  16.950   3.868  0.0185 -0.1415 -0.4088
 5735W        W22582  11.029  11.988   0.739 -0.1334  0.2831  0.0882
 5736W        W22583   8.709  11.442   1.346 -0.0495  0.2686 -0.2544
 5737W        W22584   2.449   2.538   3.458 -0.2643  0.1101  0.1012
 5738W        W22585  15.693  13.774   2.456  0.2077 -0.1400  0.3840
 5739W        W22586  13.900  17.300  12.120  0.0356 -0.0847 -0.0583
 5740W        W22587  13.215   3.175  10.541 -0.0125 -0.0001  0.0065
 5741W        W22588  13.562  13.088   4.487 -0.3428 -0.2376 -0.1590
 5742W        W22589  17.923   8.301   4.458  0.0130  0.0745  0.0991
 5743W        W22590   8.234   2.895  14.542 -0.1342  0.0679  0.0033
 5744W        W22591  15.333   9.139  10.765 -0.1528 -0.1011  0.0815
 5745W        W22592   5.194   6.112  14.013 -0.0126 -0.0996 -0.2002
 5746W        W22593  18.576  13.663   2.912 -0.4227 -0.0611 -0.0319
 5747W        W22594  18.712   8.543  12.574 -0.1017  0.3259  0.2478
 5748W        W22595  15.829   6.047   2.212  0.1779 -0.0861 -0.2161
 5749W        W22596  15.511   6.258   0.463 -0.1681 -0.2079  0.0487
 5750W        W22597   4.274   5.231   1.154 -0.2844  0.0540  0.1860
 5751W        W22598   9.371   6.288   0.843  0.0613 -0.0239 -0.2016
 5752W        W22599   2.929  16.075   2.223  0.1026  0.0479 -0.2705
 5753W        W22600  12.484  18.630   4.223 -0.1328  0.1057  0.0537
 5754W        W22601   7.955  16.355  11.256  0.2527 -0.2363  0.0420
 5755W        W22602  18.336  12.533   4.026  0.0956  0.1226 -0.1450
 5756W        W22603  16.492   1.823   1.626  0.0547 -0.0064  0.4957
 5757W        W22604  17.020   9.575   2.696  0.0003 -0.0640 -0.0034
 5758W        W22605  18.393   5.187   4.066 -0.2104  0.2358 -0.0207
 5759W        W22606  15.895  15.356   5.347  0.1350 -0.2078  0.0895
 5760W        W22607   6.993  13.190  13.130 -0.0915 -0.3953 -0.1681
 5761W        W22608   1.397   1.995  11.024  0.1469  0.1685  0.2017
 5762W        W22609  10.329   6.789   1.149 -0.2034 -0.0161  0.0400
 5763W        W22610   1.830  10.125   5.759 -0.0495  0.3017  0.1017
 5764W        W22611  11.643  17.739   2.466 -0.2168 -0.2419  0.2330
 5765W        W22612   7.524   7.252   0.393 -0.0261 -0.2906 -0.0055
 5766W        W22613   5.467   2.522   1.462 -0.0269  0.1577  0.2017
 5767W        W22614  16.803  15.308  10.612 -0.4433  0.0206  0.2750
 5768W        W22615  15.519  15.330  12.095  0.1783 -0.4128  0.0159
 5769W        W22616   8.860   3.164   0.093 -0.1353 -0.1134  0.1521
 5770W        W22617   1.074  10.988   3.285 -0.0740 -0.1344  0.0604
 5771W        W22618   5.433  14.976  12.523  0.3128 -0.1885 -0.0915
 5772W        W22619  15.821   5.335   2.945 -0.3082 -0.2191 -0.3513
 5773W        W22620   6.214   5.384  12.671  0.0162  0.1199 -0.4977
 5774W        W22621  13.560  12.000   5.245 -0.3458  0.1999 -0.0390
 5775W        W22622  11.146  16.390   5.283  0.0163  0.1413 -0.0911
 5776W        W22623   1.664   5.214  13.866 -0.1671 -0.1915 -0.1898
 5777W        W22624   6.397  10.697   9.688 -0.0237 -0.2320  0.3500
 5778W        W22625  10.183  17.789   2.126 -0.1255  0.4110  0.3611
 5779W        W22626  12.449  14.030  10.282  0.0158  0.2288  0.0531
 5780W        W22627   9.409  19.616  14.488  0.1009  0.0505 -0.0212
 5781W        W22628  15.780  16.159   0.194 -0.0012 -0.0785  0.1388
 5782W        W22629  14.658  18.298  12.115 -0.1249  0.0081 -0.0239
 5783W        W22630   6.109   2.946  12.760  0.0903  0.2946 -0.0672
 5784W        W22631   6.080   5.204  10.650 -0.0514 -0.5231 -0.1455
 5785W        W22632  17.754  12.130  10.938  0.3613 -0.0900  0.1264
 5786W        W22633  13.414   1.151   0.182  0.0662  0.1665 -0.1841
 5787W        W22634  14.404  10.846   1.616  0.0177 -0.1140 -0.2505
 5788W        W22635   5.170   6.507   3.623 -0.1381  0.0255  0.0306
 5789W        W22636  17.889   2.862  14.250 -0.2380  0.2970 -0.0236
 5790W        W22637  18.662   9.146   2.941 -0.1126 -0.0347 -0.2614
 5791W        W22638   9.573   1.651  12.849 -0.1984  0.3134 -0.0675
 5792W        W22639  12.672   5.127  10.908 -0.0231 -0.2537  0.1532
 5793W        W22640   7.033   7.399   0.524  0.0136 -0.0058 -0.5350
 5794W        W22641   2.202   4.518   2.775  0.0707  0.2105 -0.0421
 5795W        W22642  10.862   0.202   2.114  0.1682  0.1899 -0.2870
 5796W        W22643   8.697   7.598  14.539  0.0902 -0.2933  0.0595
 5797W        W22644   7.688  19.539  12.525 -0.0136  0.0848  0.1119
 5798W        W22645   8.571  18.580   2.596  0.0258 -0.2061  0.2389
 5799W        W22646  19.549  15.355   5.235  0.0037 -0.2280  0.2642
 5800W        W22647   9.324  14.670   4.229 -0.0642 -0.2712 -0.0848
 5801W        W22648  18.738   1.777  13.272  0.2891  0.1798  0.0147
 5802W        W22649  16.140  12.126   3.800  0.0002 -0.5325  0.3461
 5803W        W22650   6.983   5.896   1.384 -0.3405 -0.0143  0.2255
 5804W        W22651   7.485   8.818  13.904  0.1535 -0.0588  0.1652
 5805W        W22652  18.676  13.179   5.103  0.1771  0.1474  0.0366
 5806W        W22653  12.943   6.091  11.979  0.1492  0.1069  0.3049
 5807W        W22654   4.184  16.220  11.173  0.2903  0.0094  0.3926
 5808W        W22655   3.625  15.625  13.706  0.1031  0.0857 -0.2442
 5809W        W22656  13.201  19.071   4.754 -0.3087 -0.4266 -0.1468
 5810W        W22657   7.262  19.385   1.672  0.0763  0.1875 -0.1737
 5811W        W22658  19.603  15.013  11.980  0.0491  0.1196  0.2305
 5812W        W22659   3.788  12.132  12.747 -0.0879 -0.0244  0.1319
 5813W        W22660   5.212   8.918  11.040  0.0481 -0.0164 -0.2743
 5814W        W22661   4.186   3.590  10.439  0.1252  0.2838 -0.3612
 5815W        W22662   0.942  17.709  13.141 -0.1005  0.2388  0.1488
 5816W        W22663  17.426  17.743   4.070 -0.0247  0.0877 -0.1430
 5817W        W22664  18.481  19.037   3.798 -0.2986  0.3911  0.1227
 5818W        W22665   5.373   5.031   2.934 -0.0834  0.2677 -0.0180
 5819W        W22666  15.755  13.091  11.141 -0.0495  0.0448 -0.3373
 5820W        W22667   6.492   8.845  12.189 -0.0893 -0.0714 -0.0549
 5821W        W22668  11.898   5.267   0.749 -0.1413  0.1713  0.0124
 5822W        W22669  18.973  11.100   0.647  0.0817 -0.2029  0.2649
 5823W        W22670  12.163  11.029   4.534  0.0624  0.2905  0.2391
 5824W        W22671   1.403   1.556   0.031  0.0445 -0.1295  0.1722
 5825W        W22672   7.552  15.040  14.053  0.0678  0.1450 -0.1479
 5826W        W22673  11.548  17.194  12.572 -0.0683  0.1687 -0.1665
 5827W        W22674  17.055   0.088   2.951  0.1633  0.1332  0.1514
 5828W        W22675   1.473  19.054   2.417 -0.1803 -0.0327  0.5064
 5829W        W22676  19.512   5.071  10.846 -0.1570 -0.1274  0.1911
 5830W        W22677   4.407  12.871   4.106 -0.4117  0.0851  0.1483
 5831W        W22678   4.431   9.194  12.789  0.2288 -0.0718 -0.0104
 5832W        W22679  12.178   2.447  14.101 -0.3356  0.1133 -0.0907
 5833W        W22680   7.685   4.148   0.504 -0.1001 -0.0187 -0.1876
 5834W        W22681  12.557  12.909   5.080  0.0705 -0.2975  0.2925
 5835W        W22682   0.444   4.444   2.092  0.3035 -0.2222 -0.0326
 5836W        W22683   5.075  18.760  10.635  0.5514  0.0709 -0.1573
 5837W        W22684   9.854  16.068  12.253  0.0010 -0.0002 -0.0658
 5838W        W22685  17.829   2.574   0.109  0.2260 -0.0318 -0.0357
 5839W        W22686   2.523   9.339   3.360  0.1495  0.0165  0.3310
 5840W        W22687  10.342  11.214   4.414 -0.3047  0.1686 -0.3345
 5841W        W22688  15.951   1.511  12.069 -0.0870 -0.0752 -0.1545
 5842W        W22689  18.812  19.254   9.570  0.3009 -0.3841  0.0490
 5843W        W22690  14.523  10.761  11.174 -0.1997  0.0333  0.3170
 5844W        W22691  18.633  10.100   1.796 -0.1627  0.3647  0.2517
 5845W        W22692   1.777   2.633   4.314 -0.1208 -0.2171  0.1984
 5846W        W22693  13.544   9.187   3.171  0.2591  0.1586 -0.1176
 5847W        W22694  14.027   3.080   0.912  0.2197 -0.1667 -0.0738
 5848W        W22695  12.651   0.193   1.953 -0.2577 -0.2744  0.0754
 5849W        W22696   1.075   5.002  11.602 -0.0246 -0.2310 -0.2277
 5850W        W22697  10.257  11.029   2.436  0.1587  0.2204 -0.1415
 5851W        W22698   3.489   9.384  12.527 -0.1401 -0.0052  0.1827
 5852W        W22699  17.500  13.859  10.552  0.2617 -0.3615  0.0683
 5853W        W22700   2.328  12.943  11.674 -0.0382  0.0019 -0.1458
 5854W        W22701  17.599   3.809  12.490  0.5023  0.0153  0.1028
 5855W        W22702   6.951   5.548  14.343  0.2327  0.0921 -0.0818
 5856W        W22703  14.010   2.586   3.989 -0.2051  0.2400  0.0474
 5857W        W22704   8.323  18.358   3.062  0.0784  0.2631 -0.2096
 5858W        W22705   3.621   4.468   2.488  0.0632 -0.1027 -0.0636
 5859W        W22706   1.785   3.521  13.170 -0.0400 -0.1481  0.1317
 5860W        W22707  11.024  13.346  14.446  0.0252  0.1623  0.1102
 5861W        W22708  15.196   1.815   3.726 -0.1390  0.0407  0.2854
 5862W        W22709  13.996  14.213   0.152  0.2285 -0.1618 -0.2504
 5863W        W22710   0.232   1.373   0.683  0.0307  0.3611 -0.5230
 5864W        W22711  10.745  17.941   2.953  0.2225  0.0948  0.1580
 5865W        W22712   2.474   3.355   4.215  0.1708 -0.2252 -0.1296
 5866W        W22713  17.717   1.702   9.038  0.0169  0.3198  0.0174
 5867W        W22714   8.051   1.454   0.942  0.3765  0.3296 -0.1784
 5868W        W22715  18.375  15.607   4.194  0.2229  0.2297 -0.4843
 5869W        W22716   9.343   3.988   2.396 -0.2927 -0.0433 -0.1853
 5870W        W22717   3.585   9.544   4.755  0.0325 -0.0820 -0.0468
 5871W        W22718   6.192   5.641   1.379  0.0491  0.0287 -0.0165
 5872W        W22719  17.616  16.992   0.630 -0.0205  0.2368  0.1189
 5873W        W22720  12.371  10.571  11.235  0.1846 -0.1294 -0.0810
 5874W        W22721   1.279  16.875  14.387 -0.1280 -0.0606  0.2334
 5875W        W22722   5.270   9.535   1.248  0.0169  0.4201 -0.0420
 5876W        W22723  19.198   7.803  12.073  0.2940 -0.2886 -0.2036
 5877W        W22724  15.678   1.869   0.951  0.0457  0.0612  0.2856
 5878W        W22725  18.474  16.629  11.917 -0.2918  0.1058 -0.1310
 5879W        W22726  17.744   3.588   4.110  0.2175  0.1014 -0.0264
 5880W        W22727  10.748  15.115   2.640  0.2483  0.1399  0.1404
 5881W        W22728  18.816   9.382  12.500  0.3371 -0.1392 -0.0481
 5882W        W22729  12.407  13.893   3.529 -0.2105 -0.0254 -0.2169
 5883W        W22730  15.510   9.004  11.225  0.0821  0.1052  0.0682
 5884W        W22731  15.330   8.333   0.819  0.3283  0.2544 -0.0284
 5885W        W22732   2.518   2.509  14.418  0.1009 -0.2231 -0.0521
 5886W        W22733   8.995  17.408   1.248  0.3008  0.0762  0.0739
 5887W        W22734  13.993   9.293   2.220  0.0738 -0.2077  0.4377
 5888W        W22735   5.356  15.604   4.345 -0.1655  0.0872  0.0763
 5889W        W22736  18.589   4.999   2.042  0.0534  0.2086  0.1254
 5890W        W22737   9.399  15.078  10.787 -0.2692  0.0270 -0.2440
 5891W        W22738  17.510  12.922  12.331 -0.0843  0.0857 -0.0484
 5892W        W22739   5.413   4.629   3.412 -0.0880 -0.1299 -0.0120
 5893W        W22740  14.300  15.621  12.766  0.3103 -0.1981 -0.3949
 5894W        W22741   0.230   6.841   0.995  0.0042  0.2788 -0.0209
 5895W        W22742   1.192  10.387   5.855  0.0600  0.2929  0.0273
 5896W        W22743  15.103   1.472  10.224 -0.0303  0.1397 -0.0998
 5897W        W22744  10.536   7.781  10.520 -0.2714 -0.1234  0.1624
 5898W        W22745  15.827   0.735   3.891 -0.0225  0.1231 -0.3008
 5899W        W22746   1.288   0.959  12.725  0.1412 -0.0901  0.2355
 5900W        W22747   7.970   4.627  12.697 -0.0129 -0.2024  0.2695
 5901W        W22748   3.190   8.843  10.366  0.1387  0.1208 -0.0945
 5902W        W22749  14.104  19.488   9.788 -0.0796 -0.0038  0.2605
 5903W        W22750  15.844   0.681  10.133  0.3107 -0.1911 -0.1573
 5904W        W22751  13.912   3.782  13.056 -0.0520  0.1339  0.1771
 5905W        W22752   0.887  15.626  13.936  0.2222 -0.1955 -0.0085
 5906W        W22753  14.634   5.277   1.458 -0.1146  0.2376  0.0590
 5907W        W22754  19.440  10.394  14.119  0.1045  0.0776  0.1683
 5908W        W22755   8.816   3.375  10.254  0.0176 -0.1197  0.0251
 5909W        W22756   1.684  12.364  13.982 -0.0994  0.1846 -0.0967
 5910W        W22757   8.049  10.761   2.299 -0.0039 -0.0422 -0.1774
 5911W        W22758   7.000   8.321  11.807 -0.0480  0.0537  0.4336
 5912W        W22759  15.062   7.673  14.338 -0.2042 -0.2322  0.1027
 5913W        W22760   1.329   7.929  14.249  0.0404  0.1059 -0.0821
 5914W        W22761  19.371  19.316   2.259  0.0222  0.1711  0.1532
 5915W        W22762  14.690  14.668   1.340 -0.0902 -0.1999 -0.2362
 5916W        W22763   3.895  14.381   2.784  0.0804  0.3830  0.2091
 5917W        W22764  11.171   9.906  10.468 -0.3814 -0.1321 -0.3446
 5918W        W22765   3.291  19.193   0.016 -0.1945  0.2247  0.1645
 5919W        W22766   2.387   5.726  11.513 -0.1284  0.0917 -0.1423
 5920W        W22767   2.678   0.388   0.757 -0.1254 -0.1933  0.0924
 5921W        W22768   5.065   9.344  10.878  0.1845  0.0875  0.0306
 5922W        W22769  16.338   8.785   2.524  0.2158 -0.2145  0.0969
 5923W        W22770   3.994  16.116   0.965  0.1230  0.1277  0.2732
 5924W        W22771  13.967  15.365   0.741 -0.1439 -0.2160  0.2861
 5925W        W22772  11.965  11.082  11.971 -0.1592 -0.0041  0.2670
 5926W        W22773   2.162  16.275  12.177  0.0387 -0.3086 -0.1205
 5927W        W22774   2.184   8.644   4.931 -0.0667 -0.1861 -0.1052
 5928W        W22775   7.784  16.778   4.437  0.1834  0.0167 -0.3075
 5929W        W22776   4.277  14.872   3.693 -0.1249 -0.1964  0.1793
 5930W        W22777   5.574  18.720  14.255  0.4026 -0.2720  0.4050
 5931W        W22778  13.920  17.853  14.601 -0.0582 -0.0462  0.0256
 5932W        W22779  13.490   6.630   4.171 -0.2328 -0.2450 -0.0036
 5933W        W22780  18.473  16.924   2.253 -0.2789 -0.0354 -0.2871
 5934W        W22781   5.710   1.712   0.995  0.0024  0.0528 -0.0770
 5935W        W22782   2.270   9.502   1.938 -0.3481 -0.1499  0.2552
 5936W        W22783   6.322  16.520  11.888  0.1573  0.1059  0.1873
 5937W        W22784  10.682   7.318  14.032 -0.2647  0.0938  0.2048
 5938W        W22785   2.400  11.365   5.376  0.2238  0.3555 -0.1323
 5939W        W22786  17.622   1.638  10.282 -0.1210  0.0843 -0.0865
 5940W        W22787  18.888   8.738   0.955  0.1415  0.1983  0.0722
 5941W        W22788  17.591   8.471   5.509  0.1458  0.0537 -0.3941
 5942W        W22789   4.842  11.360   9.549 -0.1236 -0.1334  0.1021
 5943W        W22790  12.972   1.579   1.575  0.0837  0.3052 -0.0551
 5944W        W22791   9.930   5.586   0.520  0.0920 -0.1579 -0.1075
 5945W        W22792   5.916  18.465   1.875  0.2112  0.0010  0.1792
 5946W        W22793   9.331   7.060   3.676 -0.1889 -0.0175  0.1916
 5947W        W22794   1.953   3.632   1.561  0.1255  0.1863 -0.0644
 5948W        W22795  17.452  11.512   2.076  0.0098  0.1646 -0.0956
 5949W        W22796   1.980  10.443   0.946  0.0883  0.1008  0.0729
 5950W        W22797   8.859   9.406  12.775 -0.0772 -0.1046 -0.3750
 5951W        W22798   4.568   3.974   0.726 -0.2399 -0.1354  0.0894
 5952W        W22799  13.754   4.146   2.216  0.1558 -0.2125 -0.4933
 5953W        W22800   0.152  15.185  11.564  0.1759  0.1376 -0.2000
 5954W        W22801   7.799  11.596  12.594 -0.2319 -0.1478 -0.3929
 5955W        W22802  14.313   8.567   0.121  0.0531 -0.3270 -0.1841
 5956W        W22803  16.765   1.970  14.433  0.0723  0.1264 -0.1684
 5957W        W22804  10.702  11.185   2.454 -0.2567 -0.2350 -0.2017
 5958W        W22805   8.691  12.326  10.073 -0.1065  0.2456  0.0394
 5959W        W22806  18.304   4.312  14.434  0.3041  0.1512 -0.0897
 5960W        W22807  13.408  13.908   0.899  0.1625 -0.0276  0.2427
 5961W        W22808   2.016  12.139   5.287 -0.2536 -0.1781 -0.0263
 5962W        W22809   2.051   9.104   0.095 -0.0450 -0.2167  0.0094
 5963W        W22810  14.843   4.700   1.679 -0.3182 -0.1457 -0.2493
 5964W        W22811  16.035   2.012  12.127  0.0741  0.1286 -0.0619
 5965W        W22812   8.734  16.923  14.463  0.2669 -0.1271 -0.0459
 5966W        W22813   9.538   9.997  13.742  0.0052 -0.1858 -0.0940
 5967W        W22814  13.851  12.470   5.090  0.3152  0.2424 -0.0517
 5968W        W22815   7.619  10.091   1.369  0.1956  0.0132  0.1246
 5969W        W22816   3.738  10.174  11.985 -0.2795  0.2433  0.3016
 5970W        W22817   5.247  14.607  14.289  0.2560  0.0802  0.0298
 5971W        W22818   0.976   8.765   0.773 -0.1180  0.1416 -0.0081
 5972W        W22819   3.791  12.211   2.377 -0.3215 -0.2857  0.0562
 5973W        W22820   7.990   9.897  10.427 -0.4593  0.0099  0.4119
 5974W        W22821   5.490   4.564  10.497  0.4377  0.1493 -0.3016
 5975W        W22822   3.339   8.367  13.522 -0.1837 -0.2835 -0.0164
 5976W        W22823   6.672  17.557   0.844 -0.0664  0.2492 -0.1876
 5977W        W22824   4.134   6.925  11.277  0.2606 -0.1107 -0.1318
 5978W        W22825   4.622  19.567   0.160  0.1549 -0.0866  0.2120
 5979W        W22826  14.447   4.546   2.647  0.3738 -0.0167  0.2700
 5980W        W22827  10.990   6.127   1.442 -0.0273  0.1665  0.3790
 5981W        W22828   8.593   7.991   0.459 -0.2030  0.1559  0.2077
 5982W        W22829  10.147   9.895   2.125  0.2439 -0.2167 -0.0962
 5983W        W22830  13.228  15.060  14.053 -0.0036  0.0293 -0.0525
 5984W        W22831   1.709  13.882  10.726 -0.1196  0.1328  0.2103
 5985W        W22832  14.213   4.988   0.021  0.0830 -0.3239 -0.0219
 5986W        W22833  15.481   9.050   2.598  0.1771  0.3393 -0.1631
 5987W        W22834   4.296   0.581  10.321  0.1679  0.0228  0.3240
 5988W        W22835  10.906   3.662   3.676  0.0817  0.3229  0.3277
 5989W        W22836  16.333  15.402  12.429 -0.4274  0.2690  0.3072
 5990W        W22837   3.930  12.614  12.345  0.1179  0.3073 -0.0733
 5991W        W22838   1.469  18.282   3.496 -0.1431  0.1239  0.0082
 5992W        W22839   3.417  12.868  12.313 -0.2024  0.0063 -0.2549
 5993W        W22840  17.651   3.808   2.272 -0.0175  0.0554 -0.1018
 5994W        W22841   7.047   9.620  11.605  0.4156  0.4044  0.0873
 5995W        W22842   1.864  12.975   3.568 -0.1482 -0.0581 -0.1328
 5996W        W22843  15.720   9.904  11.965 -0.1389  0.2177  0.3661
 5997W        W22844   3.667  13.439   2.872 -0.0399 -0.1302 -0.2052
 5998W        W22845   0.720  17.336   0.751 -0.2593 -0.1356 -0.3462
 5999W        W22846  12.012   9.102   9.294 -0.0411  0.1079  0.0206
 6000W        W22847   7.742  12.592   1.084  0.1267 -0.0638 -0.1091
 6001W        W22848   1.194   7.463   4.565  0.0861 -0.1895  0.0018
 6002W        W22849   6.273  10.647   0.180  0.0349 -0.1097 -0.0935
 6003W        W22850  11.158  16.366   1.058 -0.1935 -0.0287 -0.1114
 6004W        W22851   8.461  17.275   3.109  0.2597 -0.1074 -0.0821
 6005W        W22852   5.275  18.032  12.490  0.3667  0.0594 -0.2878
 6006W        W22853  12.718   6.043   2.549  0.2100 -0.1947 -0.1235
 6007W        W22854  18.799   6.942   0.909  0.0914 -0.1341  0.1160
 6008W        W22855   3.047   9.581   3.861  0.0916 -0.0658 -0.2158
 6009W        W22856  13.886  19.456  10.386 -0.1002 -0.1295 -0.0574
 6010W        W22857  17.169  11.223   3.339  0.0494  0.2258  0.2934
 6011W        W22858   1.752  10.432  10.677 -0.0976 -0.1622 -0.4942
 6012W        W22859   3.962   3.818   3.967 -0.2279 -0.1679  0.2190
 6013W        W22860  13.726   1.666   2.056  0.0518  0.0263 -0.0063
 6014W        W22861   3.903   3.049   2.296 -0.0504  0.3513 -0.2128
 6015W        W22862   9.630  14.315  12.513 -0.1986 -0.1841  0.1704
 6016W        W22863   4.037  11.549   3.536 -0.0676  0.1201 -0.1727
 6017W        W22864   0.519   1.568  12.327 -0.1087 -0.1219 -0.1549
 6018W        W22865   6.026   6.019   1.018  0.0428  0.0326 -0.1917
 6019W        W22866  15.267   5.034   0.946  0.1279 -0.3155  0.0337
 6020W        W22867  12.461   0.126  10.154  0.0679  0.3174  0.1043
 6021W        W22868   3.995  14.463   4.522 -0.0003  0.0144  0.0042
 6022W        W22869  15.278  14.205   5.550  0.2336  0.2717 -0.2527
 6023W        W22870   3.612   4.048   4.267  0.0350  0.1077  0.0163
 6024W        W22871  15.682  12.656  13.832 -0.0975 -0.1645 -0.2414
 6025W        W22872  19.542   8.515  13.191 -0.1250 -0.1998 -0.1426
 6026W        W22873   7.589   7.671   0.701 -0.1431  0.2473 -0.1500
 6027W        W22874   0.635   8.957  12.483 -0.2282  0.1645 -0.1736
 6028W        W22875  17.131   7.352  13.404 -0.1418 -0.0208 -0.1891
 6029W        W22876   0.152  16.947   1.420  0.3615  0.2570  0.0228
 6030W        W22877   7.527  11.485  14.058  0.1993 -0.1479  0.1548
 6031W        W22878  10.597   2.648   4.589  0.2364  0.3155  0.0685
 6032W        W22879  14.350  11.646   3.869  0.1217  0.3687  0.0846
 6033W        W22880   0.668  17.111   1.361  0.2655  0.0017 -0.6134
 6034W        W22881  17.117   0.318  11.158 -0.0608  0.0558  0.0102
 6035W        W22882  17.468  15.271   3.533  0.0159 -0.2055 -0.3062
 6036W        W22883  17.042  12.396  13.669 -0.1043 -0.0177 -0.1151
 6037W        W22884   3.203  18.398   3.082 -0.0757 -0.3377  0.0864
 6038W        W22885   8.062   4.803   4.843 -0.2888 -0.1846 -0.0615
 6039W        W22886  18.812   3.555   1.482 -0.0021 -0.0274 -0.1252
 6040W        W22887   6.709  12.994  10.817  0.1963  0.0721 -0.0306
 6041W        W22888  15.374  18.579   1.701 -0.2978  0.0218 -0.2357
 6042W        W22889  16.670   4.873   4.230 -0.2468  0.1764 -0.2624
 6043W        W22890  11.717  11.996  12.555 -0.2418 -0.1248 -0.1836
 6044W        W22891  17.247  14.069  12.309  0.0808  0.0125 -0.1259
 6045W        W22892   6.874  18.138  12.330 -0.1687 -0.3245  0.1421
 6046W        W22893   0.232   2.178   4.435 -0.1112 -0.1772  0.1089
 6047W        W22894  14.197   3.643  11.428 -0.3841 -0.0858  0.0477
 6048W        W22895  18.143  18.536   1.093  0.1271  0.1107  0.0063
 6049W        W22896   9.169   5.302   5.152 -0.1398  0.1406 -0.0805
 6050W        W22897   0.490  18.103  13.261  0.0743  0.0250 -0.1892
 6051W        W22898  17.399  15.273   1.724 -0.0752  0.1473 -0.0019
 6052W        W22899   7.651   8.319   0.373  0.1047  0.0408 -0.3422
 6053W        W22900  16.518  15.921   2.859  0.0402 -0.0195 -0.1975
 6054W        W22901   3.126  14.279   3.014  0.2215  0.1124 -0.2233
 6055W        W22902  14.375   2.065   2.717 -0.3265 -0.0812 -0.2710
 6056W        W22903   1.417  16.629  11.894  0.0304  0.1428 -0.0321
 6057W        W22904   5.914  17.115  10.802  0.1295  0.0513 -0.0524
 6058W        W22905   7.408   5.804  12.944 -0.0448 -0.2711  0.0381
 6059W        W22906   4.192   7.989   4.455  0.0193 -0.0573  0.0692
 6060W        W22907  12.095   4.929   1.904  0.3611 -0.2209  0.0659
 6061W        W22908   6.079  12.946   3.375  0.0371  0.3051 -0.0048
 6062W        W22909   3.880   2.128   0.434 -0.0388  0.0549 -0.0483
 6063W        W22910   1.256  11.092   2.810 -0.0916  0.3721  0.2228
 6064W        W22911   5.782   8.981   2.455 -0.0931 -0.4540 -0.0284
 6065W        W22912  16.438   7.916   0.980  0.0064  0.2724  0.0836
 6066W        W22913  13.879   7.288   3.674 -0.0217  0.0032  0.1656
 6067W        W22914  10.576  10.297   0.260 -0.5313  0.0778  0.3042
 6068W        W22915  18.092   0.290  11.519  0.0820  0.2976 -0.1577
 6069W        W22916   9.047   9.043   9.409 -0.0970 -0.3557  0.1935
 6070W        W22917  15.123  19.082  10.533  0.0638  0.0308 -0.0307
 6071W        W22918  13.136   9.927   2.407 -0.1352  0.0818 -0.0787
 6072W        W22919   0.888  12.163  11.726  0.4253  0.2638  0.0018
 6073W        W22920   4.175   1.296   2.268 -0.1151  0.1304 -0.3554
 6074W        W22921   8.241  18.319  11.884 -0.1063 -0.2112 -0.1483
 6075W        W22922   3.534   5.733  12.170  0.0585 -0.1067  0.1303
 6076W        W22923   0.989   3.136   1.787 -0.1165 -0.1652 -0.3590
 6077W        W22924   1.702  13.747  11.911 -0.2408  0.2954 -0.1773
 6078W        W22925  11.724   0.602   5.232  0.1616 -0.1951 -0.2618
 6079W        W22926   8.313   3.731   2.115 -0.0949  0.0956 -0.1180
 6080W        W22927   5.221   2.447   0.491  0.2145  0.1546  0.1057
 6081W        W22928  12.582  13.578   0.789 -0.1462  0.0460 -0.3033
 6082W        W22929   3.304   1.095  11.109 -0.0689 -0.0256 -0.2436
 6083W        W22930   4.029  10.709  13.944 -0.0186 -0.4892 -0.1162
 6084W        W22931  16.938  16.481  14.175  0.0666 -0.1946 -0.1497
 6085W        W22932   7.379  16.955  10.896  0.1408 -0.0785 -0.0007
 6086W        W22933   7.727  16.806  13.361  0.0926  0.1563  0.2901
 6087W        W22934   5.892   1.355   4.104 -0.1840  0.1671 -0.1132
 6088W        W22935  12.175   5.852  12.721  0.2526 -0.2376  0.0299
 6089W        W22936  10.358   2.694  14.384 -0.1889  0.0117  0.1082
 6090W        W22937   8.609  15.715   9.712 -0.0534 -0.1014 -0.0246
 6091W        W22938   3.311   0.931   2.447  0.0647 -0.1316  0.1383
 6092W        W22939   8.420   8.136   0.916  0.0419  0.1857  0.1745
 6093W        W22940  10.454   9.150  10.951  0.1459 -0.1579  0.0252
 6094W        W22941  16.446  11.385   0.491 -0.0503  0.0645  0.1618
 6095W        W22942  18.756  13.475  11.572 -0.2516 -0.1757  0.0740
 6096W        W22943  16.256  14.402   3.077 -0.3864 -0.2997  0.2767
 6097W        W22944  14.952  12.121  11.272  0.0632  0.2390 -0.2417
 6098W        W22945   6.127   4.432   5.275 -0.2078 -0.1724 -0.2207
 6099W        W22946   4.291  14.837  12.375 -0.0720  0.2285  0.1823
 6100W        W22947  18.447  16.179  14.262  0.2062 -0.0256 -0.0809
 6101W        W22948  10.163   8.045  14.276 -0.0604 -0.2436  0.1719
 6102W        W22949   7.953  18.355   0.014  0.2780  0.0343 -0.1783
 6103W        W22950  14.423  18.435   4.070 -0.1368 -0.3083 -0.2245
 6104W        W22951  18.535   1.062   0.359  0.1500  0.0191  0.3290
 6105W        W22952  12.766  17.819  13.578  0.2920  0.1779 -0.2123
 6106W        W22953  13.172  10.131   3.189 -0.1236 -0.2130 -0.1557
 6107W        W22954  12.483   8.552   1.211 -0.0401 -0.0596 -0.0411
 6108W        W22955   7.773  16.041  13.021 -0.2435  0.1256  0.2044
 6109W        W22956   4.607  18.614  11.059  0.2051 -0.2359 -0.0172
 6110W        W22957   7.837   7.937   3.165 -0.0176  0.1967 -0.0663
 6111W        W22958  10.168   9.960   3.546  0.0657  0.0828  0.1512
 6112W        W22959   0.093  13.532   1.752 -0.6101  0.2634  0.0414
 6113W        W22960  17.727   7.316  13.101  0.1032  0.1862 -0.1635
 6114W        W22961   9.405   6.397  10.930 -0.2133  0.1327 -0.0683
 6115W        W22962  15.143  13.443  14.004  0.0396 -0.0480  0.1750
 6116W        W22963   6.796   9.315  10.624  0.4259 -0.3425 -0.2147
 6117W        W22964   5.413   2.438  10.978  0.1208 -0.0399 -0.0466
 6118W        W22965   0.135   1.101   1.977 -0.2683 -0.1945  0.2971
 6119W        W22966   6.707   1.692  14.589  0.0671 -0.3217  0.2330
 6120W        W22967   9.000   9.719  10.715  0.3200 -0.2719 -0.0983
 6121W        W22968   2.193  15.935   0.405 -0.1777 -0.0817 -0.1576
 6122W        W22969   3.054   3.261   0.344 -0.0071  0.1838 -0.1513
 6123W        W22970   7.880  19.163  12.153  0.2578 -0.0745  0.2372
 6124W        W22971  16.821  15.203  11.099  0.2174 -0.1753 -0.1308
 6125W        W22972  13.608  17.983   0.891 -0.0992  0.1707 -0.0152
 6126W        W22973   6.900  11.296  13.593 -0.0990  0.0552 -0.2430
 6127W        W22974   1.054   9.693  13.298  0.2332  0.0916  0.3960
 6128W        W22975  16.428  13.416   2.977 -0.0895  0.1507 -0.1974
 6129W        W22976   0.946  11.315  12.291  0.1091 -0.1224 -0.2378
 6130W        W22977  10.356   2.948   4.193  0.0441  0.0264 -0.0876
 6131W        W22978   6.990  11.117   1.129  0.1555  0.0364  0.1564
 6132W        W22979   2.292   9.235   1.360 -0.2788  0.1960  0.1862
 6133W        W22980   8.299   6.741   2.139  0.0145 -0.1585 -0.1492
 6134W        W22981  11.368  10.253  13.398 -0.0986 -0.0348 -0.0032
 6135W        W22982   5.586   4.608   5.505 -0.2347 -0.0330 -0.0635
 6136W        W22983   6.025   4.471  10.517  0.1510 -0.2297 -0.2414
 6137W        W22984  15.130  17.000  14.004  0.0276 -0.2782 -0.2628
 6138W        W22985   8.829   6.477   0.204 -0.0767 -0.1058 -0.3488
 6139W        W22986  15.008  15.180  12.278 -0.1125  0.2354  0.4553
 6140W        W22987  14.368  14.200   0.944 -0.0308 -0.2058 -0.0822
 6141W        W22988  15.286  15.139   3.323 -0.3684 -0.1839 -0.2071
 6142W        W22989   2.212  11.631   3.070  0.2047 -0.1299  0.1883
 6143W        W22990  18.253  10.667   3.005 -0.0100  0.0847 -0.2912
 6144W        W22991  16.184   5.245   2.533  0.0005  0.0041 -0.3188
 6145W        W22992   3.109   4.229   3.035  0.1356 -0.0117  0.0766
 6146W        W22993   8.819   2.098   0.182 -0.0005  0.1026 -0.0774
 6147W        W22994  15.719  13.344   2.023  0.2312 -0.1014  0.2114
 6148W        W22995  11.645  11.519  11.793 -0.1126 -0.2920  0.2204
 6149W        W22996   0.753  18.280   0.859 -0.1544  0.2146  0.2184
 6150W        W22997  19.262  14.129   0.236 -0.1726  0.0982  0.2174
 6151W        W22998   3.483  11.681  14.102 -0.0820  0.0774  0.3046
 6152W        W22999   2.633  14.966   1.155  0.3715 -0.1987  0.0280
 6153W        W23000  17.900  17.622   0.800 -0.1449  0.0340 -0.1379
 6154W        W23001   9.282   3.993  13.627  0.0770  0.2408  0.1591
 6155W        W23002   2.253  13.098  14.400 -0.1805 -0.3566  0.0378
 6156W        W23003  15.926  12.791   4.459  0.1690 -0.0016  0.3280
 6157W        W23004   6.918  15.584  11.063  0.4819  0.3069  0.1072
 6158W        W23005   9.562   4.237   1.041 -0.2788 -0.0335 -0.2043
 6159W        W23006  14.535   1.524  13.049 -0.3626 -0.0973  0.3262
 6160W        W23007  16.378  19.210   2.589 -0.0281 -0.2926 -0.1587
 6161W        W23008  16.767   2.082   2.109 -0.3571  0.0450 -0.1279
 6162W        W23009  10.771   8.209   2.167  0.1777 -0.0408  0.0570
 6163W        W23010  10.723   2.252   4.960 -0.0206  0.0753 -0.1057
 6164W        W23011   7.240   3.154   3.282  0.0337 -0.0942 -0.1835
 6165W        W23012   2.239   4.686   1.919 -0.0809  0.2316  0.2714
 6166W        W23013   1.543  13.931  11.301 -0.0919  0.4785  0.0021
 6167W        W23014   3.147  14.362   4.169 -0.0300 -0.1340  0.2897
 6168W        W23015  18.856  12.504  12.094 -0.1936  0.1010 -0.2572
 6169W        W23016  13.224  16.293   3.540  0.0682  0.3967 -0.0158
 6170W        W23017   0.292   8.848   2.407 -0.0206 -0.1977 -0.2642
 6171W        W23018  10.164   7.410  13.877  0.4388 -0.1358 -0.0870
 6172W        W23019   5.217  12.309   0.838 -0.0504 -0.0568  0.1283
 6173W        W23020  12.465   5.061  12.980  0.0852  0.0680 -0.1576
 6174W        W23021   6.266  16.055  12.190  0.3153  0.3767  0.0379
 6175W        W23022   8.750  12.958   0.805  0.0128  0.0497  0.1894
 6176W        W23023   7.868  11.232   4.885  0.1646  0.1795 -0.0022
 6177W        W23024   1.920  16.432   0.418 -0.1094 -0.0465 -0.0376
 6178W        W23025   7.289   5.656  10.260  0.1871  0.0763 -0.0515
 6179W        W23026   7.918   9.775  13.621 -0.2040  0.0037 -0.4013
 6180W        W23027   0.421   5.155  13.626 -0.3012  0.0805  0.0383
 6181W        W23028   0.307  17.857   4.170 -0.0460 -0.3290  0.0581
 6182W        W23029   6.862  15.313   1.501 -0.4603  0.0838 -0.2100
 6183W        W23030  13.111  18.324   0.909 -0.0246  0.3231  0.2052
 6184W        W23031  10.280  19.251  12.324  0.0689  0.0427  0.2481
 6185W        W23032  11.745  10.978   4.302 -0.5839 -0.1281  0.0237
 6186W        W23033   7.174   6.778   2.948  0.0245  0.0179  0.2564
 6187W        W23034  15.797  16.207  12.795  0.4323 -0.3370 -0.1124
 6188W        W23035   4.738   7.000  12.339 -0.1228  0.1923  0.0998
 6189W        W23036   1.907  12.776  13.997 -0.0575  0.0608 -0.0933
 6190W        W23037   6.194  18.000  11.483  0.7690  0.2365  0.1625
 6191W        W23038   5.388  18.872   3.314 -0.0542  0.0527  0.1677
 6192W        W23039   8.720  12.859  14.177 -0.0456 -0.1095 -0.2760
 6193W        W23040   3.426  12.212   5.341  0.1268  0.0606  0.4113
 6194W        W23041   0.528  10.571   2.047 -0.0093 -0.0469 -0.3783
 6195W        W23042   2.003  13.912   4.601 -0.0112 -0.0402  0.2383
 6196W        W23043  19.568  17.018   3.267 -0.3293  0.2814 -0.0029
 6197W        W23044   4.510   1.418  11.926 -0.0135  0.0133  0.0204
 6198W        W23045   3.797   0.749  10.488  0.0487  0.2051 -0.1149
 6199W        W23046  10.347  19.338  14.018 -0.0241  0.1667 -0.0945
 6200W        W23047   3.065  13.261   1.430 -0.1596 -0.2331  0.1010
 6201W        W23048   8.808  11.718  11.652 -0.0176  0.1063 -0.0620
 6202W        W23049  15.384   2.160  13.434 -0.1644 -0.2172  0.1503
 6203W        W23050  13.473   3.912  10.627  0.1522  0.0876 -0.0631
 6204W        W23051  17.209   9.391   1.008  0.1728  0.0149  0.0662
 6205W        W23052   3.738   9.360   0.786  0.3144  0.0429 -0.0174
 6206W        W23053   7.933   6.729   3.346 -0.0783  0.1227 -0.2250
 6207W        W23054  14.232  10.576   3.368 -0.2091 -0.1259 -0.1333
 6208W        W23055  11.451  18.890  14.279  0.0951  0.0987  0.1331
 6209W        W23056  15.075  18.963   3.361 -0.0654 -0.1635  0.0983
 6210W        W23057  13.795   2.308   3.500 -0.1202 -0.1367 -0.1703
 6211W        W23058  17.805  18.170  10.071  0.0047 -0.0501  0.0258
 6212W        W23059   6.921   3.409  11.982 -0.0642 -0.1280  0.0246
 6213W        W23060  18.245   0.428  14.219  0.2411 -0.0036  0.1136
 6214W        W23061  17.068   7.811   1.692 -0.1049 -0.3028  0.1299
 6215W        W23062   4.859   0.696  10.864 -0.1417 -0.3548  0.1633
 6216W        W23063  19.371  18.109   4.912 -0.0785  0.2896  0.0142
 6217W        W23064   9.507  10.773  10.484 -0.2151 -0.1014  0.1083
 6218W        W23065   2.178  11.269  13.641  0.0975  0.1868  0.2548
 6219W        W23066  16.909  16.838  12.677  0.3678 -0.3045  0.0170
 6220W        W23067  13.153  17.788   0.006 -0.2582  0.3527 -0.2594
 6221W        W23068   8.173  18.580   3.615 -0.0335  0.1014  0.0425
 6222W        W23069  18.616  13.366   0.787  0.2492  0.2501  0.3279
 6223W        W23070  15.978  17.768   1.650  0.1789  0.3067 -0.0414
 6224W        W23071  18.207   4.884   1.326  0.0636  0.2766  0.0115
 6225W        W23072   7.736  11.065   2.543 -0.1081  0.2343  0.2756
 6226W        W23073  13.988   8.131  11.351 -0.1188 -0.0061 -0.1824
 6227W        W23074  17.946   4.498  11.995  0.0123 -0.2440 -0.2055
 6228W        W23075   6.631  15.269   4.367  0.1323 -0.3739 -0.3112
 6229W        W23076   2.199  16.870   4.873  0.1096  0.4054  0.0830
 6230W        W23077  17.654  18.713   0.023  0.0869 -0.2471 -0.1062
 6231W        W23078   9.790   3.977  13.756 -0.1669 -0.1659  0.2244
 6232W        W23079   7.668  11.031   3.021 -0.0858  0.0267 -0.1309
 6233W        W23080   1.759  15.512  11.663 -0.0544  0.0943  0.3463
 6234W        W23081   7.971  17.149   1.040  0.5321 -0.2678  0.0267
 6235W        W23082  14.976   2.658   2.523  0.0539  0.1046  0.1517
 6236W        W23083  13.268   9.395  14.248  0.0234 -0.0527  0.0647
 6237W        W23084   0.116   9.459   2.113  0.1898 -0.1226 -0.1023
 6238W        W23085  19.501  14.666   4.659  0.1772 -0.1782 -0.1811
 6239W        W23086  18.784   3.404   2.620  0.1688  0.0080 -0.4181
 6240W        W23087  10.271   3.299  13.091  0.2429  0.0604 -0.0160
 6241W        W23088  12.506   5.510  14.413 -0.0620  0.1254 -0.0506
 6242W        W23089   1.622  12.185   2.876 -0.4806 -0.1355 -0.2047
 6243W        W23090  12.850   6.713   1.991  0.2068  0.1600  0.4556
 6244W        W23091  17.792   0.078  13.830  0.2178  0.0546 -0.0601
 6245W        W23092  10.499   1.628   0.644  0.0536  0.0166 -0.1085
 6246W        W23093  12.275   6.639   4.685 -0.0457  0.3042 -0.2131
 6247W        W23094   9.368  11.841  11.827  0.0571 -0.4516 -0.3498
 6248W        W23095   5.093   1.361   2.344 -0.2228 -0.2575 -0.0503
 6249W        W23096   2.052   4.697  12.125 -0.0363  0.1382  0.2433
 6250W        W23097   8.855  13.262  10.524  0.2141 -0.1330 -0.0890
 6251W        W23098  16.563  15.335  13.400  0.0286 -0.2971  0.0306
 6252W        W23099  14.912   8.075   3.884  0.2329  0.0302 -0.2665
 6253W        W23100  16.357  14.875  12.565 -0.0718  0.0264 -0.0152
 6254W        W23101  16.897   9.410   5.441 -0.2434 -0.1084  0.0779
 6255W        W23102   0.400  14.575   1.393 -0.2998 -0.1681 -0.1545
 6256W        W23103  15.464  13.684  14.314 -0.1072  0.1259 -0.0866
 6257W        W23104  12.904   9.754   2.926 -0.1965  0.2408 -0.1085
 6258W        W23105  19.625  15.520   0.911  0.0358 -0.3099 -0.1770
 6259W        W23106   8.309  13.246  10.230 -0.1294 -0.2790 -0.2075
 6260W        W23107  18.955   9.449   2.560  0.0409  0.0163 -0.3282
 6261W        W23108  15.962   6.628   9.931 -0.1351 -0.0896  0.0184
 6262W        W23109   1.721   9.758   5.283  0.1538 -0.0318  0.2544
 6263W        W23110   8.585   4.616   4.592 -0.4302  0.2497  0.0672
 6264W        W23111   9.403   0.470  10.299 -0.1144 -0.1541  0.1850
 6265W        W23112   5.181  10.258  14.053 -0.0055 -0.2055  0.2011
 6266W        W23113   0.506   9.356   3.623  0.3482  0.3093  0.2997
 6267W        W23114   1.484  10.861  10.710  0.0858  0.0920  0.1223
 6268W        W23115   1.270   0.176  12.690  0.1165 -0.2068  0.2572
 6269W        W23116   1.603  19.013   1.322  0.4326 -0.0689 -0.0280
 6270W        W23117   7.301  17.646  12.526  0.2857  0.3583 -0.0411
 6271W        W23118   5.019  12.248  11.679 -0.2315  0.3071  0.1557
 6272W        W23119   2.785  17.040   3.626 -0.2369 -0.1649  0.3162
 6273W        W23120   7.618   4.273  11.824  0.0343 -0.0908  0.2565
 6274W        W23121  19.436   4.366  10.066 -0.1311 -0.1017 -0.1478
 6275W        W23122   5.110   6.351  13.527 -0.0803  0.2174  0.0128
 6276W        W23123  13.999   7.670  11.365 -0.1754 -0.2091 -0.1501
 6277W        W23124   3.791   8.967   0.276  0.2798  0.1420 -0.0056
 6278W        W23125   5.141  13.565   3.349  0.2000  0.0990 -0.1174
 6279W        W23126   9.133   1.366  14.202 -0.1835  0.2500 -0.1508
 6280W        W23127  12.061   3.592   1.770 -0.3838  0.1382 -0.1561
 6281W        W23128   7.753   3.231   3.064  0.0042 -0.0258  0.0655
 6282W        W23129   9.743  15.393  11.299 -0.1313 -0.0486 -0.3363
 6283W        W23130   6.165   9.179  14.359  0.0516  0.1824  0.1964
 6284W        W23131   4.017   9.294   2.126 -0.1894 -0.0506  0.0939
 6285W        W23132  15.906  13.971  12.275  0.4229  0.1875  0.0146
 6286W        W23133   7.044   5.666  10.758  0.0853  0.1226  0.2944
 6287W        W23134   6.072   2.872  13.574 -0.4371  0.1977  0.3790
 6288W        W23135   3.111  15.391  11.609 -0.2183  0.1992  0.3698
 6289W        W23136  19.182   4.876  11.610 -0.1926  0.0939  0.0882
 6290W        W23137   3.968   5.818   9.369  0.3587  0.2699  0.0733
 6291W        W23138  18.545  13.798  13.906 -0.2635 -0.3127 -0.1176
 6292W        W23139  10.842  10.335   9.790 -0.0987 -0.0257 -0.2499
 6293W        W23140   3.210  15.866  11.828  0.0770 -0.0027 -0.0687
 6294W        W23141   9.075   7.527   3.448 -0.2056  0.1887  0.1612
 6295W        W23142  13.532   9.226   4.788  0.3956  0.0069 -0.2991
 6296W        W23143   2.583   7.629   0.579 -0.0893 -0.1467  0.2649
 6297W        W23144   0.825  16.904   4.008  0.1161  0.1016  0.1464
 6298W        W23145  17.018   3.487   4.497 -0.1124  0.4135  0.2063
 6299W        W23146  18.335   8.146   4.163  0.2264 -0.0216  0.2780
 6300W        W23147   2.861  15.130  12.147  0.1021 -0.1136  0.0080
 6301W        W23148   8.306  10.612   1.837  0.2297 -0.2823  0.2276
 6302W        W23149  17.817  14.991  14.132  0.1967  0.0303  0.0757
 6303W        W23150  17.464  16.431   9.793  0.0366  0.0326 -0.2510
 6304W        W23151  11.591   1.676   2.958 -0.2411 -0.1221  0.3649
 6305W        W23152  13.004   5.923  10.333  0.0325 -0.3363 -0.0299
 6306W        W23153  15.872  19.166   0.702  0.0776  0.1974  0.0141
 6307W        W23154   1.547  18.444  11.628  0.1616 -0.2318  0.0506
 6308W        W23155   7.923   3.365  14.408 -0.1481 -0.0792  0.1647
 6309W        W23156   2.734   6.691  12.803 -0.2435 -0.2230  0.1534
 6310W        W23157  18.970  13.092  14.376 -0.0713  0.2033  0.1366
 6311W        W23158  12.826  17.547  14.079 -0.1806  0.0249 -0.0331
 6312W        W23159  11.253  13.970   2.061 -0.1655  0.0280  0.0965
 6313W        W23160  10.949   2.846  11.101  0.0914 -0.2436 -0.1452
 6314W        W23161   5.149   7.872   1.841  0.2981 -0.3380 -0.2348
 6315W        W23162  14.257  17.503  11.899  0.0601  0.0378 -0.0367
 6316W        W23163   5.157   9.718  10.435 -0.0596  0.1713  0.2848
 6317W        W23164  11.579   6.764  12.586 -0.2269 -0.1145  0.0314
 6318W        W23165  15.222  10.685  11.949  0.1705 -0.1860 -0.2144
 6319W        W23166   3.012   1.610  14.331 -0.0115 -0.1856 -0.2126
 6320W        W23167   7.099  17.334  11.115  0.1127 -0.0886 -0.0858
 6321W        W23168   1.245   8.776  13.536  0.2617  0.0685  0.1766
 6322W        W23169  19.375   1.377   2.299 -0.1191 -0.1184  0.1683
 6323W        W23170   9.997   1.050  12.118 -0.2146  0.0293 -0.4167
 6324W        W23171   4.957  14.410   5.018  0.0547 -0.3248  0.0362
 6325W        W23172  18.850  19.560   0.281  0.1722  0.4442  0.3824
 6326W        W23173  16.707  18.346   1.097  0.1291 -0.0124 -0.0833
 6327W        W23174   0.983  14.048   4.224  0.2074  0.1818  0.1609
 6328W        W23175  18.573  18.176   2.491 -0.2968  0.0949  0.2148
 6329W        W23176  13.607   5.878  12.416 -0.1297  0.0373  0.0391
 6330W        W23177  14.645   0.605   1.573 -0.2151  0.1136  0.1112
 6331W        W23178  12.517  13.946   4.250 -0.2232  0.1465  0.0311
 6332W        W23179   2.252   4.272  12.808 -0.0447 -0.3154  0.1350
 6333W        W23180  18.165  11.939  11.571 -0.0670  0.1033 -0.1480
 6334W        W23181  16.345  17.747  11.193 -0.1606 -0.5586 -0.0626
 6335W        W23182   0.676   2.158  11.644  0.0020 -0.1672 -0.1181
 6336W        W23183  10.780   5.772  13.472  0.1448  0.2277  0.0923
 6337W        W23184  15.684   0.732   3.427 -0.0645  0.3449  0.1519
 6338W        W23185   8.300   8.077  11.341 -0.0418  0.2150  0.1043
 6339W        W23186   6.123  17.902   0.392 -0.1173  0.3197  0.2555
 6340W        W23187  18.665   4.507  10.877 -0.2302 -0.1917  0.0229
 6341W        W23188  16.393  10.929   2.498  0.0170  0.0545  0.0817
 6342W        W23189   8.235   7.618   0.341  0.1557 -0.0901 -0.2042
 6343W        W23190   2.573   0.011  14.289 -0.0453 -0.0677 -0.0751
 6344W        W23191  14.406  10.526   0.186  0.2746 -0.0503  0.1532
 6345W        W23192   4.555   1.015   4.815 -0.2047  0.0979  0.2947
 6346W        W23193   3.604  18.603   1.397  0.1260 -0.1008 -0.0457
 6347W        W23194   6.149   8.625  10.864  0.2031  0.2904 -0.0408
 6348W        W23195  17.725   3.299  11.501  0.0985  0.0062 -0.0271
 6349W        W23196   0.634   3.065  11.764 -0.0363  0.0708 -0.3929
 6350W        W23197   4.228  11.863  10.914  0.0710 -0.2788  0.2187
 6351W        W23198  15.549   9.080   4.986 -0.2269  0.0297  0.0595
 6352W        W23199  19.187   1.121  11.363 -0.0046 -0.1097  0.1191
 6353W        W23200  17.195   1.954   0.858  0.0560  0.5783 -0.1112
 6354W        W23201   2.831   3.171   1.780 -0.3455 -0.2102  0.0533
 6355W        W23202   6.212  19.207  13.167  0.0916 -0.3507 -0.2244
 6356W        W23203  18.810   1.851   5.264  0.1423 -0.5287  0.0436
 6357W        W23204   4.464   1.161   1.086  0.0996 -0.2339 -0.2808
 6358W        W23205  13.320  19.594  14.366  0.0039  0.3278  0.1869
 6359W        W23206   6.771  13.542   2.737 -0.0876 -0.1006  0.1342
 6360W        W23207   4.901   7.672   3.999 -0.1691  0.0235 -0.3996
 6361W        W23208  10.072  16.333   3.886 -0.0965  0.0443 -0.2317
 6362W        W23209  12.138   7.382  11.838  0.1340  0.1057  0.0792
 6363W        W23210  12.413  13.639  10.547 -0.1464 -0.0434  0.0389
 6364W        W23211   9.728   1.397  12.423  0.0279 -0.0687 -0.1920
 6365W        W23212   3.288   5.865  14.304  0.0386 -0.0694  0.1182
 6366W        W23213  13.066   5.542  11.160  0.0827  0.5571 -0.0089
 6367W        W23214  11.373  16.482  12.244  0.1053  0.1746 -0.0202
 6368W        W23215   4.342   6.738  12.546 -0.1010  0.0006  0.1818
 6369W        W23216  16.423   2.895  10.515 -0.1423 -0.1638  0.1241
 6370W        W23217   3.652  13.668  10.150 -0.3008  0.1361  0.0223
 6371W        W23218  11.783   8.634   2.533 -0.2508  0.0675 -0.0212
 6372W        W23219  15.768  10.522   0.559 -0.1319  0.0282 -0.1247
 6373W        W23220   0.334  15.642   1.936  0.2622 -0.2022 -0.1406
 6374W        W23221  12.843   4.001  14.314 -0.4545 -0.0836 -0.2209
 6375W        W23222   7.936  10.966   3.952  0.0414 -0.0530  0.1601
 6376W        W23223   3.478  18.431  11.042 -0.0212 -0.0781  0.0666
 6377W        W23224   2.644  12.820  12.085 -0.0352  0.0135 -0.0542
 6378W        W23225   4.992   8.741  14.065 -0.0601 -0.1186  0.1213
 6379W        W23226   4.593   4.260   2.486 -0.2343  0.2110  0.1658
 6380W        W23227   8.779   6.423  13.379  0.0926  0.2409  0.0330
 6381W        W23228   8.928  15.738   3.072  0.0859 -0.1665 -0.0404
 6382W        W23229   3.684   5.291   3.601 -0.0526  0.1435 -0.1283
 6383W        W23230   9.164  19.627   0.728  0.1787  0.1582 -0.0921
 6384W        W23231   3.655   5.504  14.118 -0.1727  0.0157  0.2176
 6385W        W23232  17.076  16.936   4.018 -0.1868  0.0864  0.0157
 6386W        W23233   0.317  11.642  14.315  0.0160 -0.0656  0.2027
 6387W        W23234  17.058   2.326   4.714  0.0894 -0.1036  0.0844
 6388W        W23235   2.573  18.344  14.507 -0.3577 -0.1651 -0.2911
 6389W        W23236  11.121  14.675  12.080 -0.0467  0.0336  0.3361
 6390W        W23237  15.721   1.710  14.055  0.0892  0.1661  0.1153
 6391W        W23238  10.396   8.164   0.124 -0.1963  0.0141 -0.2976
 6392W        W23239   8.041   0.828  11.789 -0.0491 -0.0101  0.3434
 6393W        W23240  12.264  17.517  10.864  0.1442  0.2549  0.0781
 6394W        W23241  13.805  10.166   4.872 -0.0932 -0.2149  0.0717
 6395W        W23242  14.801  14.750  11.097 -0.2681 -0.2110 -0.2454
 6396W        W23243   1.140   7.443   2.929  0.0205 -0.0536  0.0869
 6397W        W23244   7.983  14.652   2.024  0.1233 -0.1076  0.3577
 6398W        W23245  10.570   8.655   2.897 -0.0997  0.1880  0.2182
 6399W        W23246  11.693   1.124   3.015  0.1732  0.1024 -0.3694
 6400W        W23247   3.339  12.608   2.344  0.1347  0.2015  0.0002
 6401W        W23248   8.553  15.547  13.610  0.0786  0.0923  0.0507
 6402W        W23249   5.769  17.043   0.719 -0.0752  0.1946  0.0104
 6403W        W23250   9.205  15.687   2.039  0.3199  0.1856 -0.0661
 6404W        W23251  18.024  16.984   4.240 -0.2194  0.1615  0.1588
 6405W        W23252   9.944  13.904  13.019  0.1889 -0.1949  0.0441
 6406W        W23253   6.951  12.432  13.565  0.2254 -0.1706 -0.1222
 6407W        W23254   3.565   5.026  13.839 -0.1513 -0.1239  0.2920
 6408W        W23255   2.699   1.538  12.477  0.1027  0.0936  0.0581
 6409W        W23256  16.785   7.457  11.049  0.3612  0.0163 -0.2102
 6410W        W23257  13.451  17.075   9.424  0.0098  0.0872  0.1352
 6411W        W23258  11.484  16.285   2.525  0.1236  0.2019 -0.2658
 6412W        W23259  18.524   3.421  12.729  0.0200 -0.1731 -0.0486
 6413W        W23260  16.708   1.521  12.697  0.0643  0.0087 -0.0328
 6414W        W23261   4.754   0.466   0.284  0.2538  0.0697  0.0142
 6415W        W23262   9.341  16.412  12.758  0.2651 -0.0030  0.2942
 6416W        W23263   7.507   9.923   0.536 -0.1229 -0.2174  0.2718
 6417W        W23264  11.930   4.961  14.608  0.0337 -0.1349  0.0251
 6418W        W23265  17.138   2.564   1.601 -0.0488  0.0988 -0.3651
 6419W        W23266  16.289  16.011  10.156 -0.0182  0.2784 -0.1887
 6420W        W23267  10.294   6.755  11.471  0.4588  0.3199 -0.1106
 6421W        W23268  14.739  13.990   2.663  0.0518  0.0396 -0.1004
 6422W        W23269  19.494  12.196   3.711  0.1422 -0.0750 -0.1472
 6423W        W23270  18.462  15.149   2.216 -0.3717 -0.0750  0.1412
 6424W        W23271  14.526  11.245   4.133  0.0150 -0.3918  0.0426
 6425W        W23272   5.791  16.447   3.995  0.1343  0.2685 -0.1245
 6426W        W23273  16.373  16.085   1.144 -0.1717  0.5871 -0.1568
 6427W        W23274   5.369   5.015  13.234  0.1200 -0.2779 -0.3781
 6428W        W23275  12.602   6.043  13.741  0.2454 -0.3033  0.0040
 6429W        W23276   9.256  15.281   2.226 -0.2097  0.0864 -0.1881
 6430W        W23277   3.956   5.700  12.535 -0.2173 -0.0551  0.0532
 6431W        W23278  13.704  17.525   1.169  0.0827  0.2258  0.1884
 6432W        W23279  17.560   3.037   4.081  0.0550  0.1525 -0.0789
 6433W        W23280  13.132   7.859   1.294 -0.1430  0.0707  0.1268
 6434W        W23281  10.152   5.800  14.564 -0.1179 -0.2494 -0.1136
 6435W        W23282  18.062   0.328   3.637 -0.1121 -0.1667 -0.1850
 6436W        W23283   6.467  17.063   2.758 -0.0687 -0.1849 -0.2071
 6437W        W23284   6.518  13.472  13.549 -0.0736 -0.0289 -0.0055
 6438W        W23285   5.820   1.417  11.920  0.1242  0.2636 -0.2704
 6439W        W23286   7.489   6.353  12.355 -0.2007  0.0776  0.2585
 6440W        W23287  12.423   2.739  12.898 -0.2803 -0.3225  0.2097
 6441W        W23288   9.857   4.896  13.153 -0.0763  0.1618 -0.1758
 6442W        W23289  10.156  19.483  14.409 -0.1480 -0.3388 -0.2176
 6443W        W23290   3.743  15.172  10.320 -0.1824 -0.3898 -0.0433
 6444W        W23291  15.586   3.498   5.210 -0.3330 -0.0651  0.0363
 6445W        W23292  18.789   9.198  10.281 -0.2216 -0.2084 -0.3287
 6446W        W23293  11.597  16.018  12.026  0.1657  0.1809  0.2374
 6447W        W23294   1.848   4.160   2.890  0.3563  0.1286 -0.1507
 6448W        W23295   8.400   3.400  10.934 -0.2955 -0.1377 -0.2943
 6449W        W23296   8.499   3.307  14.371  0.0527 -0.0631  0.0309
 6450W        W23297  19.023   3.264  12.692  0.1309  0.1022  0.0906
 6451W        W23298   8.806   6.345  11.512  0.2294  0.0215 -0.0600
 6452W        W23299  14.560   8.082  14.593  0.1004  0.1038  0.0670
 6453W        W23300   6.161   6.126  11.814  0.0052 -0.3541 -0.0569
 6454W        W23301   5.274  19.326   2.800  0.1100 -0.1288 -0.1806
 6455W        W23302   9.858   2.703   1.394 -0.2913 -0.2006  0.0613
 6456W        W23303   6.433   0.132   2.846 -0.1540  0.2400  0.0426
 6457W        W23304   1.023   6.295  13.410 -0.2368  0.0779 -0.4300
 6458W        W23305   5.038  15.991  10.879  0.0051  0.0224  0.2128
 6459W        W23306  14.197  19.305   4.411  0.2191 -0.1777 -0.1304
 6460W        W23307   1.426  10.173  12.485  0.0556 -0.2739 -0.1446
 6461W        W23308  13.883   5.912  11.461 -0.1523  0.2374 -0.2108
 6462W        W23309  14.597  16.203  11.526 -0.4091 -0.1933 -0.0648
 6463W        W23310  18.985   0.973   9.833  0.1343  0.1686 -0.2017
 6464W        W23311   0.254  11.775  12.572 -0.0415 -0.1910  0.1347
 6465W        W23312  16.839   4.794   3.620  0.0569 -0.0968  0.0996
 6466W        W23313  15.352  10.197  12.699  0.2384  0.1109 -0.2886
 6467W        W23314  14.377  17.238  13.303 -0.2855  0.3535  0.0102
 6468W        W23315  14.873   9.297   3.407  0.0023  0.0060  0.0147
 6469W        W23316   7.636   5.459  11.236  0.0298 -0.1164  0.1802
 6470W        W23317  12.313   9.539  12.136 -0.0038  0.1478  0.0045
 6471W        W23318  12.574   5.986  14.600  0.2073 -0.3307  0.0756
 6472W        W23319  14.074  12.148  14.177  0.2797 -0.1890  0.2532
 6473W        W23320   6.064   8.078  11.876  0.2888  0.0069 -0.0892
 6474W        W23321   6.534   0.402  11.650 -0.0731  0.0622 -0.2503
 6475W        W23322   4.557  10.147   4.900  0.1620  0.5012  0.2206
 6476W        W23323  14.918   0.755   0.119  0.1492 -0.0883  0.1419
 6477W        W23324   7.128   1.718   9.794  0.0220 -0.1198  0.0955
 6478W        W23325  14.474  15.650  14.329 -0.0555 -0.5347 -0.2008
 6479W        W23326  14.298   0.242  13.039 -0.0605  0.1032  0.0490
 6480W        W23327  19.570   3.576   8.946  0.1427 -0.0615 -0.1112
 6481W        W23328   6.734   3.895  10.906  0.2749 -0.0920  0.1993
 6482W        W23329   6.264   9.851  12.304 -0.2827  0.0668  0.2050
 6483W        W23330   2.035   0.087  14.248  0.0630  0.1257 -0.1187
 6484W        W23331  11.479   3.725   0.966  0.0162 -0.0333  0.1020
 6485W        W23332   1.831  13.656  14.081  0.3942  0.1829  0.1944
 6486W        W23333  19.480  16.350  11.051 -0.1124 -0.0714  0.2918
 6487W        W23334   5.821   6.229  10.477  0.3672 -0.3291  0.0560
 6488W        W23335  16.453  16.165   3.360  0.0144  0.1342 -0.3300
 6489W        W23336   8.128  12.087   4.042 -0.1412  0.3237 -0.0674
 6490W        W23337  14.274  14.893   3.133  0.0356  0.3667 -0.2152
 6491W        W23338  10.399  17.455   1.527  0.0132  0.2290  0.2391
 6492W        W23339   4.058   2.647   3.069 -0.1413  0.0847  0.1109
 6493W        W23340  12.365  10.740   2.171 -0.1115  0.1104  0.0238
 6494W        W23341  12.083   8.497   4.798  0.1364 -0.1338 -0.0236
 6495W        W23342  18.450   3.745  11.435  0.0991 -0.4843  0.4116
 6496W        W23343  14.594  10.760  14.368  0.0676 -0.0302  0.2303
 6497W        W23344  19.304  17.202  10.563 -0.0929  0.0063  0.7029
 6498W        W23345  10.271   7.392  13.047  0.1546  0.2428  0.1548
 6499W        W23346   1.944  13.633  11.095 -0.0264  0.2843  0.0533
 6500W        W23347  15.640  11.390  11.863  0.0134 -0.1691  0.2200
 6501W        W23348   3.475   6.150   1.233  0.1327 -0.0268  0.0832
 6502W        W23349   9.889  14.415  11.175  0.3114  0.1742 -0.2344
 6503W        W23350  11.379   6.978   1.061  0.0412 -0.4261  0.1066
 6504W        W23351   5.335  17.194   4.564  0.2642  0.1219 -0.0853
 6505W        W23352   1.827  16.315   3.823 -0.2633  0.0980  0.2989
 6506W        W23353  13.237  13.061  14.284 -0.0112  0.1602 -0.1319
 6507W        W23354   0.605   0.998   0.454  0.2363  0.3234 -0.2322
 6508W        W23355  19.503   1.976  12.831  0.1169 -0.1975  0.3472
 6509W        W23356  11.288   7.908  14.427 -0.2140  0.0255 -0.0527
 6510W        W23357  16.479   4.215   4.061  0.0845 -0.0626  0.0183
 6511W        W23358   7.260   3.862   0.465 -0.0833 -0.3967  0.0542
 6512W        W23359  14.621  11.936   5.191  0.0644 -0.4205 -0.2331
 6513W        W23360  19.069  18.203   1.517  0.1777  0.4308  0.0627
 6514W        W23361  12.534  14.234   0.688  0.0254 -0.1331 -0.0862
 6515W        W23362   7.066  18.385   1.464  0.0071 -0.0580  0.0876
 6516W        W23363   6.563  10.706   3.592 -0.1133 -0.0142 -0.0745
 6517W        W23364  10.450  10.427   4.071  0.1792 -0.1188  0.0217
 6518W        W23365   0.807  17.842  14.035 -0.0319 -0.0978 -0.2113
 6519W        W23366  14.487  12.073  14.427  0.0837 -0.1087 -0.0050
 6520W        W23367   5.015  10.765  12.435 -0.0487 -0.0863 -0.1372
 6521W        W23368   4.651  18.289   2.705  0.0790 -0.1141  0.0136
 6522W        W23369   9.800  11.109   3.543  0.2563 -0.2380  0.0284
 6523W        W23370  16.753   4.941  13.284  0.2552 -0.1348 -0.0885
 6524W        W23371  13.316   8.325   0.494  0.1860 -0.1430 -0.2263
 6525W        W23372   6.745  13.812   3.693  0.0949 -0.3746 -0.1157
 6526W        W23373   1.708   9.388   4.243  0.1696 -0.2206  0.3652
 6527W        W23374   5.081  14.178  12.200 -0.2064 -0.4239  0.0463
 6528W        W23375  18.501   5.123  12.058 -0.2163  0.1984 -0.1736
 6529W        W23376  13.190   8.903   3.403  0.1980 -0.2742  0.1834
 6530W        W23377   4.783  14.659  13.127  0.0609  0.2540 -0.1529
 6531W        W23378   7.609   2.907  11.346 -0.0626  0.0099 -0.0156
 6532W        W23379   4.292   4.748   4.291  0.4863 -0.0251  0.1326
 6533W        W23380  13.592  14.795  10.159  0.1917  0.0993 -0.2212
 6534W        W23381  15.077  15.393  14.095 -0.0163  0.0780  0.3501
 6535W        W23382  11.711  12.319  13.294  0.1060  0.0635  0.0441
 6536W        W23383   8.494  15.494  14.103  0.0568  0.1828 -0.3298
 6537W        W23384   8.301   9.941  13.275  0.0645 -0.0666 -0.2039
 6538W        W23385   9.139   9.478  11.784  0.2597 -0.1015  0.0441
 6539W        W23386   0.158  11.205  12.562  0.0293 -0.2380 -0.3640
 6540W        W23387   4.939   4.903  12.903  0.0390 -0.1339 -0.0962
 6541W        W23388   5.171   7.878  14.578  0.0514  0.2379 -0.2056
 6542W        W23389  19.227   2.194   2.418 -0.3456 -0.0870 -0.0996
 6543W        W23390   5.798   9.688  12.240 -0.0609  0.3299 -0.1417
 6544W        W23391   1.681  11.337  13.925  0.0349  0.1990 -0.2779
 6545W        W23392  11.687   7.426   1.133 -0.1581  0.4216  0.0772
 6546W        W23393  17.540   4.345  11.723 -0.2074 -0.2647 -0.2877
 6547W        W23394  16.685   3.071   1.693 -0.1516  0.2336 -0.1283
 6548W        W23395  15.883  14.095   1.677 -0.0776  0.1252 -0.2190
 6549W        W23396  16.937   9.310  11.843  0.0540 -0.2370  0.1167
 6550W        W23397  16.765   8.630  12.372 -0.0931  0.0335 -0.0764
 6551W        W23398  12.183  19.100   0.794  0.2938  0.2197  0.0930
 6552W        W23399   8.862   3.405   1.837  0.3080 -0.4613  0.2940
 6553W        W23400  17.886   6.540  12.950 -0.3784 -0.3622 -0.0336
 6554W        W23401  15.812   1.221   2.620 -0.0808  0.0363  0.2564
 6555W        W23402  19.327   3.880  11.071 -0.1958 -0.2129  0.0556
 6556W        W23403  15.403  14.336   2.307 -0.2123 -0.0222 -0.0761
 6557W        W23404   7.338  15.259  10.983  0.1162  0.0071  0.1351
 6558W        W23405   1.137   7.118  12.932  0.2020 -0.2988 -0.0997
 6559W        W23406  15.406   0.346  10.978  0.0624 -0.2355 -0.0131
 6560W        W23407  19.599   6.704   0.568 -0.0972  0.1229  0.2859
 6561W        W23408  12.640  14.798   1.930  0.0371  0.1332  0.0784
 6562W        W23409   6.896  15.866  11.959 -0.3234 -0.3363  0.0887
 6563W        W23410  12.385  17.306  11.854 -0.1256 -0.1630 -0.0250
 6564W        W23411   3.126   7.658   2.866  0.2718  0.4281  0.3582
 6565W        W23412   9.123  18.212  14.200 -0.0524 -0.2916  0.0612
 6566W        W23413   2.801   2.086   3.368  0.2185 -0.0954 -0.1238
 6567W        W23414   3.613  19.429   0.848  0.0020  0.1003 -0.1870
 6568W        W23415  15.931   5.256  13.546  0.1857 -0.0408 -0.0368
 6569W        W23416   6.573  19.193   9.856  0.0095  0.0175  0.2937
 6570W        W23417  11.963  14.808   1.165 -0.1078 -0.1508 -0.1548
 6571W        W23418  16.184   4.226   2.674  0.3106 -0.3786  0.3719
 6572W        W23419   3.136   9.618   4.875 -0.0431 -0.0996 -0.0466
 6573W        W23420   2.926   2.294  10.954  0.1496 -0.0338  0.2318
 6574W        W23421   3.835  10.180  13.255 -0.1041 -0.0974  0.0911
 6575W        W23422  12.570  13.732  12.560 -0.0010 -0.1217  0.2962
 6576W        W23423  10.893   9.022   2.068  0.2236  0.1727 -0.0321
 6577W        W23424   4.092   5.988   4.240  0.2271 -0.1699 -0.2889
 6578W        W23425   0.657   0.288   0.444 -0.0705  0.1038 -0.0525
 6579W        W23426   3.309  11.285  12.778  0.2060 -0.3779  0.0847
 6580W        W23427   0.211  14.460   4.195 -0.1148 -0.2418  0.2725
 6581W        W23428  17.474  12.531   3.394  0.1263 -0.0214 -0.1551
 6582W        W23429  18.777  10.362   4.976 -0.1923 -0.3408 -0.0628
 6583W        W23430   2.633  10.574  11.668 -0.2313  0.3239  0.3941
 6584W        W23431  10.673  17.639   2.329 -0.1253  0.1453 -0.1184
 6585W        W23432  13.695   4.649   2.433 -0.0806 -0.1197 -0.0527
 6586W        W23433   2.419   9.785   3.075  0.1549  0.0189  0.3330
 6587W        W23434  18.967  17.642   2.711 -0.0590 -0.0327 -0.0885
 6588W        W23435   3.757   0.706  11.068  0.0014 -0.0892  0.1467
 6589W        W23436   8.707  18.687   3.716  0.0455  0.0415  0.4212
 6590W        W23437  13.275   7.907  10.403  0.2764 -0.1925  0.1227
 6591W        W23438  16.617  13.751  10.228  0.0574 -0.0053  0.1693
 6592W        W23439   5.454   5.271   1.140 -0.0644  0.0097  0.0687
 6593W        W23440  11.577  17.314  13.632  0.1081  0.2676  0.0735
 6594W        W23441  13.609   8.925  14.183  0.1244  0.0609 -0.0592
 6595W        W23442   7.057  13.934  10.510 -0.2115  0.1437 -0.0530
 6596W        W23443   3.139  12.994   2.163 -0.0240  0.1565 -0.3281
 6597W        W23444  13.620  12.863  10.426  0.0124 -0.0797  0.4887
 6598W        W23445   2.015   0.855   1.410  0.0635 -0.0303  0.1560
 6599W        W23446  13.517   1.652  13.458  0.1655 -0.2194 -0.2016
 6600W        W23447  12.728   4.408   4.306 -0.0854  0.1729  0.2934
 6601W        W23448  10.811   0.117   2.886 -0.0260  0.1250  0.1197
 6602W        W23449   8.643   3.321   1.102 -0.1300  0.1801 -0.3049
 6603W        W23450   1.103  16.457  10.552  0.1723 -0.0682  0.0809
 6604W        W23451   6.136  10.522   3.036 -0.0908  0.2248 -0.2204
 6605W        W23452   1.781   8.610  11.076 -0.0439  0.0537 -0.0448
 6606W        W23453  13.816   7.893  11.812  0.2590  0.3370 -0.0117
 6607W        W23454  18.518  13.879  10.839 -0.0922  0.0618  0.1638
 6608W        W23455  10.044  10.694   0.842  0.0807 -0.1975  0.2790
 6609W        W23456  17.725   3.103   2.696 -0.0022 -0.0254 -0.2593
 6610W        W23457   8.622  11.771   0.457  0.0460  0.0320  0.1900
 6611W        W23458  18.198   7.075  14.219  0.1462 -0.1414  0.1862
 6612W        W23459  19.630  13.936  11.691  0.1815 -0.1484  0.0179
 6613W        W23460   3.952   8.172   2.925 -0.0766  0.1905  0.1357
 6614W        W23461  19.158   4.109  14.290  0.1587  0.0849 -0.2363
 6615W        W23462   0.694   7.949   1.616 -0.4115 -0.0687 -0.2415
 6616W        W23463   7.571   1.368  13.226  0.2396 -0.1912 -0.2804
 6617W        W23464  11.657   5.420  10.569  0.0278 -0.1957  0.0247
 6618W        W23465  18.517   9.366  13.507 -0.0657  0.0802  0.1409
 6619W        W23466  13.830  18.188   0.489 -0.1075  0.4346  0.0094
 6620W        W23467  10.548  17.726  13.042  0.2846 -0.2637 -0.0886
 6621W        W23468  13.020  12.829   4.206  0.1735  0.0243  0.1248
 6622W        W23469   1.468   3.835   2.877 -0.3693  0.2124  0.0531
 6623W        W23470  16.888  15.300  13.750 -0.2669 -0.3639  0.3196
 6624W        W23471   9.768   9.303   4.503  0.1641 -0.0913  0.0989
 6625W        W23472  10.305  16.732  12.839  0.1645 -0.2894 -0.1428
 6626W        W23473   5.417  12.412  13.236  0.1604  0.1171 -0.0942
 6627W        W23474   5.163   9.621  13.079 -0.1195 -0.0098 -0.1944
 6628W        W23475  15.531  10.841   0.932 -0.3748 -0.1120 -0.2445
 6629W        W23476  13.398  16.659  11.167  0.0064 -0.3635 -0.1600
 6630W        W23477   7.923  15.578  12.556 -0.3177  0.5903 -0.0851
 6631W        W23478  11.750   0.465   0.938 -0.0769  0.0252  0.2541
 6632W        W23479   1.675   7.869  10.471  0.0333  0.1036  0.3077
 6633W        W23480   1.255  11.022  13.856  0.0762  0.0123 -0.2914
 6634W        W23481  10.803  17.902   0.768  0.6083 -0.1304 -0.1258
 6635W        W23482   8.376   3.105   2.427 -0.2698  0.1064 -0.2869
 6636W        W23483   3.948   6.028   2.512 -0.2220 -0.0880  0.0980
 6637W        W23484   3.975  19.056   1.570 -0.1186 -0.1582 -0.0363
 6638W        W23485   4.782  11.948   3.034  0.0017 -0.0438  0.0878
 6639W        W23486   1.737  18.533  10.656 -0.2625 -0.1044 -0.1761
 6640W        W23487   2.807   3.901   3.325 -0.0690 -0.0705 -0.3481
 6641W        W23488  15.081  17.085  11.708 -0.0846  0.2851  0.0052
 6642W        W23489   1.603  11.766  14.251 -0.3313 -0.0845  0.0488
 6643W        W23490  12.325  13.610  14.359 -0.1378  0.3782 -0.0816
 6644W        W23491  19.153  14.522  10.895 -0.2565  0.2757 -0.0615
 6645W        W23492  19.493  10.977   2.895  0.0953 -0.2141 -0.3615
 6646W        W23493  17.950   1.262  10.622  0.1190 -0.1872  0.0665
 6647W        W23494  11.247  13.318   3.118 -0.0724 -0.5433  0.1398
 6648W        W23495   5.207  13.470  13.465  0.0263  0.2858  0.1306
 6649W        W23496   6.741  14.282  14.513 -0.0285  0.1880  0.2222
 6650W        W23497  18.589   2.619  12.116  0.1068 -0.0947 -0.0156
 6651W        W23498  17.562  13.689   3.780  0.3785 -0.1255 -0.0550
 6652W        W23499   9.189   1.311   1.463  0.2463 -0.1387 -0.2313
 6653W        W23500   0.028  16.203  12.937 -0.1966  0.2318  0.0773
 6654W        W23501   2.484  11.501  12.749 -0.1644  0.2670  0.3030
 6655W        W23502   0.862  16.864   4.563 -0.2055 -0.2169 -0.0431
 6656W        W23503  15.987   3.753   3.767 -0.0423 -0.3565 -0.1925
 6657W        W23504   1.592  18.335   4.324  0.0092  0.1215  0.2439
 6658W        W23505  13.090  14.974  12.181 -0.1511  0.2076  0.0229
 6659W        W23506   8.209  19.555   0.287  0.0426 -0.1376 -0.2133
 6660W        W23507  16.519   7.271   3.481  0.2015  0.0675 -0.0873
 6661W        W23508  12.761  17.049  11.018  0.1823  0.1290  0.0077
 6662W        W23509  17.762   5.414  10.863 -0.2336  0.3130  0.0041
 6663W        W23510   4.953  13.731   2.904  0.2820 -0.3030  0.1219
 6664W        W23511  17.639   7.067   1.419  0.2910 -0.0503 -0.0486
 6665W        W23512   3.958   4.413  14.162  0.2667  0.2370 -0.2323
 6666W        W23513  19.362  18.375   0.473  0.0963 -0.2159 -0.0071
 6667W        W23514  10.271  18.979  13.330  0.1938  0.0765 -0.0201
 6668W        W23515  19.632  19.420  10.638  0.1504 -0.0644 -0.2989
 6669W        W23516   6.090   1.637   9.653  0.2091 -0.2450  0.2247
 6670W        W23517  18.644  12.196  11.824 -0.3864  0.1480  0.0411
 6671W        W23518  17.976  19.400   2.858  0.0151 -0.3736 -0.0665
 6672W        W23519  11.060   8.820   1.597 -0.1365 -0.1295  0.0893
 6673W        W23520   7.117   4.935   3.816  0.1168  0.0014 -0.1609
 6674W        W23521  15.174  16.207   0.873  0.1262  0.1764 -0.2111
 6675W        W23522   9.409   5.278   0.668  0.1004 -0.1599  0.1072
 6676W        W23523   6.408  11.081   5.177  0.0944  0.2302 -0.1044
 6677W        W23524   7.143  10.411  12.338  0.0710 -0.0789  0.0241
 6678W        W23525   6.596   8.874  14.568  0.3358 -0.4509 -0.2239
 6679W        W23526  17.511  17.005  10.610  0.1841  0.5299  0.1264
 6680W        W23527   7.929  14.342  12.012 -0.1133  0.1766  0.2114
 6681W        W23528   2.269  17.471   0.480 -0.3139  0.2980 -0.0115
 6682W        W23529  19.165   2.903  13.204  0.1499  0.0826  0.1196
 6683W        W23530   6.828   4.652   4.626  0.0382  0.0207 -0.1021
 6684W        W23531   6.806  17.126   0.334  0.1237 -0.1243 -0.2204
 6685W        W23532  18.353  13.366  10.676 -0.4299 -0.3006  0.1669
 6686W        W23533   4.884   6.041   0.907 -0.2189 -0.0018  0.0551
 6687W        W23534  17.522   1.650  10.823 -0.3352  0.0518  0.1480
 6688W        W23535   0.837   6.496  10.657 -0.0975 -0.0397 -0.4694
 6689W        W23536   8.238   2.894  13.569  0.1942  0.1063  0.0156
 6690W        W23537   9.023   0.184   4.052  0.1819  0.3510 -0.1551
 6691W        W23538  18.221   6.371  13.391  0.1021  0.1468  0.2905
 6692W        W23539   2.037   4.969  13.344  0.0749 -0.1341 -0.0236
 6693W        W23540  13.324  10.521   3.823  0.1700  0.0704 -0.0156
 6694W        W23541   1.856   5.052  12.463 -0.2008 -0.2739 -0.0071
 6695W        W23542   5.296  11.515   3.715  0.0850 -0.2158  0.3128
 6696W        W23543   9.036   7.072   2.724 -0.2858 -0.0583 -0.0093
 6697W        W23544  10.728  10.620   4.995 -0.2211  0.2165 -0.0638
 6698W        W23545   0.622   7.426   1.223  0.0898 -0.2157  0.2480
 6699W        W23546   0.314  18.622  12.284 -0.3382 -0.2033  0.2158
 6700W        W23547  12.018   3.043  14.507  0.1289  0.0038  0.0240
 6701W        W23548  12.640  17.337  13.318  0.0401 -0.0109  0.1155
 6702W        W23549   6.512   5.383  13.086 -0.0538  0.1687 -0.3080
 6703W        W23550  15.739  17.244  12.836 -0.4608  0.0479  0.2495
 6704W        W23551  13.063   2.322   3.839  0.0568  0.0280  0.0572
 6705W        W23552  10.608  17.746  13.560 -0.0490  0.0646 -0.1354
 6706W        W23553   1.133  13.685   3.283 -0.1132  0.1846  0.0996
 6707W        W23554   6.953  14.902   4.212  0.0047  0.1738 -0.2655
 6708W        W23555  16.813  17.613  11.046  0.0294  0.2857 -0.0592
 6709W        W23556   0.017  14.120   4.659  0.2573  0.2884 -0.0439
 6710W        W23557  19.317  10.060  12.163  0.2871 -0.2024 -0.3098
 6711W        W23558   0.721  11.235   5.028 -0.0237  0.0019 -0.0782
 6712W        W23559   2.115   2.760  12.596 -0.1468  0.0880 -0.3925
 6713W        W23560   4.027  16.869   0.305 -0.0689  0.0016  0.2623
 6714W        W23561   4.195  12.080  12.439  0.0191  0.0401 -0.0978
 6715W        W23562  18.429  11.071   2.018 -0.0312  0.1114  0.1686
 6716W        W23563  12.557   3.850   0.835  0.0135  0.2381 -0.2283
 6717W        W23564   7.041   6.937  13.868  0.0222 -0.0109 -0.0557
 6718W        W23565   3.413   7.696   1.335 -0.3030 -0.1746  0.3090
 6719W        W23566  11.357   7.799  12.109  0.2339  0.3497  0.3684
 6720W        W23567  16.181  13.109   3.653  0.1528  0.2666 -0.1655
 6721W        W23568   7.133   5.923   0.890 -0.0276  0.2466 -0.2462
 6722W        W23569   6.110  13.032   0.060 -0.0995 -0.0827 -0.1141
 6723W        W23570   3.005  17.693   4.756  0.0865 -0.0569 -0.2578
 6724W        W23571  14.186   0.653  13.445  0.0506  0.3045 -0.1442
 6725W        W23572   0.865  18.361   2.778  0.0880 -0.0714 -0.0503
 6726W        W23573   6.098  11.417   3.443  0.0500 -0.0319 -0.0969
 6727W        W23574   8.315   9.324   2.255  0.3549  0.0297 -0.1592
 6728W        W23575   0.249   1.148  12.645 -0.0131  0.1436  0.2686
 6729W        W23576   9.211   8.480  12.626 -0.1796  0.1239  0.1274
 6730W        W23577   6.837  18.800  13.526 -0.1709  0.1893  0.0540
 6731W        W23578  19.209  18.673   2.697  0.1531 -0.2218  0.3635
 6732W        W23579   1.554  16.040   9.740 -0.1420 -0.0963  0.0323
 6733W        W23580  19.563  15.243   0.013 -0.2528  0.0888  0.0191
 6734W        W23581   1.090   3.922   2.421  0.3819 -0.0016 -0.0549
 6735W        W23582  16.225   5.624  13.736  0.0501 -0.0113 -0.1763
 6736W        W23583   0.700   1.317  13.415  0.0460 -0.2474  0.1178
 6737W        W23584   2.136   5.540  12.015 -0.2766  0.0369 -0.1074
 6738W        W23585   4.043  16.261  11.825 -0.0676 -0.0636 -0.1060
 6739W        W23586  11.007   6.148   2.043  0.1190  0.0364 -0.0604
 6740W        W23587   7.681   8.959  10.481  0.0772 -0.0048 -0.0265
 6741W        W23588  12.358  13.539   0.234 -0.2850 -0.1485  0.2638
 6742W        W23589  18.527   2.660  11.602  0.4420  0.1880 -0.2541
 6743W        W23590  16.840  10.874  12.002  0.0921 -0.1582  0.0351
 6744W        W23591   7.463  16.128  11.325  0.3715  0.3072  0.0474
 6745W        W23592  13.211   7.338  14.224  0.0819  0.0332  0.4126
 6746W        W23593   2.426  13.392   0.210 -0.0632 -0.0449 -0.0099
 6747W        W23594   8.806   4.720   0.920 -0.0855  0.0327 -0.0996
 6748W        W23595   9.937   6.917   0.190  0.0458  0.0186 -0.3360
 6749W        W23596  19.406  12.939   0.680 -0.0970  0.3041  0.0452
 6750W        W23597   0.116   3.205  11.840  0.0817 -0.0226 -0.2108
 6751W        W23598   9.672   5.882  11.033 -0.1432  0.1903 -0.0734
 6752W        W23599   6.968  14.819  10.366  0.0934  0.1766  0.1957
 6753W        W23600   1.807  14.233  11.749 -0.0420  0.2677 -0.2503
 6754W        W23601  14.000   7.197  13.916 -0.1915  0.0425  0.3880
 6755W        W23602  18.693   2.187   2.386 -0.0371 -0.3238 -0.0467
 6756W        W23603  14.301   5.299  12.659 -0.3056 -0.1748 -0.0414
 6757W        W23604  16.148  10.616   2.133 -0.1678 -0.1191 -0.0945
 6758W        W23605   2.359   2.311  12.440  0.0809  0.2129 -0.1604
 6759W        W23606  18.546   9.983   4.649 -0.0043 -0.3099  0.1569
 6760W        W23607   6.310   7.317   9.598 -0.0483  0.1421  0.0432
 6761W        W23608   3.555   8.735  13.128 -0.0543 -0.1448 -0.1856
 6762W        W23609  17.901   8.768   2.518  0.0915  0.0881 -0.2728
 6763W        W23610   0.360   6.163  12.619 -0.3215 -0.2249  0.1691
 6764W        W23611  10.458   1.835   1.053  0.4412  0.1355 -0.0751
 6765W        W23612  18.689   1.974   0.122 -0.0455  0.0554 -0.0775
 6766W        W23613   0.776   7.523  12.450  0.3358 -0.0455  0.1722
 6767W        W23614  13.377   0.475  11.496  0.5314 -0.5571 -0.1167
 6768W        W23615   7.628  11.482  13.083  0.1739  0.1957  0.0681
 6769W        W23616   1.638   6.006   3.703 -0.3800 -0.0553 -0.2899
 6770W        W23617   6.837   0.479  11.174 -0.0089 -0.0329  0.0325
 6771W        W23618  17.401  14.255  10.091 -0.0904  0.3918  0.4331
 6772W        W23619   2.740   0.779   2.071  0.1463  0.2024 -0.1118
 6773W        W23620  13.648   2.557  13.849  0.1093 -0.1572  0.2539
 6774W        W23621  12.040  18.213  14.134 -0.2575 -0.1904 -0.1792
 6775W        W23622   3.555  12.352  13.144  0.0178 -0.0563  0.0694
 6776W        W23623   7.113   0.688   4.036  0.3636 -0.2105 -0.1146
 6777W        W23624  15.530  16.724   3.078  0.0227  0.1092  0.0339
 6778W        W23625   9.746  17.414   4.044  0.1616  0.0590 -0.0307
 6779W        W23626   7.143   6.762  12.474  0.1851 -0.2305  0.2506
 6780W        W23627  11.822   7.996   1.172 -0.0687 -0.1094  0.0690
 6781W        W23628  19.161   9.655   3.722 -0.0207 -0.2052  0.3126
 6782W        W23629   3.135   7.253   2.196 -0.1332  0.1730  0.1838
 6783W        W23630  11.177   7.711   9.841  0.1483 -0.1675 -0.4416
 6784W        W23631  15.933  11.167  10.998 -0.2282 -0.0183  0.1132
 6785W        W23632   5.717   3.415  10.705 -0.2489 -0.0988  0.1490
 6786W        W23633  17.748  13.700  11.134 -0.0978  0.0610  0.0510
 6787W        W23634   3.564  10.685  14.606 -0.0079  0.2191 -0.0223
 6788W        W23635  13.133   8.610  13.000  0.0127  0.2058 -0.0289
 6789W        W23636   8.784  17.246  11.913 -0.0283  0.2196 -0.2249
 6790W        W23637  16.467   1.960  13.999  0.4259  0.3726  0.2004
 6791W        W23638   1.533   7.592   1.341  0.1214  0.0693  0.0528
 6792W        W23639  12.768   3.605   3.857  0.3064  0.0362  0.0893
 6793W        W23640  16.371  19.327   4.282  0.0483 -0.1152 -0.2200
 6794W        W23641  14.859  13.276   3.460  0.1168 -0.2432 -0.2958
 6795W        W23642   5.168  18.251  14.197  0.1045 -0.1592  0.2500
 6796W        W23643  14.010   4.114  11.467 -0.1035  0.1442 -0.2886
 6797W        W23644   0.787   0.228  10.620  0.1339 -0.2495  0.0772
 6798W        W23645   9.339   3.411   9.803  0.1539 -0.0643 -0.1296
 6799W        W23646  13.899  18.942  11.082  0.1224 -0.0802  0.3036
 6800W        W23647  12.151   2.070   2.494 -0.0993 -0.1566 -0.1279
 6801W        W23648   2.752  15.963  12.700  0.2665 -0.1468 -0.1080
 6802W        W23649  12.103  13.825   2.646  0.0689 -0.1556  0.0075
 6803W        W23650   8.439   4.859  13.148  0.2206  0.2477 -0.1233
 6804W        W23651   7.512  19.488   2.193  0.1231 -0.1065  0.4909
 6805W        W23652  19.222  17.595   0.808 -0.0391 -0.1688 -0.4475
 6806W        W23653  13.187  11.010   1.285 -0.1979  0.2593 -0.3687
 6807W        W23654  13.319  14.594  10.619 -0.1100  0.0612 -0.3380
 6808W        W23655   8.573   5.488  10.952 -0.1224  0.0146  0.0282
 6809W        W23656   5.142   8.068   3.067  0.1874  0.3312 -0.0096
 6810W        W23657  11.748   1.430  13.665 -0.0272 -0.0986  0.0995
 6811W        W23658   0.970  18.403  11.781  0.0560 -0.0343  0.1944
 6812W        W23659   8.998  15.456   3.509 -0.0303 -0.2029  0.0468
 6813W        W23660   9.469  12.655   4.160  0.1535 -0.2238 -0.3087
 6814W        W23661   0.651   4.017   4.261 -0.2851 -0.0475  0.0688
 6815W        W23662  12.083  15.601  13.321 -0.0431 -0.0790  0.1628
 6816W        W23663  17.735   5.578  12.924 -0.0416  0.0693  0.1253
 6817W        W23664   5.105  10.076  14.613  0.0797  0.1525  0.0335
 6818W        W23665  16.551  16.646  13.379  0.0857  0.2107 -0.1804
 6819W        W23666  11.940  18.548   2.151 -0.0180  0.1473 -0.1622
 6820W        W23667   2.759   4.998  10.867 -0.2832  0.2292 -0.1389
 6821W        W23668   7.960  18.829  10.548 -0.0803  0.0575  0.1836
 6822W        W23669   5.100   6.337   5.031  0.0264 -0.0680 -0.0617
 6823W        W23670   9.913   4.416  11.571 -0.0786  0.5762 -0.1315
 6824W        W23671   9.042   1.531   3.914  0.1422  0.0861  0.0266
 6825W        W23672  18.718   8.774  13.251 -0.0415 -0.2195  0.3027
 6826W        W23673   6.566  10.863  13.584 -0.1844 -0.1779 -0.0129
 6827W        W23674  10.808   3.604   2.819  0.0379  0.2899  0.2156
 6828W        W23675  11.327  18.709   0.581  0.0385  0.1252 -0.0593
 6829W        W23676   8.638  16.565   0.210 -0.1443  0.0584  0.1944
 6830W        W23677   2.914  10.129   0.734 -0.0022  0.1643  0.0909
 6831W        W23678   6.550  18.514   2.546 -0.1271  0.2263  0.2552
 6832W        W23679  17.025  14.649   5.285 -0.2443  0.2070  0.1675
 6833W        W23680   1.257   8.467  10.995 -0.0383  0.0589 -0.1012
 6834W        W23681  10.421   3.204   0.555  0.0540 -0.2958  0.1284
 6835W        W23682   0.453  12.935   3.273  0.0313  0.1395  0.0761
 6836W        W23683   3.616   6.398   3.781 -0.0919  0.1625  0.1881
 6837W        W23684   4.986   6.908  11.810 -0.0548  0.0267  0.2002
 6838W        W23685  18.286  18.763  13.973 -0.0513  0.0509  0.0293
 6839W        W23686   9.498   1.484   3.273  0.0868 -0.1786  0.2065
 6840W        W23687  18.542  17.575   2.381 -0.0134  0.0665 -0.2663
 6841W        W23688   4.868   7.451   2.959  0.0048  0.2033  0.2446
 6842W        W23689  13.367  10.795   1.819 -0.1933  0.0233  0.0324
 6843W        W23690   1.915  12.730   1.821 -0.0075  0.2709 -0.0072
 6844W        W23691  15.017   8.074   5.228 -0.0217 -0.1916  0.2980
 6845W        W23692   2.071  18.079   4.312 -0.0498  0.1039  0.4209
 6846W        W23693  17.330   9.921   4.180  0.1722  0.0004 -0.2080
 6847W        W23694  13.469  11.103   4.638 -0.2862  0.1192  0.0366
 6848W        W23695  15.122  14.680  10.682 -0.4834 -0.2746 -0.0295
 6849W        W23696  10.379  19.531   1.007 -0.3258 -0.1494  0.0325
 6850W        W23697  15.347   2.594   4.403 -0.0298  0.2353  0.3430
 6851W        W23698   6.085  10.913  10.919  0.0450 -0.1626 -0.1520
 6852W        W23699  17.583   0.005   2.009 -0.2117  0.3657 -0.2030
 6853W        W23700  11.860  11.847   4.811  0.0824  0.0670 -0.0901
 6854W        W23701  13.699  18.799  12.139  0.1837  0.1071 -0.0031
 6855W        W23702   7.770   3.381   5.116  0.0261  0.0244  0.2939
 6856W        W23703  17.896   9.021  12.744  0.4628 -0.2185  0.0108
 6857W        W23704  19.033   6.705   1.338 -0.3302 -0.2891 -0.1968
 6858W        W23705   3.815  11.197   1.674  0.0662 -0.0713 -0.0987
 6859W        W23706  16.622   4.041   1.330  0.2725 -0.3485 -0.1049
 6860W        W23707  18.694  18.967   2.013  0.0054 -0.2520  0.2611
 6861W        W23708  18.572  16.588  13.872  0.0727 -0.1549 -0.3626
 6862W        W23709   6.479  11.021   1.091  0.0088 -0.0372 -0.2691
 6863W        W23710  11.006   2.874  13.502  0.5535 -0.1460  0.0954
 6864W        W23711  12.362  16.641   1.963  0.1259  0.1730 -0.0737
 6865W        W23712   1.366   5.925   4.161 -0.0365  0.0372  0.1543
 6866W        W23713   8.862  18.648  12.679  0.1930 -0.1794 -0.0629
 6867W        W23714   6.269   7.442   4.738  0.2962 -0.1527  0.0345
 6868W        W23715   3.301  15.341   3.858 -0.3729  0.3231  0.0609
 6869W        W23716   6.172   1.945   3.062 -0.2084  0.1142  0.2179
 6870W        W23717   5.779   7.781   4.009  0.0236 -0.1510 -0.2190
 6871W        W23718   1.735   0.284  13.425  0.2333  0.1781 -0.1987
 6872W        W23719   3.269   2.341   4.937  0.0943  0.0038  0.3253
 6873W        W23720  15.577   8.450  11.243  0.0006  0.0856 -0.2939
 6874W        W23721  14.484  11.851  12.816 -0.1490 -0.2533  0.2371
 6875W        W23722  11.362   7.288   2.088 -0.0786  0.0691 -0.1554
 6876W        W23723   8.964   3.455   3.170  0.1610  0.0706  0.1368
 6877W        W23724  19.384  18.682   2.205 -0.0826 -0.0993 -0.1046
 6878W        W23725   1.425   7.092   0.762  0.0251 -0.3531  0.3095
 6879W        W23726  19.276   0.153  13.996 -0.0363  0.1411  0.0312
 6880W        W23727   3.927   3.393   1.841 -0.3498  0.2157 -0.0978
 6881W        W23728  17.040  17.307  11.465  0.2644  0.4504  0.2360
 6882W        W23729  10.308   0.232  14.110 -0.1039  0.2688  0.3028
 6883W        W23730  13.888   8.055   1.555 -0.1092 -0.1949  0.1740
 6884W        W23731   7.662  13.375  11.969 -0.3726 -0.2297  0.0410
 6885W        W23732   1.430   3.859  14.541 -0.2048 -0.1969 -0.1458
 6886W        W23733   8.808   0.122   2.338  0.1433 -0.2017 -0.2565
 6887W        W23734   8.573  13.655   3.402 -0.1422  0.0543  0.1911
 6888W        W23735  11.017   0.645  10.307  0.0270 -0.2554  0.1644
 6889W        W23736  11.150   6.087  11.660  0.1199  0.1343  0.0810
 6890W        W23737   7.827   1.797  12.464 -0.1213  0.0412  0.1078
 6891W        W23738  16.204   5.419  11.844 -0.1012 -0.5207 -0.0660
 6892W        W23739   6.360  13.614   1.063 -0.2095 -0.0858  0.0067
 6893W        W23740   7.953  11.890  11.683  0.0674 -0.1726  0.1322
 6894W        W23741  17.826   6.576  13.717 -0.0101 -0.0988  0.0955
 6895W        W23742  16.657  17.510   2.019 -0.2948  0.1044  0.1084
 6896W        W23743   1.954   6.285   3.371  0.2966 -0.3037 -0.0702
 6897W        W23744  14.553  12.991   4.492 -0.0365 -0.3631 -0.1369
 6898W        W23745  15.103  16.969   3.759  0.2776  0.1572  0.3820
 6899W        W23746   7.799   8.861   2.949  0.3940 -0.0189 -0.3930
 6900W        W23747   0.022   1.199  11.606  0.0568 -0.1451  0.0655
 6901W        W23748  12.386  16.427  13.011  0.1426 -0.1912 -0.2176
 6902W        W23749   7.549   7.027   4.223 -0.0684 -0.2316 -0.0877
 6903W        W23750  15.658   3.978   1.545  0.1018 -0.2025 -0.0267
 6904W        W23751   6.880  14.439   0.362 -0.2381 -0.1591  0.0265
 6905W        W23752  13.141   2.954   0.286  0.1584  0.1213  0.0288
 6906W        W23753  12.112  10.963   1.352  0.2367  0.1620  0.0832
 6907W        W23754   4.877  11.091   3.650  0.0468  0.2329 -0.0372
 6908W        W23755   1.619  15.038   1.409 -0.3496  0.2870 -0.1444
 6909W        W23756   1.472   3.550  10.717 -0.0435 -0.4723 -0.2752
 6910W        W23757   7.637   4.167  12.316 -0.3630  0.4304  0.2142
 6911W        W23758  12.260  16.418  11.692  0.0087 -0.0642 -0.2244
 6912W        W23759   3.650  13.305  12.358 -0.4827  0.3479 -0.2952
 6913W        W23760  13.284   8.402  13.460 -0.1645  0.1163  0.0755
 6914W        W23761   8.346   7.294   4.623 -0.1227  0.1292 -0.1034
 6915W        W23762  11.640  14.672   1.543  0.0646  0.1646 -0.1036
 6916W        W23763   4.022  19.046   9.654  0.2361  0.1531 -0.3626
 6917W        W23764  13.128   3.362  12.811 -0.2901 -0.1579  0.0289
 6918W        W23765   2.434  13.682  14.199 -0.2203  0.0001  0.0189
 6919W        W23766  16.894  15.586   2.151 -0.2378 -0.0237 -0.2276
 6920W        W23767  10.575  10.542   1.643 -0.1515  0.1111 -0.0203
 6921W        W23768  18.168   4.967   0.350  0.0015 -0.0462  0.2833
 6922W        W23769  12.165  16.167  12.118 -0.6247  0.1690 -0.0737
 6923W        W23770   4.658   8.131   4.241 -0.1189  0.3791 -0.1167
 6924W        W23771   4.809   0.861  14.539  0.1068 -0.3682 -0.1614
 6925W        W23772   9.997  16.233   0.238 -0.0051  0.0011 -0.0234
 6926W        W23773   1.011   8.307  13.690 -0.1278  0.0342  0.1382
 6927W        W23774  17.589  12.556  13.691  0.1329 -0.1280 -0.4007
 6928W        W23775  15.992  11.455  13.468  0.0724 -0.0506  0.1653
 6929W        W23776  15.533   5.937  11.434 -0.2199 -0.2907  0.1547
 6930W        W23777   4.391   4.273   1.986 -0.0635 -0.0536 -0.0095
 6931W        W23778  16.291   8.048  12.348  0.1776 -0.1282  0.0705
 6932W        W23779   8.968   5.190   4.606 -0.1514 -0.0608  0.1086
 6933W        W23780   0.561   2.937   0.876  0.0383 -0.3567 -0.1190
 6934W        W23781  12.288  14.072  11.364 -0.0707 -0.0931  0.0641
 6935W        W23782  16.044   2.088   1.323 -0.0417  0.2284 -0.0123
 6936W        W23783  10.331  13.983  10.800  0.1992 -0.2169  0.0174
 6937W        W23784   9.927  19.419   1.048  0.1604 -0.0521 -0.0834
 6938W        W23785  13.768  16.396   0.540  0.3763  0.1494  0.0232
 6939W        W23786  16.228  16.741  10.949 -0.2948 -0.2646  0.0676
 6940W        W23787   5.055  17.274   1.661 -0.0526 -0.1744  0.4303
 6941W        W23788  17.759  13.751   3.281 -0.0904  0.0466 -0.0771
 6942W        W23789  13.057   6.203   1.217  0.2334 -0.4775 -0.1330
 6943W        W23790  13.412   9.641   0.340  0.0680 -0.1799 -0.2692
 6944W        W23791   6.611   0.519   3.137  0.1768  0.3104  0.2126
 6945W        W23792  18.733   3.114   2.228  0.0115  0.0153 -0.0236
 6946W        W23793   5.414   9.554  13.822 -0.1537 -0.1745 -0.4128
 6947W        W23794  11.274   7.371   0.729  0.0449 -0.1400  0.1690
 6948W        W23795   0.769  13.579   4.181 -0.0321 -0.0178  0.3097
 6949W        W23796   7.675  16.933  11.947  0.0726 -0.0996 -0.2068
 6950W        W23797  13.340   7.115  13.369 -0.2585 -0.1499 -0.0020
 6951W        W23798   0.855   4.022   3.794  0.2906  0.0046  0.0950
 6952W        W23799   4.065   7.868   3.375  0.3350 -0.2730 -0.0650
 6953W        W23800   3.271   5.415  13.668 -0.0947 -0.1526  0.0143
 6954W        W23801   6.526   4.043  14.340 -0.2958  0.0702  0.0755
 6955W        W23802   0.602  17.098   0.306 -0.1794  0.2729  0.1164
 6956W        W23803   9.982   7.644   3.619 -0.3288  0.4389 -0.1835
 6957W        W23804   4.705   2.721   0.225 -0.2163 -0.2107  0.0642
 6958W        W23805   1.499  12.069   5.275  0.0764  0.1810  0.0780
 6959W        W23806   8.392   0.763   1.940 -0.1024 -0.2441  0.1366
 6960W        W23807  11.364   6.664   2.627  0.3475  0.2681  0.1692
 6961W        W23808   5.780  15.771  10.962 -0.0388  0.2870  0.1118
 6962W        W23809  12.491  18.377   1.364 -0.1046 -0.1323  0.2194
 6963W        W23810   4.515   3.707   0.286 -0.5396  0.4355  0.1523
 6964W        W23811  13.182  17.145  13.349  0.0620 -0.0835  0.0367
 6965W        W23812   0.690   2.823  12.774  0.0329  0.2215 -0.0009
 6966W        W23813  14.288   6.919  13.454 -0.1384 -0.2662 -0.4504
 6967W        W23814  12.539   5.601  13.095  0.0561 -0.0518 -0.0305
 6968W        W23815   0.746  13.652  11.831 -0.0168  0.1039  0.0783
 6969W        W23816  18.075   5.295   2.754 -0.1604  0.3634 -0.2128
 6970W        W23817  18.420  12.425   0.657  0.2403 -0.0530  0.0353
 6971W        W23818  14.844   6.829   4.456 -0.4280 -0.0030 -0.0536
 6972W        W23819   8.798  13.169  12.775 -0.1222  0.2226  0.1948
 6973W        W23820  17.088  17.068   1.782 -0.2001 -0.0947 -0.1694
 6974W        W23821   2.262   6.545  12.655  0.1231  0.1100 -0.1979
 6975W        W23822  18.512  14.598   4.651  0.1819  0.2081 -0.2523
 6976W        W23823   4.410   4.356  11.795  0.3013 -0.1325  0.1121
 6977W        W23824  10.411   9.069   2.197 -0.2190 -0.4876 -0.1851
 6978W        W23825  15.165  11.535  12.282 -0.0103 -0.0299  0.0747
 6979W        W23826  12.947  14.711   1.502 -0.2383 -0.0214 -0.0131
 6980W        W23827   4.694  11.936  11.300  0.2210 -0.2396 -0.2231
 6981W        W23828   7.001  11.052   0.207  0.2087 -0.1001 -0.2947
 6982W        W23829  18.439   9.462  14.021 -0.2104  0.0659 -0.0693
 6983W        W23830  17.446  10.273  12.242 -0.1710 -0.2769  0.3410
 6984W        W23831   5.506   6.354  10.137  0.2281  0.1486 -0.3143
 6985W        W23832  10.252   4.492   0.671 -0.0003 -0.2430  0.1454
 6986W        W23833  19.170  14.786  11.818 -0.1035 -0.0664 -0.1128
 6987W        W23834   0.305  18.636  14.319 -0.0079 -0.0797  0.0113
 6988W        W23835   5.259   0.407   5.326  0.0594  0.0561 -0.0435
 6989W        W23836   3.450   1.111  12.065 -0.1097  0.1528 -0.0780
 6990W        W23837  13.074   5.596   2.536 -0.1994  0.1977  0.1620
 6991W        W23838   4.160  11.063   3.795 -0.0001 -0.2640  0.2678
 6992W        W23839  12.990  12.115  12.847  0.1943 -0.0242  0.3266
 6993W        W23840  12.866  12.252   0.251  0.3303 -0.2378  0.3366
 6994W        W23841   6.818  16.559  10.256 -0.0162  0.0417 -0.1278
 6995W        W23842   0.917  10.300  11.837  0.0978  0.0910  0.1412
 6996W        W23843  19.015  15.766  12.448  0.1710 -0.1062 -0.0744
 6997W        W23844  12.081   7.929   2.026 -0.4556  0.2873  0.2896
 6998W        W23845   7.440  15.882  12.654  0.1509 -0.0047  0.2176
 6999W        W23846  10.858   8.992   3.596 -0.0496 -0.1489 -0.4262
 7000W        W23847  15.544   7.150  12.964 -0.1574 -0.0043  0.1432
 7001W        W23848  18.312  14.525   2.760  0.2102 -0.2688 -0.2085
 7002W        W23849   5.807   0.623   3.484 -0.1337  0.1661 -0.1757
 7003W        W23850  12.053   0.888  10.913 -0.1762  0.1184 -0.0155
 7004W        W23851  14.140   3.145   5.293  0.3848  0.0028 -0.3404
 7005W        W23852  15.565   5.799   0.212  0.0434 -0.0849 -0.1452
 7006W        W23853   2.659   0.897   0.563 -0.0804 -0.1060  0.0689
 7007W        W23854  15.344  15.542   4.739 -0.0576 -0.0109  0.0783
 7008W        W23855  11.646   0.530  10.019  0.2525 -0.2822 -0.1190
 7009W        W23856   0.550   1.650  11.851  0.2120 -0.0325  0.1661
 7010W        W23857  16.681  14.720   3.336  0.2054  0.1961 -0.1675
 7011W        W23858  14.954  10.083  11.388 -0.0556 -0.0968 -0.1087
 7012W        W23859  19.131  13.275   1.029  0.0375  0.1803  0.0472
 7013W        W23860   0.052   8.054  13.228 -0.2184 -0.1053 -0.0150
 7014W        W23861   9.319  19.435   0.321 -0.1950  0.4716  0.0397
 7015W        W23862  10.044   3.797   2.490 -0.0464  0.0032 -0.0229
 7016W        W23863  13.219   1.630  12.459  0.2031  0.1484 -0.0785
 7017W        W23864  13.284   2.487   3.419  0.1451  0.0400 -0.1355
 7018W        W23865   4.802   0.182   1.280  0.3345 -0.1337  0.1316
 7019W        W23866   2.718   5.581  12.011 -0.5728 -0.0136  0.2524
 7020W        W23867   2.947   9.245  11.597  0.1094 -0.2174 -0.0330
 7021W        W23868   4.430   1.303   3.573 -0.1522 -0.0711  0.1138
 7022W        W23869   2.463  16.541   0.414 -0.0469 -0.2750  0.0186
 7023W        W23870  14.080  15.430  11.387 -0.0122  0.0217 -0.1492
 7024W        W23871  15.791   1.312  10.389 -0.1971 -0.0275  0.0094
 7025W        W23872  19.128  19.310  10.445 -0.0658  0.0366  0.3316
 7026W        W23873   4.874   4.841   5.375  0.1981  0.1152 -0.1815
 7027W        W23874   5.611   5.050   3.865 -0.3074  0.2069  0.0355
 7028W        W23875   4.560  11.465   4.455 -0.0028 -0.0353 -0.1824
 7029W        W23876  12.694  14.811  12.433  0.1437  0.1479 -0.0763
 7030W        W23877  11.960  11.701   1.682  0.1675  0.0382 -0.2161
 7031W        W23878   0.122   2.194   2.719  0.1361 -0.0090  0.0777
 7032W        W23879   6.583   4.585   5.542 -0.0353 -0.0230  0.2506
 7033W        W23880  10.893   7.653   0.872 -0.0904  0.0658 -0.0075
 7034W        W23881  13.040   7.985  12.830  0.0117 -0.1982 -0.0473
 7035W        W23882   1.624  10.198   1.832 -0.4731  0.2214 -0.0404
 7036W        W23883   1.738  13.896  13.349 -0.0936 -0.3885 -0.0306
 7037W        W23884  19.117   8.166  14.438 -0.4014  0.2621 -0.4407
 7038W        W23885   1.516   2.894   0.027 -0.2864  0.0967 -0.1549
 7039W        W23886   2.187   0.688  10.229  0.2686 -0.2413  0.2346
 7040W        W23887  13.880  10.767  11.225 -0.2357 -0.0241 -0.0048
 7041W        W23888   2.814  10.008   2.480  0.0948  0.1834 -0.0416
 7042W        W23889  14.266  10.694   4.959 -0.1250 -0.3157 -0.3683
 7043W        W23890  18.414  12.371  14.176 -0.3571 -0.0402 -0.2772
 7044W        W23891   0.757  14.668  10.783 -0.0568 -0.0776  0.1062
 7045W        W23892   0.979   9.097   5.754  0.2282 -0.0800 -0.0387
 7046W        W23893  17.370   0.247  14.119  0.0726 -0.2061  0.1862
 7047W        W23894  13.068  17.404   4.044  0.3449  0.0071 -0.1513
 7048W        W23895   4.761   2.717  11.377 -0.1144  0.1842  0.0738
 7049W        W23896   6.791   7.563  14.560 -0.0051 -0.1249 -0.1151
 7050W        W23897  16.333  10.726   3.002  0.3557 -0.0424  0.3032
 7051W        W23898   4.833   5.624   1.812 -0.0591 -0.1723  0.0617
 7052W        W23899   0.532  16.912  11.398 -0.1379  0.0233  0.2951
 7053W        W23900  17.379  13.927   0.969  0.2635 -0.4394  0.2099
 7054W        W23901   9.830  11.408  11.764  0.0516 -0.3593  0.0462
 7055W        W23902  11.317  14.572  11.535 -0.1296 -0.2386 -0.1704
 7056W        W23903   9.960  17.653   2.838  0.0801 -0.2008 -0.1684
 7057W        W23904   2.511   5.506  12.459  0.0951 -0.2427  0.1287
 7058W        W23905   0.737  12.779   5.217  0.1625  0.0684  0.0387
 7059W        W23906  17.037  17.200   2.243  0.3564 -0.2341 -0.1807
 7060W        W23907   5.844  10.688  11.874 -0.2170  0.0335  0.0568
 7061W        W23908   7.070  13.967   4.139 -0.1647 -0.0784  0.0945
 7062W        W23909  15.990   5.836   3.069 -0.0743 -0.1967 -0.0169
 7063W        W23910   3.884  11.392  10.225 -0.0182 -0.1118  0.0751
 7064W        W23911   5.288   4.896  11.622  0.0754  0.0681 -0.3478
 7065W        W23912  10.808  15.972   2.504 -0.1282 -0.2168  0.1810
 7066W        W23913  18.115  17.269   4.620 -0.1813  0.1162  0.3169
 7067W        W23914   6.510   1.503  10.446  0.0551  0.3511  0.2474
 7068W        W23915   7.210   9.418  10.317 -0.1519  0.0046 -0.4273
 7069W        W23916  13.530   9.078  10.825  0.3729 -0.2177 -0.0340
 7070W        W23917  15.010   4.890   3.134  0.2420 -0.0971  0.1195
 7071W        W23918   7.082   8.826   0.824  0.0019 -0.0769 -0.0293
 7072W        W23919   0.857  10.633   4.616  0.2881  0.0502  0.2507
 7073W        W23920  10.588   3.249  11.353 -0.0676 -0.1121 -0.2690
 7074W        W23921  10.683  16.121   3.857  0.2265  0.2785 -0.1391
 7075W        W23922   8.973  15.586  11.864 -0.1361 -0.2082 -0.0984
 7076W        W23923   2.967   6.581   3.721  0.2368 -0.3283 -0.1763
 7077W        W23924   0.620  18.536   9.408 -0.1654 -0.0547 -0.0456
 7078W        W23925  19.040   8.395   3.066 -0.0464 -0.2444 -0.1879
 7079W        W23926  12.944  11.163   3.269 -0.0901  0.0758 -0.0642
 7080W        W23927  10.192  10.871  12.497  0.2602 -0.0946  0.1592
 7081W        W23928  12.155  18.582  11.787 -0.2425  0.1713 -0.0807
 7082W        W23929   1.971   5.647  13.930  0.0186  0.1275  0.2808
 7083W        W23930   5.379  12.893  14.377  0.1182 -0.2947  0.0335
 7084W        W23931  15.179   6.789   4.076  0.2333 -0.2547 -0.1395
 7085W        W23932  11.600   5.248  10.096 -0.1133  0.1010  0.2246
 7086W        W23933   3.447   9.306  11.546  0.1270 -0.0254  0.1704
 7087W        W23934  14.005   8.172   4.206  0.1185  0.0171  0.0685
 7088W        W23935   0.446   0.207   1.928  0.0805  0.0593 -0.0965
 7089W        W23936   1.217  17.013   3.513 -0.0005  0.0463 -0.2217
 7090W        W23937  18.869  12.834   2.700 -0.1576  0.4900  0.1256
 7091W        W23938   2.116   2.511   1.848  0.1857  0.1267  0.1172
 7092W        W23939  18.315   6.822   4.337 -0.1160 -0.2890 -0.0741
 7093W        W23940   3.307   3.632  12.859  0.2347 -0.0574  0.0150
 7094W        W23941   8.179  11.957  13.510  0.4539 -0.0761  0.1230
 7095W        W23942   9.737   9.953  13.294  0.1812 -0.1095 -0.3587
 7096W        W23943  17.785  12.367   3.730 -0.1578  0.1321 -0.0735
 7097W        W23944  17.965   7.819   4.404  0.3008 -0.0220 -0.0684
 7098W        W23945   6.153  17.274   1.343  0.2752 -0.2111  0.1166
 7099W        W23946  12.686  14.524   2.335  0.0986 -0.2928 -0.1596
 7100W        W23947  10.496   1.188  10.883  0.0362  0.1344 -0.1411
 7101W        W23948   8.346  13.585   1.625  0.0822  0.1789 -0.0775
 7102W        W23949   1.446   3.577   2.448  0.4173 -0.1369  0.0655
 7103W        W23950   6.744   1.672   0.661  0.1086  0.1589  0.2057
 7104W        W23951   4.199   8.725   4.583 -0.0012  0.0896  0.1578
 7105W        W23952   8.870   7.976   9.621  0.3615  0.3176  0.0041
 7106W        W23953   6.535  17.006   4.034 -0.0245 -0.0605 -0.1335
 7107W        W23954  12.360  13.768   4.791  0.1533 -0.1080 -0.0833
 7108W        W23955   5.512  12.771  12.293 -0.1602 -0.1084 -0.2092
 7109W        W23956  16.222  11.682   5.200 -0.1578 -0.0105  0.2060
 7110W        W23957   7.981   2.541  11.401 -0.0934  0.0984  0.0397
 7111W        W23958  12.331  13.426   4.233 -0.1879 -0.1616 -0.0706
 7112W        W23959   2.961  13.788   3.114 -0.1916 -0.1184 -0.2400
 7113W        W23960   3.008  17.011   3.129 -0.1385  0.2798  0.2037
 7114W        W23961  12.415  16.916   3.220  0.2212 -0.2053  0.1530
 7115W        W23962   4.978   8.217   3.850  0.0670 -0.1476  0.1309
 7116W        W23963  10.353  18.544  11.741 -0.3991  0.1963 -0.1563
 7117W        W23964   3.595  11.668   1.753  0.1024  0.2550 -0.2334
 7118W        W23965  10.798   9.352   0.565 -0.5682  0.1411 -0.1875
 7119W        W23966   4.149   2.387   4.406 -0.0497 -0.2211 -0.2406
 7120W        W23967   2.474  17.252   4.632 -0.0057 -0.2448  0.1897
 7121W        W23968   2.006  16.819   1.942  0.2138 -0.2543  0.3107
 7122W        W23969  15.117   5.359   3.320  0.2339 -0.0416 -0.2012
 7123W        W23970  10.795  18.356  11.893  0.1105  0.1067  0.2899
 7124W        W23971   7.878  12.726   1.662  0.1684 -0.0102  0.4337
 7125W        W23972   9.218   3.850  11.025 -0.7029 -0.0072 -0.3812
 7126W        W23973  14.436   7.229   0.656 -0.5097 -0.0283 -0.0736
 7127W        W23974   4.129   4.794  14.419  0.2006  0.2553  0.1846
 7128W        W23975   2.440   0.199  10.829  0.0924 -0.0492  0.0253
 7129W        W23976   3.024  14.682   9.919  0.1064  0.0939 -0.0115
 7130W        W23977  14.710   2.480  10.025  0.3615  0.1789 -0.2168
 7131W        W23978   8.530  13.195   3.127  0.1311  0.1251 -0.0199
 7132W        W23979  15.884  10.831   2.560  0.4116 -0.0793  0.1611
 7133W        W23980   0.877   3.290   0.615 -0.1255 -0.1854  0.2495
 7134W        W23981   4.014   4.935   0.708  0.1594 -0.0823 -0.0215
 7135W        W23982   6.374   7.802   0.150  0.0449 -0.0991  0.0790
 7136W        W23983   0.233   4.426   2.601  0.2398 -0.3262 -0.0824
 7137W        W23984  11.681   8.745   3.545  0.0963 -0.1542  0.0178
 7138W        W23985  15.440   0.306   2.459  0.2475 -0.0898 -0.1781
 7139W        W23986  11.867   9.618   9.177 -0.1658 -0.1793 -0.0626
 7140W        W23987  10.515  12.312  10.509 -0.1140  0.0083  0.3952
 7141W        W23988   2.484   9.210  13.632 -0.0326 -0.1171  0.0873
 7142W        W23989   3.220   4.202  10.855 -0.1071  0.0591  0.1883
 7143W        W23990   0.725  15.153  14.101  0.1720 -0.0706 -0.2059
 7144W        W23991  11.508   0.707  11.682  0.3257 -0.3599 -0.2246
 7145W        W23992   8.048  17.307  14.226 -0.1391 -0.3340  0.2300
 7146W        W23993   1.420   7.418  14.495  0.3820  0.3414  0.1250
 7147W        W23994   2.542   8.274  10.453 -0.3152  0.1703 -0.1313
 7148W        W23995   7.752   0.765   0.200 -0.1198 -0.2140  0.4329
 7149W        W23996   2.151  17.950  13.452 -0.2065 -0.1015 -0.3350
 7150W        W23997  18.966   4.407   2.797  0.0511 -0.2555 -0.4619
 7151W        W23998   4.970   1.636  13.659  0.0274 -0.4145 -0.2329
 7152W        W23999   1.169   2.219  14.539 -0.0987 -0.2440 -0.1064
 7153W        W24000  14.251  17.070   2.182  0.0239  0.1612 -0.1117
 7154W        W24001  10.441   7.734   3.351 -0.0314  0.1931  0.3618
 7155W        W24002  15.183  13.146   0.477 -0.2465 -0.2325 -0.1187
 7156W        W24003   6.101   6.197  14.582 -0.0370 -0.0972  0.4356
 7157W        W24004   5.369   3.114  11.773 -0.0957 -0.1354  0.1235
 7158W        W24005  14.151  13.770   1.757 -0.3031  0.0081 -0.0857
 7159W        W24006   4.074   6.734   5.339 -0.0692 -0.0661  0.0231
 7160W        W24007   7.083  14.819   0.759 -0.0626  0.0668  0.3707
 7161W        W24008  19.007  19.274   1.127  0.3658  0.0385 -0.0748
 7162W        W24009   3.592  18.013  10.266  0.0010  0.1493  0.1016
 7163W        W24010   1.059  14.223   2.967 -0.0487 -0.0366 -0.3581
 7164W        W24011  10.724   4.432   0.911 -0.0634  0.2556  0.2065
 7165W        W24012   0.572  12.667   4.749  0.1323 -0.4776  0.0905
 7166W        W24013  13.522   5.577   1.112 -0.0909 -0.0132  0.0661
 7167W        W24014   9.739  17.520   2.291  0.0114  0.1572 -0.0118
 7168W        W24015   7.597  13.771   4.759  0.1832  0.1412  0.1974
 7169W        W24016   4.930  14.961   3.059  0.2432  0.4499 -0.0301
 7170W        W24017  15.236  14.042   5.053  0.1239  0.0190 -0.0309
 7171W        W24018  13.591  15.298  11.279 -0.2483 -0.1582  0.1570
 7172W        W24019   6.734   2.637   4.252 -0.0060  0.0503 -0.2654
 7173W        W24020   6.870  17.811  13.287  0.2575 -0.1649 -0.1995
 7174W        W24021  10.666  15.709   1.119 -0.0759 -0.3809  0.2085
 7175W        W24022  18.410  10.630  12.777  0.2433  0.2584  0.0323
 7176W        W24023   8.731   8.237   1.859  0.2752 -0.0754  0.0289
 7177W        W24024   1.663   6.272  13.853  0.1216  0.1801  0.3724
 7178W        W24025  15.836  17.561   4.242  0.0717  0.0241 -0.3722
 7179W        W24026   2.475  12.067   0.520 -0.2695  0.3537  0.2868
 7180W        W24027  17.976   9.747   1.439 -0.0405  0.2471 -0.2672
 7181W        W24028  14.499  19.433  12.202  0.1696 -0.1092  0.1815
 7182W        W24029   8.016  11.176  10.118 -0.2579  0.0011  0.1517
 7183W        W24030  13.989   2.938   2.534 -0.0179 -0.0314  0.2682
 7184W        W24031  16.673  13.858  10.808  0.3202  0.2973 -0.0483
 7185W        W24032  13.250  13.003   1.226 -0.2166 -0.0675  0.2806
 7186W        W24033   6.991  18.247   0.284 -0.0962  0.0312 -0.0004
 7187W        W24034  13.995   6.924   0.818 -0.0954  0.1447 -0.1219
 7188W        W24035  15.172   9.854   1.560 -0.1769 -0.1178  0.3511
 7189W        W24036   5.821  14.858  11.971  0.0888  0.3722  0.0049
 7190W        W24037   2.618  10.550  14.434  0.4391 -0.1971  0.0835
 7191W        W24038  17.483   7.113   9.374  0.0649 -0.2886 -0.0320
 7192W        W24039   6.424   2.640  13.005  0.1261 -0.3813  0.2723
 7193W        W24040   8.967   3.771  13.952  0.0679 -0.0579 -0.0335
 7194W        W24041   8.333   0.443  12.204  0.0657 -0.3122  0.2919
 7195W        W24042   4.080  13.967   4.314 -0.2973 -0.0802  0.0644
 7196W        W24043   5.266   6.032   9.812 -0.0308 -0.2275 -0.1936
 7197W        W24044  15.564  14.049  13.212  0.1663 -0.1411 -0.0056
 7198W        W24045   0.950   8.473   0.328 -0.0891 -0.0775 -0.4332
 7199W        W24046   7.409   8.478  10.492  0.1075  0.2665  0.1347
 7200W        W24047   1.948   2.567   2.434  0.1747 -0.2475 -0.0532
 7201W        W24048   8.568   4.753   0.442  0.2484 -0.1049  0.0732
 7202W        W24049   5.541  17.057   4.159  0.0746 -0.0118 -0.3203
 7203W        W24050  11.447  14.731   0.850 -0.1661 -0.0569  0.0942
 7204W        W24051  17.692  17.378  13.778 -0.2401 -0.0803 -0.2410
 7205W        W24052  13.048   8.688   0.209 -0.0472  0.1228  0.3320
 7206W        W24053   2.511   9.350  12.004 -0.0216  0.1997  0.0398
 7207W        W24054  18.343  19.470   1.495 -0.0253 -0.0398  0.1611
 7208W        W24055  17.755  12.039  10.300  0.0288 -0.1786 -0.0576
 7209W        W24056   3.187  19.457  11.289  0.2103  0.1751 -0.0287
 7210W        W24057   2.383   4.724  13.090 -0.0467 -0.2773 -0.2485
 7211W        W24058   6.127  12.350   2.060 -0.0955 -0.0973 -0.1249
 7212W        W24059   5.751  11.736  12.080 -0.0972  0.0268 -0.0651
 7213W        W24060  16.335  10.648  13.153 -0.0696  0.0545 -0.2185
 7214W        W24061   2.622  10.930   3.450 -0.0211 -0.0345  0.6579
 7215W        W24062  10.055  10.241   4.333  0.0282 -0.0392 -0.0402
 7216W        W24063  12.308   6.016   0.435 -0.1185  0.3913  0.0860
 7217W        W24064   6.268   1.022   2.166 -0.2040  0.1612 -0.1214
 7218W        W24065  11.877  12.548  13.903 -0.2539 -0.0133 -0.1345
 7219W        W24066   8.925  13.398   2.887 -0.1636 -0.1191 -0.1485
 7220W        W24067   7.591  11.069   4.551 -0.0806  0.1871  0.1655
 7221W        W24068   9.853  17.025  13.120  0.0258  0.0346 -0.1309
 7222W        W24069  14.383  12.356   0.753  0.2946 -0.3098  0.0611
 7223W        W24070  15.916   5.133   3.768  0.1149  0.3891 -0.0866
 7224W        W24071  18.310   0.537   9.923 -0.2403  0.2401 -0.1366
 7225W        W24072  17.008  18.516  10.339  0.0627 -0.0658 -0.1181
 7226W        W24073   9.176   9.888  12.596 -0.3286 -0.0265 -0.0826
 7227W        W24074   0.856  13.554  12.328  0.0148 -0.4027  0.1962
 7228W        W24075  12.188  14.836  13.975 -0.2500 -0.0472  0.1468
 7229W        W24076   2.646   4.260  10.339  0.2745 -0.1021 -0.0260
 7230W        W24077  19.529   4.714   3.348  0.0447  0.2826 -0.1008
 7231W        W24078  17.351  15.453  14.058 -0.0642  0.2057 -0.3928
 7232W        W24079   7.076  10.618   2.179 -0.0068 -0.1816 -0.0422
 7233W        W24080  18.506  10.715   4.021  0.0492  0.0049  0.3749
 7234W        W24081  10.947  14.912   0.948  0.1592 -0.0285  0.0183
 7235W        W24082  16.612  17.213   2.985  0.0449  0.1072 -0.2393
 7236W        W24083  10.927   6.366   3.727 -0.0726 -0.0245  0.0143
 7237W        W24084   3.726   4.915  10.496 -0.0348  0.1955 -0.0405
 7238W        W24085  18.767   2.868  12.910 -0.1937 -0.2371 -0.0830
 7239W        W24086   3.511   0.859  11.528 -0.1647  0.1241 -0.2284
 7240W        W24087   6.296   0.492  10.307 -0.0364  0.1068 -0.0713
 7241W        W24088   2.130   5.568   1.544 -0.0781 -0.2480 -0.1747
 7242W        W24089   4.445  13.304  13.012 -0.0238  0.1346 -0.0122
 7243W        W24090  10.131  15.230  13.807 -0.2073  0.0049  0.0626
 7244W        W24091   6.722  11.614   3.330 -0.2415 -0.0262  0.1882
 7245W        W24092   5.279  13.153   9.738 -0.0561  0.1219  0.0160
 7246W        W24093  11.505   0.029  10.852  0.0011 -0.1372  0.2553
 7247W        W24094  12.158   7.930  12.205 -0.1678 -0.2704 -0.1093
 7248W        W24095   2.656  19.344   1.698  0.2087 -0.3178  0.3031
 7249W        W24096   4.008   1.339  11.777  0.3703  0.0346 -0.0674
 7250W        W24097  17.563  14.405   1.374 -0.2569  0.0985 -0.1775
 7251W        W24098  11.868  16.930  13.833  0.1572  0.0780 -0.2036
 7252W        W24099  17.593  13.966   2.790  0.2056 -0.2209  0.1253
 7253W        W24100  12.382  14.054  13.008 -0.0337 -0.0789  0.1649
 7254W        W24101   1.308   8.509   1.571 -0.0221 -0.0147  0.1080
 7255W        W24102  11.561   2.087  13.622 -0.1337 -0.0804  0.1127
 7256W        W24103  19.007   9.771   1.634 -0.1206 -0.4040 -0.0332
 7257W        W24104   5.497   6.630  10.524 -0.1925  0.0406 -0.1049
 7258W        W24105  10.073  16.326   1.634  0.0641 -0.0316 -0.0469
 7259W        W24106   1.211   2.602   2.094  0.2787  0.0907 -0.1923
 7260W        W24107  14.076  11.303   4.323  0.4794 -0.2946 -0.4530
 7261W        W24108  17.065   4.127   0.157  0.3486  0.0550 -0.0442
 7262W        W24109   2.426   3.029  14.411 -0.0914 -0.1905 -0.2236
 7263W        W24110   5.711  14.284   2.049 -0.1423 -0.1771 -0.2282
 7264W        W24111   0.170  18.757  11.145  0.2165 -0.0282  0.1848
 7265W        W24112  16.839   5.701  10.737  0.0897 -0.0524 -0.1407
 7266W        W24113   1.343   4.175  11.693  0.0421 -0.4009  0.0427
 7267W        W24114   3.121   9.532   1.546 -0.1888 -0.0920 -0.0432
 7268W        W24115   4.361   0.951  11.944 -0.0525  0.1208  0.2530
 7269W        W24116  14.036   4.788   3.442  0.1170 -0.0766 -0.0307
 7270W        W24117  18.576  17.375  12.023 -0.0164  0.3662 -0.0941
 7271W        W24118   3.436  14.030  13.364 -0.3629 -0.3955 -0.2919
 7272W        W24119  18.752  10.716   1.168  0.3714  0.3242  0.1299
 7273W        W24120   6.365   5.488  14.474 -0.2194  0.1646  0.0866
 7274W        W24121   4.084   5.680   1.041 -0.2352 -0.3726 -0.2001
 7275W        W24122   1.463  10.385   4.429 -0.0860  0.1330  0.0862
 7276W        W24123   8.124   5.847  13.062  0.3489  0.0503  0.0106
 7277W        W24124   8.031   6.327   2.298 -0.1558 -0.2015 -0.1431
 7278W        W24125   7.815  12.952  12.894  0.1486 -0.1098  0.0943
 7279W        W24126   0.482   3.815  13.846 -0.2094 -0.1768  0.0564
 7280W        W24127   9.960  16.511  11.322  0.0600 -0.0659 -0.0488
 7281W        W24128  12.978   5.917  13.185  0.2269  0.0382  0.0416
 7282W        W24129   0.662   0.970   2.005  0.2818  0.0175  0.3241
 7283W        W24130  14.459  15.168   4.460  0.1197 -0.0289  0.0293
 7284W        W24131  17.720   0.571  14.314  0.1750 -0.0443  0.4630
 7285W        W24132   7.935  16.967   3.873  0.0364 -0.0077  0.2388
 7286W        W24133   1.829  15.804   1.268 -0.0018  0.0779  0.0438
 7287W        W24134  10.759  12.148   1.915  0.1450 -0.0117  0.0481
 7288W        W24135   9.983   0.564   1.716 -0.0509  0.0263 -0.0445
 7289W        W24136   6.710   3.934   1.847  0.1269  0.1734  0.0643
 7290W        W24137  13.280   7.907  14.423 -0.1267 -0.0970 -0.0046
 7291W        W24138   7.218   4.246   0.164  0.1140  0.1022  0.0884
 7292W        W24139   9.966  17.227   4.493  0.3781 -0.1706  0.3362
 7293W        W24140   2.907   8.052   0.500  0.0209 -0.0167  0.0028
 7294W        W24141   9.449   4.796   0.338  0.0330  0.2346  0.3121
 7295W        W24142  13.427  13.458  12.270  0.1721 -0.0997 -0.0627
 7296W        W24143   6.430   0.187   3.952  0.1070  0.0767  0.0526
 7297W        W24144   5.697   8.834   2.916  0.2462  0.1159  0.0722
 7298W        W24145   8.737  12.440  10.601  0.1513  0.3160 -0.1526
 7299W        W24146  19.122  15.870   2.568  0.1757 -0.0995 -0.0393
 7300W        W24147  10.992   4.388  10.920 -0.1383 -0.2199  0.3643
 7301W        W24148  12.007  12.657   1.492  0.3025 -0.0728 -0.0807
 7302W        W24149   7.241   0.751   4.681 -0.2456 -0.3228  0.0657
 7303W        W24150  10.620  18.534   1.741 -0.0029 -0.2446 -0.3909
 7304W        W24151  14.451  19.219   1.142  0.2993  0.3530  0.1706
 7305W        W24152   9.055  10.520  14.003 -0.2662 -0.2276 -0.2597
 7306W        W24153  19.020   2.684  14.265 -0.2237 -0.1071  0.1229
 7307W        W24154   0.638  12.865   2.091 -0.2484 -0.0855  0.0140
 7308W        W24155   8.811  18.395   4.520  0.0308 -0.0454 -0.0464
 7309W        W24156   6.429   6.297   3.188  0.2635  0.2799 -0.0202
 7310W        W24157  16.157  17.859   4.408 -0.1181  0.1682 -0.2682
 7311W        W24158   9.968  15.881   0.761  0.1775 -0.3777  0.1715
 7312W        W24159   1.053   0.123   3.381  0.0969  0.1854 -0.0159
 7313W        W24160   8.518  15.256  11.556 -0.2092 -0.1058 -0.1228
 7314W        W24161  11.739  13.968   5.453  0.0013 -0.0430 -0.1833
 7315W        W24162  16.247  18.684  11.722  0.1118  0.2206 -0.1733
 7316W        W24163  11.172   7.031   1.593  0.1535 -0.1836 -0.0177
 7317W        W24164  14.504   0.293   3.162 -0.3611 -0.0005  0.2417
 7318W        W24165   6.992   5.020  11.678 -0.0435 -0.0196 -0.2581
 7319W        W24166  11.838  15.884  12.446 -0.1138  0.1432  0.0049
 7320W        W24167   4.917   5.460   4.189 -0.2289  0.0147 -0.3177
 7321W        W24168  11.291  18.097   4.609  0.0709  0.4244 -0.0247
 7322W        W24169  16.629  14.265   3.615 -0.2228  0.3466 -0.2395
 7323W        W24170  14.892   6.125  13.771  0.0956  0.1055 -0.0024
 7324W        W24171  10.602   3.161  10.858 -0.2077  0.0436  0.0690
 7325W        W24172  11.594  14.498  12.084  0.1289  0.3077  0.1003
 7326W        W24173   1.984   4.039   4.299 -0.0430  0.0888 -0.1356
 7327W        W24174   9.073   1.433  10.223 -0.1785 -0.2601 -0.2164
 7328W        W24175   8.396   6.461   2.663 -0.0626 -0.1346  0.0034
 7329W        W24176  12.944   1.059  10.882  0.1847 -0.0853 -0.0708
 7330W        W24177   6.221   6.006   3.746  0.0409  0.0298 -0.0936
 7331W        W24178   2.782  17.464   3.072  0.0659 -0.1356 -0.0333
 7332W        W24179   2.817   0.228   4.182  0.0752 -0.1474  0.0585
 7333W        W24180  16.003   9.464   3.751 -0.0554 -0.0494  0.0185
 7334W        W24181  18.803   1.251   3.998 -0.0861 -0.2473  0.0719
 7335W        W24182   0.818  15.780   1.285  0.1825  0.0011  0.0864
 7336W        W24183  18.260   9.740  13.248 -0.3083 -0.2813 -0.0275
 7337W        W24184   2.340   3.865  11.032  0.2143  0.0150  0.0069
 7338W        W24185   0.910   5.574  10.399 -0.3465 -0.1213  0.1259
 7339W        W24186   4.860  15.964   2.704 -0.1343  0.4011  0.2836
 7340W        W24187  12.198  14.491   2.174  0.1952  0.0989  0.0677
 7341W        W24188  16.386  10.147   2.125 -0.2364  0.1747 -0.2109
 7342W        W24189   0.313   2.203   5.027 -0.2633  0.1498 -0.0553
 7343W        W24190  18.693   9.808  10.668  0.1228 -0.0005  0.1553
 7344W        W24191   8.713  10.354  10.391  0.2464  0.0586 -0.0774
 7345W        W24192   1.685   2.170   4.209  0.0908 -0.1357  0.2426
 7346W        W24193  14.626   5.659  14.530  0.2422  0.1240  0.2842
 7347W        W24194  14.443  12.002  13.881 -0.2400  0.0034  0.2588
 7348W        W24195  15.505   4.186   1.985  0.2033  0.1196 -0.1944
 7349W        W24196   1.428  18.100   4.775  0.2402 -0.1791 -0.1360
 7350W        W24197  12.476   1.224   1.890 -0.0039 -0.0533  0.0423
 7351W        W24198  14.718   5.364  13.778 -0.3124 -0.1090 -0.0812
 7352W        W24199   2.097  12.654   4.459 -0.1191 -0.1898  0.0057
 7353W        W24200  14.867  10.619  12.283  0.2126 -0.2224 -0.1953
 7354W        W24201   2.208  14.125   2.041 -0.0229 -0.3560 -0.1335
 7355W        W24202   6.552   4.245   3.050 -0.0184 -0.0088  0.0399
 7356W        W24203  16.348   2.341  11.929  0.3816 -0.3071  0.1929
 7357W        W24204   3.737  18.817   3.387 -0.0507  0.2077 -0.3013
 7358W        W24205   7.769   6.042   1.626  0.0495 -0.0522 -0.0625
 7359W        W24206  10.952  10.589  12.876 -0.1615  0.1951  0.2776
 7360W        W24207  12.534   3.955   4.386  0.3155 -0.0650  0.3232
 7361W        W24208  12.958   4.582  11.584 -0.2360 -0.2528  0.1349
 7362W        W24209  11.857   6.746   2.667 -0.2040  0.0069  0.1224
 7363W        W24210   9.009  16.288  13.226 -0.0868 -0.1975  0.0434
 7364W        W24211   4.707  16.821  13.273  0.1094 -0.0014 -0.1705
 7365W        W24212  10.060  12.776  12.432  0.0754  0.1907  0.1289
 7366W        W24213  10.595   9.877   1.798  0.4074  0.0545  0.1785
 7367W        W24214  13.580  15.430  14.561  0.1145 -0.1982  0.2835
 7368W        W24215  17.819   8.057   3.976 -0.0131 -0.1224 -0.1520
 7369W        W24216  16.704   7.768   4.703  0.5501 -0.0934  0.2910
 7370W        W24217   7.994   9.538  13.091  0.1903  0.1194 -0.0260
 7371W        W24218   6.308   4.138  10.738 -0.1757 -0.0413  0.3088
 7372W        W24219   3.487   9.554  10.154 -0.2307 -0.1512 -0.0728
 7373W        W24220   3.905  10.486  11.049  0.3172  0.2822 -0.0466
 7374W        W24221  15.647   5.136   4.271  0.0826 -0.0648 -0.2636
 7375W        W24222   6.339   1.888  13.719 -0.0497 -0.0257  0.2075
 7376W        W24223   4.064  16.907  13.964  0.1564  0.0374 -0.1539
 7377W        W24224   6.636  18.273  13.710 -0.0394  0.3096 -0.2374
 7378W        W24225  13.271   1.392   4.868 -0.2587  0.0595 -0.1206
 7379W        W24226   5.300   7.120   9.448 -0.1182 -0.1476 -0.0333
 7380W        W24227   2.689   9.812   1.977 -0.3116  0.2558 -0.0194
 7381W        W24228   7.726  14.982   5.459 -0.1232  0.0209  0.0779
 7382W        W24229  18.132  10.546  13.985 -0.2012  0.1215  0.0307
 7383W        W24230   6.691  17.474   1.376 -0.1349 -0.1071 -0.0468
 7384W        W24231  10.975   3.531   2.263 -0.0078  0.2369  0.1231
 7385W        W24232  14.127  16.567   3.994 -0.2287  0.1122  0.0230
 7386W        W24233  12.487  17.794  11.823  0.3838 -0.2186  0.3199
 7387W        W24234  12.758  14.699  10.664 -0.0059 -0.1286  0.0262
 7388W        W24235  15.531  11.010  10.206  0.3138  0.2635 -0.0416
 7389W        W24236  12.182   9.029  10.938  0.0179 -0.2581 -0.0003
 7390W        W24237  10.109   6.106   4.856 -0.1740  0.2529  0.1322
 7391W        W24238   5.765  12.952   2.937 -0.3721 -0.0163  0.1373
 7392W        W24239   5.894   9.177  11.334  0.1104  0.0900 -0.3912
 7393W        W24240  17.518   4.057   4.957 -0.1576  0.0821 -0.0938
 7394W        W24241  14.485  12.721  11.728 -0.2819 -0.0152  0.0843
 7395W        W24242   9.853  12.174  13.847  0.0976 -0.0974 -0.0815
 7396W        W24243   4.432  15.003   1.237  0.1257 -0.2387 -0.0318
 7397W        W24244   6.512   6.111   1.945 -0.2028 -0.1784  0.0482
 7398W        W24245   4.274  19.112   3.917 -0.3252  0.0026  0.0284
 7399W        W24246  11.552   6.013  10.576  0.1108  0.2826 -0.2586
 7400W        W24247  14.334  18.777  11.304 -0.0344 -0.2451  0.0970
 7401W        W24248  12.125   1.587  13.148  0.1068  0.1798 -0.2293
 7402W        W24249  11.965  16.205   4.183  0.0717  0.0767 -0.0650
 7403W        W24250   5.181  13.686  12.445  0.4693  0.0987  0.1989
 7404W        W24251  10.909  17.933   4.943 -0.1091 -0.1565 -0.1339
 7405W        W24252   5.101  16.678  14.258  0.0124  0.2566 -0.2717
 7406W        W24253  11.184  13.543   3.805  0.0536  0.2264 -0.1817
 7407W        W24254  11.642  13.826   2.388 -0.1274 -0.1031  0.3030
 7408W        W24255  14.625  10.464   1.344  0.1541  0.1076  0.1767
 7409W        W24256   4.595   5.626   1.281 -0.1433 -0.0075 -0.1101
 7410W        W24257  12.080   8.042  14.259  0.0972 -0.1415 -0.2767
 7411W        W24258   1.700  17.904   3.869 -0.0909 -0.0228  0.0276
 7412W        W24259  18.568   3.394  11.811 -0.2232 -0.1665  0.1135
 7413W        W24260   3.618  11.159  13.256  0.0535 -0.4162 -0.1143
 7414W        W24261   7.450  10.248   2.690 -0.0984 -0.1184  0.0184
 7415W        W24262   6.731   2.019  11.927  0.2650 -0.1723  0.1432
 7416W        W24263  16.567  16.038  10.551 -0.0283  0.2721  0.1066
 7417W        W24264  10.016  16.597  14.522 -0.2985 -0.0519  0.5530
 7418W        W24265  12.502   2.193  11.433  0.1362  0.1592 -0.1954
 7419W        W24266  19.268   0.299  13.508  0.1236 -0.0680  0.2186
 7420W        W24267   4.485   2.106   1.043 -0.1046  0.1599 -0.1961
 7421W        W24268  10.877  14.484  13.068 -0.3641  0.0804 -0.0558
 7422W        W24269   2.188  19.110  12.295  0.0656  0.1497  0.2731
 7423W        W24270  12.496  10.718   4.158  0.1833 -0.0158  0.1679
 7424W        W24271  14.397  15.620   2.416 -0.0179 -0.1001 -0.0078
 7425W        W24272   6.776  10.971   9.856  0.2673  0.1342  0.1168
 7426W        W24273   0.112   1.589  11.140 -0.0663 -0.0119  0.2090
 7427W        W24274   2.454   5.344  10.314 -0.1417  0.0175 -0.2260
 7428W        W24275   1.649   3.779   1.998  0.2613 -0.2118 -0.0950
 7429W        W24276  17.847  14.457   2.043  0.0083 -0.0061  0.0881
 7430W        W24277  13.951  12.709   0.269  0.0322 -0.2396  0.1635
 7431W        W24278   2.027   5.805   9.637 -0.2273 -0.2321 -0.3874
 7432W        W24279  13.857  11.195  11.639 -0.0543  0.0705  0.0852
 7433W        W24280   9.292  15.346   5.315  0.0353 -0.3981 -0.1166
 7434W        W24281   7.796  14.551  13.801  0.2505 -0.1327 -0.0890
 7435W        W24282   3.604   3.492   0.970  0.3764 -0.3226  0.0309
 7436W        W24283   4.759  18.286   4.619 -0.0067 -0.2176  0.2412
 7437W        W24284  12.794   4.417  12.228 -0.0140  0.1248 -0.2947
 7438W        W24285  17.446   6.934   3.227  0.2650 -0.3384 -0.0630
 7439W        W24286  14.039  14.571  14.415  0.0210 -0.0778 -0.3841
 7440W        W24287   1.373  12.002   1.570 -0.1684  0.0888 -0.0112
 7441W        W24288   1.926   0.427  10.620  0.0551  0.0198  0.1283
 7442W        W24289   2.554   4.883  14.180  0.1728  0.0563 -0.0827
 7443W        W24290  10.064   0.644  14.097  0.2690  0.0111 -0.1210
 7444W        W24291  12.867  11.063  11.838 -0.1722 -0.0989  0.0326
 7445W        W24292   9.100   9.579   1.350  0.1612  0.0367  0.0185
 7446W        W24293  16.140  12.546   2.630  0.1534 -0.0560 -0.1288
 7447W        W24294   0.643  18.812   0.769  0.2204  0.0105 -0.0003
 7448W        W24295  13.309   0.278   3.345  0.1246 -0.1261 -0.1648
 7449W        W24296  11.354   9.257  11.180  0.1103  0.1749  0.2917
 7450W        W24297   8.755  10.969   1.060 -0.2185 -0.0690 -0.0621
 7451W        W24298   5.313   1.948   9.203 -0.1363  0.0683  0.0466
 7452W        W24299  12.386   7.551  10.238  0.0069  0.1239  0.0964
 7453W        W24300   3.757  11.078  14.379 -0.2563 -0.0237  0.1764
 7454W        W24301  13.013  16.880   0.644  0.1386 -0.0684  0.1986
 7455W        W24302   4.879   6.944   3.367 -0.4457  0.0138 -0.0958
 7456W        W24303  16.663  13.603  12.705 -0.0733 -0.0098 -0.2407
 7457W        W24304   4.962   3.898   3.534  0.0365  0.1764  0.1077
 7458W        W24305  12.568   1.746  10.484  0.0052 -0.0558 -0.0156
 7459W        W24306   9.935   4.712   2.838  0.2617  0.1182  0.0235
 7460W        W24307   4.222   3.079  12.932  0.3683  0.3597 -0.1974
 7461W        W24308   3.662   3.414  11.330  0.0763  0.0820 -0.0282
 7462W        W24309   2.310   6.659  14.309 -0.2973 -0.1308 -0.0073
 7463W        W24310   1.902   4.269   4.767 -0.1849  0.0315 -0.1818
 7464W        W24311   9.387  18.401  12.523 -0.2816 -0.2247 -0.1542
 7465W        W24312  12.434  17.946   3.099 -0.0628 -0.2143 -0.0219
 7466W        W24313  12.296   8.868  10.435 -0.2029 -0.0838 -0.0258
 7467W        W24314   3.409  17.583   0.478  0.1584 -0.1120  0.0891
 7468W        W24315  18.024  11.442   4.643  0.2656 -0.0096 -0.0510
 7469W        W24316   3.305  11.354  14.506  0.0154 -0.2122 -0.2142
 7470W        W24317   9.277   6.586  14.221  0.0366  0.2409 -0.2815
 7471W        W24318   6.166   2.521   3.621 -0.2818  0.0200 -0.0421
 7472W        W24319  19.598  17.532  12.963 -0.2410  0.2252 -0.1083
 7473W        W24320   9.000  18.832   2.814  0.1671 -0.0929 -0.0448
 7474W        W24321  19.444  18.011   0.079  0.0035 -0.0409  0.0755
 7475W        W24322   5.609   2.458   1.929  0.0731  0.0714 -0.1437
 7476W        W24323  18.447   1.838  12.513  0.5502 -0.1804  0.0828
 7477W        W24324  10.626   9.687  11.784 -0.0529 -0.1863  0.1406
 7478W        W24325  15.326  10.078   5.425 -0.1541 -0.4653 -0.5795
 7479W        W24326  16.070  10.996   3.358  0.2563  0.0758 -0.0484
 7480W        W24327   0.728  13.026   4.351  0.2293  0.0238  0.1243
 7481W        W24328   7.989  19.241   2.770  0.2245 -0.0546  0.2529
 7482W        W24329   0.371   0.904   2.383 -0.0984  0.1455 -0.3714
 7483W        W24330  12.786  13.574   3.315  0.1311 -0.0192 -0.2122
 7484W        W24331   5.446  15.798  14.002  0.3056  0.0156 -0.0196
 7485W        W24332   1.817   7.539  11.450  0.2473 -0.0119  0.1482
 7486W        W24333   1.118  12.687  10.746  0.0241 -0.0856  0.0775
 7487W        W24334  11.107   1.101   0.106  0.2569 -0.0167  0.0600
 7488W        W24335  14.419  13.437   4.369 -0.0321  0.1980  0.3461
 7489W        W24336  12.572   4.203   9.401 -0.1522 -0.2218 -0.0705
 7490W        W24337  13.904   2.915  12.582 -0.1686 -0.1386 -0.2377
 7491W        W24338   0.597   1.966   4.696 -0.3016 -0.5131  0.1737
 7492W        W24339  14.243   9.600   2.526 -0.0367  0.0131  0.0769
 7493W        W24340   8.959   5.463  12.917 -0.0978 -0.1004  0.0915
 7494W        W24341  17.983   8.997   0.798 -0.2363  0.0707 -0.1499
 7495W        W24342   7.030   2.675  11.086 -0.3750 -0.0970  0.1393
 7496W        W24343   6.684  10.587   4.518 -0.3066  0.0757 -0.0242
 7497W        W24344   5.658  14.805   1.182 -0.1664 -0.1695  0.3350
 7498W        W24345  10.509   1.137  13.609  0.0130 -0.2908 -0.1463
 7499W        W24346  18.286  15.703  12.022  0.0292  0.0906  0.1260
 7500W        W24347  17.686   5.862  10.590 -0.1424  0.4075  0.0272
 7501W        W24348   6.638  16.629   9.071 -0.2644  0.2574  0.0533
 7502W        W24349   2.262  12.024  11.037  0.2071 -0.1665  0.1445
 7503W        W24350  11.921   6.719  13.731 -0.0556 -0.2985 -0.0546
 7504W        W24351   0.722  12.348  10.775 -0.1099  0.1199 -0.1233
 7505W        W24352   3.539  17.772   0.928 -0.2413  0.1152 -0.0417
 7506W        W24353   9.441  16.819   0.582 -0.1353 -0.1118 -0.0457
 7507W        W24354   1.249  13.990   1.261 -0.0937 -0.1371  0.3668
 7508W        W24355  16.445   5.653  12.959 -0.0725  0.1711  0.1254
 7509W        W24356  10.263  16.420  10.821 -0.2039 -0.2238 -0.0955
 7510W        W24357   1.625  14.356  13.631  0.1578  0.2279 -0.0646
 7511W        W24358   1.450   4.226   3.277 -0.0752 -0.0673  0.1652
 7512W        W24359   3.143   2.635  10.501  0.1625 -0.0772  0.1968
 7513W        W24360  13.053   0.393  11.073  0.0598 -0.2118  0.3594
 7514W        W24361   5.885  11.085  12.779  0.1333 -0.0117  0.2386
 7515W        W24362   5.884   1.830   4.834 -0.2593  0.0916 -0.3712
 7516W        W24363   3.299  19.185  12.033  0.3558  0.1122 -0.0235
 7517W        W24364  12.116   8.587   1.660 -0.0759 -0.1477  0.2763
 7518W        W24365  12.883   3.504  14.360  0.0831  0.1813 -0.1639
 7519W        W24366   3.860  18.202   3.441 -0.0671 -0.0229  0.1429
 7520W        W24367  16.013  11.919   5.620 -0.3320 -0.4595 -0.0949
 7521W        W24368  13.133   4.769  12.102  0.1147  0.0294  0.1510
 7522W        W24369  16.374  14.184  13.992  0.2777 -0.1518  0.1211
 7523W        W24370   8.599   2.130  11.949 -0.0877 -0.1430  0.2331
 7524W        W24371  15.556  18.435  14.197  0.0503 -0.0788 -0.1721
 7525W        W24372   4.601   0.708   4.366 -0.0483  0.4538 -0.1921
 7526W        W24373  13.710   6.908   3.392 -0.1550  0.3547 -0.1846
 7527W        W24374  18.470  10.581  12.154 -0.4015  0.1828  0.1066
 7528W        W24375  15.054  18.751  14.494 -0.2134 -0.1792 -0.1815
 7529W        W24376   1.661  17.486   4.227  0.1671  0.1870  0.1038
 7530W        W24377  12.418  15.690  12.107 -0.0063 -0.2038  0.5393
 7531W        W24378  12.169  19.279   1.512 -0.4051 -0.0170 -0.3248
 7532W        W24379   6.493   7.445   2.672  0.2199 -0.0218  0.1362
 7533W        W24380   2.156  10.564   2.842  0.0431  0.1820 -0.2329
 7534W        W24381  18.993  11.030  11.616 -0.0839  0.0283 -0.0289
 7535W        W24382   7.348  15.187   1.966  0.1469  0.3152  0.2242
 7536W        W24383  11.284   9.214  12.992 -0.4613 -0.1249  0.0288
 7537W        W24384  12.791   0.148   1.222  0.0088  0.0131  0.1222
 7538W        W24385   8.076   5.667  12.341  0.0368  0.1720  0.4834
 7539W        W24386   0.801  16.744  13.989 -0.0804  0.1648 -0.2593
 7540W        W24387   5.939   6.807   4.053  0.0566 -0.2772 -0.0813
 7541W        W24388  11.235  18.396   1.843 -0.1930 -0.3058 -0.3862
 7542W        W24389  11.856  17.106   1.389  0.1971  0.2381  0.4245
 7543W        W24390   8.601  14.332  13.658  0.0592  0.1299  0.0131
 7544W        W24391   3.156  10.224  13.825  0.1416  0.1354  0.0070
 7545W        W24392   7.389  11.202  12.739  0.0660  0.2140  0.1344
 7546W        W24393   5.522  15.189  10.428 -0.2356  0.1839 -0.0694
 7547W        W24394  16.422  18.668   1.424 -0.0756  0.2576  0.2894
 7548W        W24395  17.393  18.360  10.614  0.0939  0.4496 -0.0878
 7549W        W24396  13.774   5.228   1.905 -0.1287  0.1665 -0.0261
 7550W        W24397  14.912   2.147   0.118  0.4153  0.1849 -0.0280
 7551W        W24398  16.259   0.564   0.161 -0.1368 -0.1697  0.3933
 7552W        W24399  17.753   2.425  11.435  0.0905  0.0452  0.2091
 7553W        W24400  17.175   3.606  10.542 -0.0415 -0.1390  0.3262
 7554W        W24401   5.145   4.723  14.495 -0.0588 -0.0710  0.3063
 7555W        W24402   5.389   8.319  13.553  0.4455  0.0643 -0.1086
 7556W        W24403   9.559   9.236  14.324  0.1958  0.0642 -0.3379
 7557W        W24404  15.059  15.977  13.170  0.1797  0.4919  0.0337
 7558W        W24405  17.145  14.069  11.540 -0.0183  0.0008 -0.0856
 7559W        W24406  18.752  12.152   0.453 -0.2426  0.1210 -0.0212
 7560W        W24407   8.790   2.923   2.135  0.3783  0.0139  0.0544
 7561W        W24408  12.522   1.101  13.946 -0.0559 -0.1556 -0.0559
 7562W        W24409  19.315   7.354  11.681 -0.3405  0.0736 -0.0867
 7563W        W24410  14.080  19.262   0.426  0.2358  0.0700  0.0476
 7564W        W24411   6.622  10.738  10.682  0.0561 -0.1220 -0.1497
 7565W        W24412   8.579  13.838   1.267 -0.2032  0.1727 -0.1200
 7566W        W24413   9.517   7.934  10.800 -0.3302  0.0116 -0.0973
 7567W        W24414   4.349  11.671   0.548 -0.1693  0.0019  0.0418
 7568W        W24415   7.204  12.162  13.168 -0.0773 -0.0116  0.3023
 7569W        W24416   1.720   4.305  12.083  0.2105  0.1106 -0.0236
 7570W        W24417   3.030   0.916   0.232 -0.1787 -0.0723 -0.1365
 7571W        W24418   7.250  13.229  12.552 -0.3140 -0.3210  0.0398
 7572W        W24419   4.406   2.797  14.477 -0.0554  0.3444  0.1646
 7573W        W24420  12.305  18.275  12.595  0.1209 -0.0242  0.0003
 7574W        W24421  17.926  16.482   0.020  0.0901 -0.0525  0.0814
 7575W        W24422  15.086  13.477   0.125  0.1622  0.2365  0.0224
 7576W        W24423  15.565  11.425   2.537 -0.0099  0.0069  0.2012
 7577W        W24424  15.207   6.999  12.567  0.3038 -0.0380 -0.1451
 7578W        W24425  16.702   9.695   3.937 -0.0814 -0.2205  0.0840
 7579W        W24426   9.178  13.174   0.201 -0.0361  0.1437  0.1435
 7580W        W24427   9.891   1.923  10.395 -0.1542 -0.2931 -0.2013
 7581W        W24428   7.184   2.667   2.215  0.0419 -0.2823 -0.0367
 7582W        W24429  11.877   9.887   5.093  0.2000  0.3270 -0.2696
 7583W        W24430   0.981  13.047   0.233  0.2416  0.1275  0.1405
 7584W        W24431  17.265  15.265   4.046 -0.0126 -0.0482  0.0570
 7585W        W24432  15.926  15.733   1.378  0.1269 -0.1495 -0.0245
 7586W        W24433  10.815   1.820  13.802  0.0821  0.2407 -0.3704
 7587W        W24434   9.183   0.362  11.216 -0.0762  0.0322 -0.1037
 7588W        W24435  19.224   5.848   0.041  0.1961  0.1521  0.1593
 7589W        W24436   7.831   1.125  13.742 -0.3202 -0.0577 -0.0365
 7590W        W24437   0.177   5.433   2.344 -0.0962 -0.0809 -0.0098
 7591W        W24438   9.076  12.123  10.934 -0.0114  0.1384  0.1551
 7592W        W24439   3.202   1.988  11.398  0.1986  0.0058 -0.2147
 7593W        W24440   1.233  16.624   0.152 -0.1383  0.1101  0.1622
 7594W        W24441  17.133   3.025   4.534  0.2461  0.1654  0.1449
 7595W        W24442   6.119  11.076  13.238  0.0292 -0.1654  0.1677
 7596W        W24443  12.195  11.925  12.404  0.0562  0.0810  0.1233
 7597W        W24444  18.898   7.593   4.212  0.1548 -0.1219  0.1701
 7598W        W24445  18.265   7.083  10.806 -0.2688 -0.1608 -0.3673
 7599W        W24446  18.703   3.245   3.499  0.1097 -0.0094  0.2517
 7600W        W24447   6.581  16.315  11.203  0.0781  0.1347 -0.3506
 7601W        W24448  13.881  17.397   2.992  0.0757  0.3762  0.0299
 7602W        W24449  18.034  10.748  12.521  0.1065  0.2281 -0.2880
 7603W        W24450  11.531  10.073   0.690 -0.0330 -0.1506 -0.0799
 7604W        W24451   7.495   6.780  14.057  0.0345  0.0726  0.0323
 7605W        W24452  12.235   3.624  11.271  0.2955 -0.0150  0.2382
 7606W        W24453  13.262  11.163  12.505  0.2116  0.2814 -0.4291
 7607W        W24454   0.208  11.399   2.432 -0.0158  0.1985  0.1586
 7608W        W24455   5.474   7.156  10.406  0.0788 -0.0556 -0.4346
 7609W        W24456  18.839   9.633   5.663  0.0764 -0.0908  0.2086
 7610W        W24457   1.705   0.414  14.409 -0.2275 -0.2934  0.3172
 7611W        W24458  14.836   4.292  11.323 -0.1653 -0.0978  0.3136
 7612W        W24459   7.887   3.382  11.597  0.1447  0.1823  0.0013
 7613W        W24460  16.399  13.606  14.576  0.0497 -0.1354  0.3963
 7614W        W24461  13.688  18.781  13.664 -0.0317  0.1965 -0.0394
 7615W        W24462  13.456  12.901   3.201  0.1574  0.1911 -0.1298
 7616W        W24463  17.178   5.218  13.642  0.2699 -0.5532  0.0660
 7617W        W24464   9.088  11.932  12.850  0.3381  0.0128 -0.1322
 7618W        W24465   4.890  17.819  10.917  0.2209  0.2388  0.1259
 7619W        W24466   8.163   5.621   2.486 -0.0876  0.0475 -0.0227
 7620W        W24467   5.884   0.620  11.858  0.2241 -0.0612  0.2323
 7621W        W24468  10.259  12.346   4.790  0.0937  0.3231  0.0471
 7622W        W24469   7.799   6.089   3.573 -0.0777 -0.1646 -0.2520
 7623W        W24470   8.441  16.965   5.167 -0.1895 -0.2181  0.1239
 7624W        W24471   3.604   8.511   3.765  0.0496 -0.0556 -0.0760
 7625W        W24472   6.603  10.535  12.521  0.1240 -0.2822 -0.1683
 7626W        W24473   7.479  13.571   1.175  0.2226  0.0537  0.0488
 7627W        W24474  14.997  12.867   2.465  0.0022  0.0872  0.1660
 7628W        W24475  19.403   9.706   2.512  0.2921 -0.1722 -0.0874
 7629W        W24476   9.757   2.308   0.585 -0.0363 -0.2760 -0.1397
 7630W        W24477   0.947   4.676   1.793 -0.1828 -0.3221 -0.1667
 7631W        W24478  13.155   9.260  10.528 -0.0467  0.1293  0.1150
 7632W        W24479   0.955  19.433   3.805  0.1675  0.0272  0.1677
 7633W        W24480  10.546  18.301   2.298 -0.3651 -0.1429  0.1986
 7634W        W24481   1.958   0.070  11.613 -0.0427  0.0347  0.2792
 7635W        W24482   5.109   6.167  11.229 -0.2136 -0.1680  0.0617
 7636W        W24483  18.079   6.199   1.071  0.0363  0.0225 -0.5769
 7637W        W24484   3.191  16.682   1.801 -0.2955 -0.0758  0.2684
 7638W        W24485   2.275  13.343  13.892 -0.0827  0.0395  0.1331
 7639W        W24486   2.212   6.374   3.879 -0.0107  0.2528  0.1400
 7640W        W24487  14.537   3.202   1.834  0.1546 -0.3209  0.2397
 7641W        W24488   6.760  13.662  12.677 -0.1218 -0.2209  0.0933
 7642W        W24489  14.358   7.648  10.497 -0.1891 -0.2851  0.3837
 7643W        W24490   3.019  14.636   1.283  0.4988 -0.1120  0.1466
 7644W        W24491   8.039  18.131  10.577  0.1901  0.2858  0.0337
 7645W        W24492   4.605   5.558   0.811  0.1010 -0.0677 -0.1978
 7646W        W24493  15.609  12.767  13.309 -0.0270 -0.1404  0.1642
 7647W        W24494  18.261   0.097   0.137  0.1332  0.1170 -0.1544
 7648W        W24495   6.434  12.541  13.363  0.3182  0.2240 -0.2086
 7649W        W24496   9.261   7.035  12.580 -0.0842 -0.0237  0.0686
 7650W        W24497   6.504   8.057   5.690 -0.1630  0.0220  0.0800
 7651W        W24498  11.365   9.157   1.927  0.1325 -0.2472  0.0814
 7652W        W24499  11.330   9.173   0.630 -0.2862 -0.1018  0.2705
 7653W        W24500  12.246   7.562  14.273  0.2425  0.1733 -0.3068
 7654W        W24501   5.781   1.716   0.496  0.1475  0.1573  0.0195
 7655W        W24502   1.436   3.472   3.311 -0.1818 -0.1110  0.0127
 7656W        W24503  19.416   9.769  13.053  0.0959 -0.2911  0.2265
 7657W        W24504   5.496   3.071   3.169  0.0546 -0.2994  0.3747
 7658W        W24505   6.939  17.714   3.120 -0.0280  0.0234 -0.1739
 7659W        W24506  10.677  13.509  13.363  0.3421  0.0767 -0.3198
 7660W        W24507  16.610   8.256  11.297  0.0700 -0.2756  0.0757
 7661W        W24508  19.384   2.392   2.959  0.2840 -0.1773 -0.4347
 7662W        W24509   3.121  17.541  12.860  0.3248  0.0979 -0.0700
 7663W        W24510   0.590   6.463   0.965  0.0281  0.0190  0.1568
 7664W        W24511  14.341  19.362  10.269 -0.3672  0.0012  0.0440
 7665W        W24512   5.616  14.004  12.176  0.2317  0.0593  0.0977
 7666W        W24513  15.674  19.424   2.792 -0.1468 -0.0032  0.1805
 7667W        W24514  15.707   0.124   4.791  0.1575  0.0946  0.3001
 7668W        W24515   0.518  16.934   3.299  0.0756  0.0895  0.1229
 7669W        W24516  11.412   9.441   0.235  0.2061 -0.0522 -0.2277
 7670W        W24517  15.250  15.488  13.093 -0.0362  0.3392 -0.1389
 7671W        W24518  10.019   7.177  14.303  0.0529 -0.0904 -0.1646
 7672W        W24519   4.440   5.912   1.660 -0.2898 -0.3961  0.0448
 7673W        W24520   0.605   1.401   2.686  0.2003  0.2102  0.0809
 7674W        W24521   3.234   8.891  11.812  0.0396 -0.3714 -0.0051
 7675W        W24522  14.340  18.119  14.465  0.2949  0.1468 -0.1171
 7676W        W24523   3.977  17.497  12.182  0.1294 -0.2383 -0.0402
 7677W        W24524   4.127   5.306   4.842 -0.3734  0.0055 -0.0893
 7678W        W24525  10.388   1.231  10.385  0.1363  0.0382 -0.1332
 7679W        W24526  17.296   1.575  12.553 -0.0695  0.0799  0.1659
 7680W        W24527  19.264   4.724  13.195  0.1625  0.0602 -0.0508
 7681W        W24528   3.677   7.494  11.756  0.1394 -0.1096 -0.4782
 7682W        W24529   9.636   2.566  13.139  0.0430  0.2073 -0.3051
 7683W        W24530   1.029  10.214   3.588 -0.0304  0.0043  0.2241
 7684W        W24531   8.938  17.308   3.052 -0.2601 -0.1045 -0.0015
 7685W        W24532  14.915   0.920  11.299  0.3619  0.0425 -0.2863
 7686W        W24533  13.786  11.096  10.462  0.0912  0.0864  0.1126
 7687W        W24534  15.704   6.725   5.808  0.1047 -0.1519  0.0443
 7688W        W24535  11.892   7.312   0.138 -0.0670 -0.1683 -0.5299
 7689W        W24536   7.092   6.700  11.577 -0.0971 -0.0492  0.1558
 7690W        W24537   7.119  16.952   4.141 -0.1030 -0.1116 -0.2712
 7691W        W24538  10.156   3.976   1.943  0.0730 -0.0256 -0.2916
 7692W        W24539  18.087  12.470  12.941  0.4682  0.0249 -0.1236
 7693W        W24540  12.002  10.865  13.139  0.2875 -0.0522  0.3212
 7694W        W24541   7.720   3.900   3.727 -0.1978  0.0412  0.0647
 7695W        W24542  12.760  18.836   0.571 -0.1418 -0.2576 -0.2691
 7696W        W24543  18.523   2.901   3.855  0.1859 -0.4022 -0.4492
 7697W        W24544  12.573   7.602  12.066 -0.0868  0.0276  0.1528
 7698W        W24545  13.443  13.349  12.733  0.2634  0.0034 -0.2894
 7699W        W24546  18.031   9.230   2.332  0.2741 -0.1145 -0.1358
 7700W        W24547  18.056  18.816   0.282 -0.1671  0.0560 -0.2916
 7701W        W24548   4.977  10.278  12.572  0.2083  0.0081  0.2658
 7702W        W24549   4.638  10.143  11.244  0.0664 -0.5440  0.1396
 7703W        W24550  11.633   2.828  10.280 -0.0297  0.0449 -0.0545
 7704W        W24551  11.262   4.159  14.369  0.0129  0.0994  0.3722
 7705W        W24552  16.511  17.061   1.088 -0.1147  0.1155 -0.2207
 7706W        W24553   3.281  10.096   9.337  0.0323 -0.0997  0.3006
 7707W        W24554  17.266   5.483   1.587 -0.1483  0.1620 -0.1216
 7708W        W24555  12.452   9.022  13.234 -0.1537  0.2289  0.1042
 7709W        W24556   3.971   5.997   1.602 -0.0962 -0.0653  0.1419
 7710W        W24557   1.286  15.765   3.054  0.0716 -0.0309 -0.1016
 7711W        W24558   5.438  11.733   9.239 -0.0196 -0.1109 -0.1741
 7712W        W24559   2.709  13.522   2.716  0.1126 -0.0662  0.0756
 7713W        W24560  10.467  17.247  12.914 -0.0561 -0.0719  0.4594
 7714W        W24561  12.458  14.178   2.571  0.0735 -0.2216  0.0763
 7715W        W24562  16.336   9.655   1.049  0.1447  0.0125  0.0329
 7716W        W24563   8.489   0.547   3.037 -0.2455 -0.0249 -0.0522
 7717W        W24564   9.566   2.575  12.252  0.2107 -0.1390 -0.1774
 7718W        W24565  14.174   9.430  13.727 -0.1608 -0.2567 -0.1830
 7719W        W24566   9.819  14.794  10.829  0.1257  0.2397  0.0921
 7720W        W24567  13.702   9.565  12.294  0.1718 -0.1924 -0.0237
 7721W        W24568   0.283  17.962   3.075  0.1481  0.1267  0.4283
 7722W        W24569   6.496   6.865   1.200 -0.3220 -0.1744 -0.1222
 7723W        W24570   8.841   3.346   4.331 -0.0637 -0.0840 -0.0566
 7724W        W24571   6.663  12.024   2.272  0.0646  0.1887 -0.1953
 7725W        W24572   8.729   8.199   5.789 -0.4230  0.0454  0.2787
 7726W        W24573   6.120   5.585   0.869  0.2638 -0.1378  0.0005
 7727W        W24574  18.364   1.304  14.051  0.2774  0.1499  0.2006
 7728W        W24575  16.226  17.024   3.916 -0.3766 -0.3052  0.3009
 7729W        W24576  10.841  13.332   9.978  0.0323 -0.2192  0.0154
 7730W        W24577  13.894  14.721   5.352 -0.1972 -0.1102 -0.0213
 7731W        W24578   5.935  14.353  11.982 -0.1714  0.4203 -0.0603
 7732W        W24579  14.617  13.639   0.253 -0.0436  0.0167  0.1515
 7733W        W24580  11.086   8.627  10.045 -0.0689  0.0228  0.1761
 7734W        W24581   7.335   3.471  14.233  0.2079 -0.2618  0.0768
 7735W        W24582   7.026   2.797  10.606  0.0381  0.0748 -0.1116
 7736W        W24583  17.833   0.328   0.146 -0.0025 -0.2108 -0.5264
 7737W        W24584  12.119   8.650   3.811 -0.0364  0.0630 -0.0364
 7738W        W24585   6.597   8.409   4.102  0.0152  0.1321 -0.0163
 7739W        W24586  16.578  15.615   1.383  0.0489  0.0811  0.0928
 7740W        W24587   3.180   4.394   0.599  0.1055  0.2291 -0.1836
 7741W        W24588  18.098  16.578  13.839  0.2273 -0.1247  0.0534
 7742W        W24589  14.122   0.281  13.823 -0.0397  0.2572  0.1119
 7743W        W24590   8.186   2.860  12.315  0.0751 -0.1254 -0.1002
 7744W        W24591   8.110  12.849  12.013  0.3282  0.0082  0.0352
 7745W        W24592   9.859   7.945   1.974 -0.0517 -0.0802 -0.1294
 7746W        W24593   2.569  13.612   0.635  0.1665  0.0159 -0.0107
 7747W        W24594   6.251  11.596   0.583 -0.0636  0.1458  0.0380
 7748W        W24595  19.446  11.382  11.512 -0.0651 -0.3080  0.3670
 7749W        W24596   4.621  12.375  14.031 -0.3054  0.0109 -0.0239
 7750W        W24597   9.203  11.997  11.377 -0.2802 -0.3232 -0.2657
 7751W        W24598  14.531   3.341   3.622 -0.1704 -0.2872  0.2762
 7752W        W24599   3.616   9.346   1.286 -0.0734 -0.0871  0.4246
 7753W        W24600   8.857  19.045  13.879  0.2069  0.0207  0.2158
 7754W        W24601  13.871  18.638   3.243 -0.1067  0.1483 -0.2717
 7755W        W24602  13.027  14.226  10.239  0.3521 -0.1008 -0.0204
 7756W        W24603  15.632  16.704  13.528 -0.2516 -0.0333 -0.1023
 7757W        W24604   0.203   9.666   9.783 -0.1637 -0.2789 -0.0196
 7758W        W24605  10.125  17.346  11.593 -0.0545 -0.0321  0.0780
 7759W        W24606   0.059  10.731   0.002 -0.4927  0.0750  0.2025
 7760W        W24607   6.644  10.154  13.961 -0.3136  0.1602  0.0176
 7761W        W24608  16.118  11.586  12.013  0.1112 -0.2860 -0.1348
 7762W        W24609   9.086  19.057   3.627  0.0357 -0.0755 -0.1346
 7763W        W24610  17.548  16.604  13.119  0.0478  0.0846 -0.0419
 7764W        W24611  18.323   2.811   5.275  0.1298 -0.1954 -0.1020
 7765W        W24612   6.273  12.720  14.298 -0.0977  0.0017 -0.0428
 7766W        W24613   4.812  12.405   2.767 -0.2164 -0.0632 -0.1714
 7767W        W24614  16.585  11.483  13.205  0.1996 -0.0974  0.0614
 7768W        W24615   9.034  16.297  12.355  0.1988  0.5796  0.2175
 7769W        W24616  14.067  14.409   2.958 -0.0000 -0.0278 -0.0554
 7770W        W24617  12.034   7.582  11.278 -0.3548  0.0815  0.0828
 7771W        W24618   7.039  13.496   4.503 -0.0856  0.1340  0.3004
 7772W        W24619  12.317  12.948   1.167 -0.2204 -0.5015  0.1463
 7773W        W24620  10.662  15.878   2.955  0.1770  0.0260  0.0229
 7774W        W24621  12.853   7.110  10.817  0.2293  0.0810 -0.0590
 7775W        W24622   4.596   7.838  13.091  0.2956  0.1289 -0.1598
 7776W        W24623  16.190  13.976  10.915  0.1078 -0.2505  0.2635
 7777W        W24624  16.051   5.442   9.888  0.3697 -0.1634  0.1542
 7778W        W24625   0.055   4.222   3.308  0.0086  0.0861  0.0002
 7779W        W24626  11.953  10.644   2.401 -0.2162  0.1432  0.0287
 7780W        W24627  12.283   2.026   3.429 -0.2172 -0.0054  0.0082
 7781W        W24628  14.119   4.570   3.025 -0.1779  0.3666 -0.1043
 7782W        W24629   0.256  19.400   4.851  0.1320 -0.0026 -0.2480
 7783W        W24630  12.849  17.116   1.015  0.0836  0.2972 -0.2086
 7784W        W24631   2.676   6.433   4.136 -0.0957 -0.0986  0.0926
 7785W        W24632   4.408   8.385   0.043 -0.1159  0.3178 -0.0731
 7786W        W24633  14.374  12.182  11.385  0.0675 -0.1368  0.1731
 7787W        W24634   9.693   6.831  14.076 -0.1645  0.2473  0.2574
 7788W        W24635  10.778  11.447  10.487 -0.4153  0.2098  0.0434
 7789W        W24636   0.723  15.691   4.543 -0.2499  0.0407  0.0459
 7790W        W24637  18.845   6.401  10.620  0.1478  0.2622  0.0732
 7791W        W24638  11.990  17.368   9.727 -0.3176  0.0918 -0.0724
 7792W        W24639  14.707   9.175  12.603  0.0323  0.0602  0.3674
 7793W        W24640   7.544   4.032   3.295 -0.3520 -0.2911  0.0851
 7794W        W24641   1.761   9.517   0.160  0.1415  0.1252  0.2026
 7795W        W24642  17.287   1.131   4.617 -0.1097  0.0676 -0.2027
 7796W        W24643   6.915  17.474   1.818 -0.5406 -0.1299  0.0086
 7797W        W24644   7.890   1.285   2.396  0.0601 -0.0462  0.4348
 7798W        W24645  15.561  17.490  10.268 -0.1758 -0.1549  0.3947
 7799W        W24646   8.672   8.292   2.669  0.1473  0.0201  0.2025
 7800W        W24647  15.489  10.305  14.086 -0.0441 -0.1345  0.3745
 7801W        W24648   4.954  14.465   1.838 -0.0643  0.2997  0.1265
 7802W        W24649  19.247   4.099  12.527 -0.2012 -0.2280 -0.0612
 7803W        W24650  18.788  15.193  10.447  0.0756 -0.0686 -0.1960
 7804W        W24651   0.882  14.730   2.878 -0.0536  0.0013 -0.1097
 7805W        W24652   8.569  14.571  12.460 -0.0650 -0.0643  0.0301
 7806W        W24653   6.266  10.379  10.690  0.1298  0.1942  0.1988
 7807W        W24654  17.518  13.814   1.476  0.4673  0.0645  0.4433
 7808W        W24655   7.984   6.752   4.156  0.1181 -0.2943  0.1763
 7809W        W24656  14.961   4.057   0.521  0.0719 -0.1948  0.0683
 7810W        W24657  10.526   7.356   1.939 -0.0937 -0.1456  0.1262
 7811W        W24658   7.581  10.622   3.703  0.0364 -0.1001 -0.1942
 7812W        W24659   2.394   3.793  10.517 -0.2215 -0.0483  0.3349
 7813W        W24660  15.782  13.650   1.522 -0.1619 -0.0402 -0.0823
 7814W        W24661  18.122  17.351   2.152  0.3123  0.0237  0.2878
 7815W        W24662   0.716   0.028   4.656  0.3215 -0.1075  0.3035
 7816W        W24663   1.955  12.134   1.887 -0.4765 -0.0492 -0.0880
 7817W        W24664  14.068   0.304   3.659  0.1468 -0.2728  0.3328
 7818W        W24665  12.180  16.618  10.373  0.0514  0.4070 -0.0978
 7819W        W24666   5.276   2.305   2.690 -0.0603 -0.1572  0.0127
 7820W        W24667  18.355   9.652   1.807 -0.0217 -0.0776 -0.1979
 7821W        W24668   0.549  19.347   3.431 -0.3222 -0.0621  0.1834
 7822W        W24669   7.238   6.107  11.942  0.1381  0.0064 -0.2787
 7823W        W24670   4.898   9.906  10.789  0.0577  0.2866 -0.0486
 7824W        W24671  13.248   2.970  13.221  0.4325 -0.1998 -0.0049
 7825W        W24672   9.055  17.380  14.488  0.1986  0.3090  0.2832
 7826W        W24673   6.766   8.761   5.321  0.0784  0.0286  0.0574
 7827W        W24674   9.588  18.375   2.172 -0.0040 -0.0530  0.0785
 7828W        W24675   4.417  10.525   4.229 -0.2117 -0.3158 -0.1965
 7829W        W24676   5.535  15.604   1.968  0.0275  0.0504 -0.0275
 7830W        W24677   9.109  15.528  12.725 -0.3516 -0.1874  0.0941
 7831W        W24678  16.273   1.869   0.965  0.1211  0.0399  0.2186
 7832W        W24679   6.594   4.235  13.308 -0.3919  0.0329 -0.0171
 7833W        W24680  14.713  10.837  13.199 -0.3316 -0.0904 -0.1900
 7834W        W24681  14.486   0.727  12.465  0.0159 -0.1881  0.4206
 7835W        W24682   3.126  12.740  11.885 -0.0747  0.0007 -0.0911
 7836W        W24683   9.576   9.903   0.624  0.3049 -0.0123 -0.3610
 7837W        W24684   6.650   6.518   4.757  0.2917  0.2994 -0.1412
 7838W        W24685  13.776   4.392   0.797  0.1755  0.4611 -0.0014
 7839W        W24686   0.127  16.385  10.603 -0.0757  0.1316 -0.1396
 7840W        W24687  11.670   0.289   3.674 -0.0883  0.0781  0.0532
 7841W        W24688  10.834  12.421   3.578  0.2879 -0.4897  0.2940
 7842W        W24689   6.227  11.804   2.085 -0.3430  0.2434 -0.1953
 7843W        W24690   5.634   6.262  14.178  0.1280 -0.0658 -0.3222
 7844W        W24691   8.099   0.015  12.187 -0.0184  0.3712  0.0149
 7845W        W24692   4.536   0.828   3.447  0.0692 -0.1515  0.2236
 7846W        W24693   5.167   2.420  12.422  0.3425  0.0927 -0.1725
 7847W        W24694   9.402   7.162   5.198 -0.0161  0.2007  0.2939
 7848W        W24695  10.966   0.139   1.478  0.2738  0.1303  0.0301
 7849W        W24696   1.063  14.335   4.624  0.0030  0.2521  0.2892
 7850W        W24697   7.880  12.886   4.221  0.1155 -0.2312  0.0531
 7851W        W24698   7.898  16.750   1.309  0.1086 -0.0691  0.0639
 7852W        W24699   9.796   6.710  10.816 -0.1379 -0.1615 -0.1028
 7853W        W24700  15.959   5.882  12.372 -0.2233 -0.3056 -0.1677
 7854W        W24701  11.754   1.373  12.800 -0.1577 -0.1163  0.3161
 7855W        W24702   3.927  17.949   0.545  0.2512 -0.2001 -0.0601
 7856W        W24703   6.894  14.635   1.769  0.3498 -0.2271  0.4053
 7857W        W24704  14.289  10.306   2.438  0.0055 -0.0883  0.1542
 7858W        W24705  17.891   6.490   5.139  0.3156  0.2633  0.1639
 7859W        W24706   7.287  15.987   4.745  0.2492 -0.1854  0.4487
 7860W        W24707  19.502  17.904  11.162  0.2561 -0.3958  0.0712
 7861W        W24708  11.532   9.855  12.204 -0.1210  0.0309  0.1939
 7862W        W24709   7.288   1.188  13.982  0.1438 -0.0384 -0.0948
 7863W        W24710   9.421   7.420   4.354 -0.0886 -0.1868  0.1532
 7864W        W24711   5.053  10.422  12.072 -0.2355 -0.0165  0.4952
 7865W        W24712  17.748  11.853  12.080 -0.3529 -0.4612  0.0510
 7866W        W24713  15.851   9.556  13.727 -0.0938  0.3492  0.0675
 7867W        W24714   6.288   3.509  10.660  0.0870 -0.1377 -0.0550
 7868W        W24715   6.529  17.561  11.200 -0.0515 -0.3972  0.2297
 7869W        W24716   0.511  13.232  10.450 -0.1978 -0.1660 -0.2500
 7870W        W24717  15.246  11.343   1.589 -0.0510  0.0744 -0.1241
 7871W        W24718  15.370  13.893   0.264 -0.0033 -0.0094  0.0793
 7872W        W24719  19.043   2.641   2.298  0.0109 -0.2455  0.0175
 7873W        W24720  15.491  12.505  11.985  0.2567 -0.0178  0.0927
 7874W        W24721   6.692  14.273  13.980 -0.1402 -0.0332  0.0312
 7875W        W24722   8.807  11.308   2.972  0.3925  0.0328 -0.1059
 7876W        W24723  12.116   4.425  13.589  0.0306 -0.2710 -0.1027
 7877W        W24724  17.738   1.314   2.473 -0.0567 -0.1131 -0.1240
 7878W        W24725   3.118   1.380   0.939 -0.2744 -0.4154  0.0963
 7879W        W24726   8.096  14.684   1.267  0.0132  0.1164  0.2550
 7880W        W24727  17.604   8.525   0.046 -0.1339  0.2358  0.1619
 7881W        W24728  18.682   5.826  10.570  0.1283 -0.1684  0.0178
 7882W        W24729  10.787   0.673   2.143  0.0344  0.2409 -0.2501
 7883W        W24730   3.389  19.141   4.317  0.5367 -0.1184  0.1058
 7884W        W24731   4.430  19.340  10.321  0.1493  0.1874  0.2154
 7885W        W24732   6.343  12.401   1.236  0.2031  0.0774  0.4123
 7886W        W24733  13.601  16.335   2.382  0.0685 -0.1909  0.2430
 7887W        W24734   7.884  13.488   0.673  0.0739  0.2204 -0.0270
 7888W        W24735   1.129  19.378  10.909 -0.1487 -0.1773  0.1639
 7889W        W24736   5.523  14.779  11.541  0.1264 -0.2224  0.1245
 7890W        W24737   9.968   9.809   3.996 -0.1882 -0.0793  0.0988
 7891W        W24738  19.236  15.042  10.643  0.1168  0.0438 -0.2441
 7892W        W24739   3.350   0.135  12.373  0.0557  0.0816  0.0135
 7893W        W24740   6.103   3.793   4.193 -0.0683  0.0849 -0.1297
 7894W        W24741   0.445  11.233  12.117  0.0301 -0.0006  0.2194
 7895W        W24742   7.324   8.335  14.099 -0.0618  0.3150 -0.1514
 7896W        W24743   5.584  14.496  10.589 -0.4368 -0.0229 -0.1035
 7897W        W24744   1.690   8.881  14.358  0.0103  0.3887  0.0923
 7898W        W24745  12.134   9.044   3.534  0.1448  0.2012  0.0319
 7899W        W24746  14.100  13.056  11.473 -0.1778  0.2758  0.2005
 7900W        W24747   5.979   3.200  12.322 -0.2991  0.2929 -0.0321
 7901W        W24748   4.038  11.797   2.658  0.1736 -0.1561  0.0317
 7902W        W24749   3.038   5.119   2.937  0.0078  0.3691  0.2117
 7903W        W24750  15.252  12.731   0.740 -0.1208  0.0159 -0.0491
 7904W        W24751  13.461  10.174   5.670 -0.1689  0.2112 -0.3339
 7905W        W24752   6.727   3.593  12.922 -0.0590  0.0060 -0.0772
 7906W        W24753  17.185   0.382  13.036  0.0630  0.0359 -0.0108
 7907W        W24754  19.537   9.244   5.048  0.2287 -0.0727  0.0014
 7908W        W24755   4.509  16.100   3.239 -0.0342 -0.1000 -0.0731
 7909W        W24756   1.797  12.381   4.851 -0.2374 -0.1979 -0.2789
 7910W        W24757   7.831   5.154   0.494  0.2926 -0.2053  0.1507
 7911W        W24758   3.507   3.857  11.123  0.1021 -0.0455 -0.3953
 7912W        W24759  16.989  12.857   3.964  0.0710  0.2815  0.1907
 7913W        W24760  19.478  17.737  12.178 -0.1987 -0.0391 -0.0103
 7914W        W24761   8.324  17.666   2.742 -0.1915  0.0265  0.0613
 7915W        W24762  17.233  16.127  13.344  0.0523  0.1083  0.1429
 7916W        W24763  11.635  14.376   1.098  0.1156 -0.2706 -0.3002
 7917W        W24764   9.624  17.027  12.262  0.0240 -0.1946  0.1946
 7918W        W24765   6.418   6.615  13.194  0.0735 -0.0368 -0.2841
 7919W        W24766  12.147  11.191  11.122 -0.1977  0.4749  0.3965
 7920W        W24767  16.190   2.820  13.672 -0.3791 -0.0337 -0.1544
 7921W        W24768  12.198  17.748   2.704 -0.0564 -0.2064  0.2402
 7922W        W24769  17.197   9.131   1.446  0.0416  0.1181  0.1053
 7923W        W24770   9.739   4.717   0.957 -0.4868  0.1583  0.0824
 7924W        W24771  19.480  18.137  10.668  0.0116 -0.1417 -0.3483
 7925W        W24772  11.003  12.742   4.407  0.1819 -0.1847  0.0713
 7926W        W24773   8.391  17.857  14.117  0.1296 -0.0907  0.0592
 7927W        W24774  14.010   7.744   4.519  0.3729 -0.1859 -0.0824
 7928W        W24775  12.687  13.799  14.016 -0.0075  0.0718 -0.0456
 7929W        W24776  15.142  15.047  11.374  0.1239  0.2158  0.1241
 7930W        W24777  12.835  14.702   0.560 -0.3972 -0.0969 -0.0950
 7931W        W24778  11.865  12.687   4.380 -0.1403  0.0056  0.1457
 7932W        W24779   0.454   9.242  13.728 -0.0902  0.1442  0.2512
 7933W        W24780   3.060   3.235   3.203 -0.0995 -0.1111  0.0634
 7934W        W24781  16.399  17.431  10.753 -0.3223  0.1168 -0.0931
 7935W        W24782  12.518   0.152   3.931  0.0762 -0.0207 -0.0360
 7936W        W24783   7.154  18.286   4.066  0.2245  0.1048 -0.0230
 7937W        W24784  10.413  12.358  11.655 -0.0147 -0.0769  0.1439
 7938W        W24785  11.041   5.346  14.316  0.0875  0.1189 -0.0195
 7939W        W24786  12.160  15.607   4.091  0.3246 -0.3078  0.0419
 7940W        W24787  13.581  13.583   0.473  0.3281  0.0584 -0.4094
 7941W        W24788  16.723  12.128   2.165  0.0368  0.0546  0.1820
 7942W        W24789  15.311  18.704  13.194 -0.1675 -0.1887 -0.0083
 7943W        W24790  12.897  11.874   9.944 -0.0352 -0.0366 -0.2215
 7944W        W24791   1.026  13.911  12.707  0.0275 -0.0342  0.1839
 7945W        W24792  19.437  13.786   3.687  0.1434  0.2709  0.2752
 7946W        W24793  16.634   2.774   0.339  0.1244 -0.0000 -0.3280
 7947W        W24794   7.395  18.995  10.851 -0.0948  0.3867  0.2806
 7948W        W24795  11.698   2.713   2.114 -0.2686 -0.2359 -0.0232
 7949W        W24796  16.724  13.250   4.838 -0.1098 -0.1088  0.2723
 7950W        W24797  18.939  10.894   5.382 -0.2031  0.1966  0.1673
 7951W        W24798  17.705   3.051   0.024 -0.1761 -0.4217  0.0441
 7952W        W24799  14.364   5.637   1.236  0.0251 -0.0603 -0.0913
 7953W        W24800   7.501  16.446  12.096  0.0664 -0.0727  0.0542
 7954W        W24801  12.717  13.007   0.840 -0.2251 -0.0645  0.1987
 7955W        W24802   9.487   8.905  13.941  0.1213  0.3766  0.0594
 7956W        W24803  11.501  13.120   3.471  0.2842 -0.0844  0.0159
 7957W        W24804  12.246   8.797  13.617  0.5564 -0.2657 -0.0361
 7958W        W24805   0.840  11.645   4.720  0.1173  0.5229 -0.1072
 7959W        W24806   1.911  14.049   0.744  0.2542 -0.3057  0.2587
 7960W        W24807   6.493  14.710   2.136  0.0299 -0.0505  0.3320
 7961W        W24808  19.568  10.589   2.179  0.0632  0.3853  0.1252
 7962W        W24809   2.611   7.200  10.098 -0.0441  0.0465  0.2460
 7963W        W24810  14.918   9.738  12.697  0.0384  0.1533  0.0196
 7964W        W24811   6.707   6.611   1.833  0.0734 -0.0981 -0.3726
 7965W        W24812  16.647  12.558   2.814 -0.3126 -0.1016  0.3162
 7966W        W24813  15.049  14.306  12.147 -0.0956 -0.1191  0.1253
 7967W        W24814  13.392   0.348  12.664 -0.2594 -0.2784 -0.3697
 7968W        W24815  12.270   8.598   3.358 -0.3819 -0.0182 -0.0299
 7969W        W24816  18.828   6.664   2.731 -0.0485 -0.0618  0.3183
 7970W        W24817  15.821  18.009  12.724  0.0340  0.0865 -0.0300
 7971W        W24818   0.272   8.155  11.135  0.0400  0.0398 -0.4460
 7972W        W24819   4.921  19.377  11.857 -0.1176 -0.1016  0.2118
 7973W        W24820  11.654   5.583  13.358  0.1024  0.0450 -0.1381
 7974W        W24821  14.916   7.274   4.099  0.0654 -0.1327  0.0886
 7975W        W24822   5.588  11.020  13.132  0.0892 -0.0873 -0.1631
 7976W        W24823  10.493   8.641   1.342 -0.0340  0.0901 -0.1294
 7977W        W24824   3.817  13.915  10.630 -0.3042 -0.2448  0.1986
 7978W        W24825  16.626  12.989   0.793 -0.1971 -0.1992 -0.2747
 7979W        W24826   3.768   7.449  13.411  0.2727  0.0993  0.2071
 7980W        W24827  14.542   0.201  11.049  0.0969 -0.2186 -0.1765
 7981W        W24828  12.513  16.338   4.840 -0.2164  0.1602 -0.1435
 7982W        W24829  18.069  12.018   4.019 -0.0795 -0.3659  0.1184
 7983W        W24830  17.025  14.634  11.578  0.2061  0.3080 -0.0491
 7984W        W24831   0.915   2.766   4.316  0.0041  0.0234  0.0742
 7985W        W24832  15.567   1.448   4.655 -0.0542  0.0644  0.0668
 7986W        W24833   7.270  15.959   3.902 -0.0467  0.0622  0.0392
 7987W        W24834  12.357  14.525  14.507  0.0130 -0.2428  0.0503
 7988W        W24835  12.453   2.781   4.431  0.0807 -0.1451  0.0127
 7989W        W24836   0.238  15.429   0.497 -0.0173  0.0596  0.0633
 7990W        W24837  13.947   7.662  13.783  0.2889 -0.1070 -0.1717
 7991W        W24838   6.742  13.132  10.316 -0.1081 -0.0283  0.1978
 7992W        W24839  15.566  18.823  13.860 -0.3724 -0.0969  0.4234
 7993W        W24840  16.884  13.408   3.848 -0.1458 -0.0344  0.0504
 7994W        W24841   1.657   6.868   4.586 -0.1728 -0.0666 -0.1202
 7995W        W24842   0.691   2.391  13.148 -0.0833  0.1261  0.1843
 7996W        W24843   0.719  10.185   6.075  0.1975 -0.0437 -0.1072
 7997W        W24844   6.934   7.701   3.551  0.3660 -0.1911  0.0269
 7998W        W24845   6.501   4.359   4.333  0.2700 -0.0463  0.3883
 7999W        W24846  18.207  13.194   3.577  0.1081  0.2036  0.1702
 8000W        W24847  12.808   1.731   4.426  0.0376 -0.2141  0.1957
 8001W        W24848  14.839   9.259  14.392 -0.2725  0.0537 -0.2353
 8002W        W24849  10.630   5.531   0.038 -0.2133  0.1787  0.0245
 8003W        W24850  12.089  18.562   9.317  0.1842 -0.1952  0.0818
 8004W        W24851  12.999  12.349  10.131  0.2085  0.3482 -0.0314
 8005W        W24852   2.598   0.696  13.400  0.1263  0.1397  0.0751
 8006W        W24853   8.006  14.396   3.469 -0.1248  0.2367  0.2471
 8007W        W24854   6.875   6.549  10.498 -0.1566  0.0645 -0.0454
 8008W        W24855  16.712   9.428   1.349  0.0313  0.1683 -0.1380
 8009W        W24856   7.078  19.369  13.398 -0.1734  0.0570  0.1559
 8010W        W24857  18.562  18.724   0.070  0.1587  0.0605  0.0257
 8011W        W24858  14.577  19.064   4.712 -0.4432 -0.2560 -0.1854
 8012W        W24859  15.211  17.865  10.274 -0.3102  0.1202  0.0522
 8013W        W24860   0.484  19.389   1.497 -0.0087  0.0343 -0.0528
 8014W        W24861  12.527  13.118  11.402 -0.3294  0.3551 -0.1786
 8015W        W24862   4.326  15.049   2.071 -0.0332 -0.2450  0.0863
 8016W        W24863  15.018  11.194   4.060  0.2510 -0.1286 -0.0294
 8017W        W24864  15.727   5.454  11.479  0.1383  0.0456  0.4275
 8018W        W24865  14.022  16.061  12.811  0.1965  0.0470 -0.2633
 8019W        W24866   2.106  11.112  11.333  0.0057  0.2657  0.2288
 8020W        W24867   1.639   9.985   4.808  0.0952 -0.0416  0.0457
 8021W        W24868   6.958  11.208   5.279  0.3530 -0.0780  0.2455
 8022W        W24869  15.297  14.792   1.496 -0.0548  0.0407 -0.2908
 8023W        W24870  16.545   2.305  10.616 -0.0359 -0.0998 -0.1100
 8024W        W24871   0.746   3.460   2.294 -0.1329  0.0825 -0.0901
 8025W        W24872   8.237   9.420   0.921  0.0594 -0.0624  0.0375
 8026W        W24873  14.604  17.015  12.375 -0.0793  0.2495 -0.2117
 8027W        W24874   6.939  19.604   2.987  0.0700 -0.0648 -0.3948
 8028W        W24875  14.644  10.436   4.232 -0.1626  0.0602 -0.2957
 8029W        W24876  14.845  10.866   4.414  0.1058 -0.2883  0.0177
 8030W        W24877  10.293  12.951  10.913 -0.2020  0.2074 -0.5363
 8031W        W24878  11.146  15.457  10.800 -0.0014 -0.1106  0.1675
 8032W        W24879   0.041  16.865   0.956 -0.2445 -0.0458 -0.4215
 8033W        W24880  16.898   8.525   5.022 -0.0725  0.1974 -0.0651
 8034W        W24881   2.027  14.003   3.330 -0.2009  0.2924 -0.1745
 8035W        W24882   8.567  11.606  10.677  0.1522  0.0140  0.0201
 8036W        W24883   6.041  13.868   2.132 -0.0502 -0.1479 -0.1676
 8037W        W24884   8.309  10.589   0.434  0.1298 -0.1630  0.0903
 8038W        W24885   5.501   7.819   1.069  0.1221  0.0155 -0.0399
 8039W        W24886  14.882   2.185   3.750 -0.0459  0.1005  0.4201
 8040W        W24887  12.491   8.606  12.950  0.0791  0.3065 -0.0116
 8041W        W24888   6.127   9.791  13.003  0.0362 -0.0072 -0.1218
 8042W        W24889   0.603   5.726  10.715 -0.2382  0.1836 -0.0605
 8043W        W24890   8.026   7.030   5.404  0.0218  0.2298 -0.0379
 8044W        W24891  14.864  10.847   3.425 -0.2129  0.1181  0.0353
 8045W        W24892  17.562  14.186  14.005 -0.1119  0.3394 -0.0581
 8046W        W24893   8.822  15.010   3.815 -0.2280 -0.1223 -0.1773
 8047W        W24894  13.278   3.277  13.576  0.0318 -0.1188 -0.0863
 8048W        W24895   6.047   9.800   3.645 -0.1115 -0.4311 -0.1854
 8049W        W24896  16.730  15.187   3.538  0.0266  0.1084 -0.1791
 8050W        W24897   1.327  17.022   4.039 -0.0438  0.1045  0.0962
 8051W        W24898  16.694  14.629   2.725  0.0155 -0.1108 -0.0716
 8052W        W24899  17.464  19.543  12.644 -0.3934  0.2239 -0.0213
 8053W        W24900   7.440   8.241   0.822  0.0525 -0.1093  0.0230
 8054W        W24901   3.408   5.108   1.564  0.0448  0.0655 -0.2792
 8055W        W24902  17.917   4.599  14.579  0.0470 -0.3616 -0.1407
 8056W        W24903  12.269  18.722   0.515  0.1651  0.1990  0.1698
 8057W        W24904  18.858   1.186  14.257 -0.0319  0.1671  0.0221
 8058W        W24905  14.937   8.421   2.125 -0.2327  0.3315  0.0104
 8059W        W24906   3.638   3.007   1.863 -0.1383  0.1859  0.2634
 8060W        W24907   2.477   6.469  13.847  0.1077  0.3176 -0.0234
 8061W        W24908   5.672  11.964  14.348  0.0517 -0.2729  0.2247
 8062W        W24909   2.214   9.516  13.894 -0.0144 -0.1763 -0.3609
 8063W        W24910   6.348  13.170   4.018  0.0295  0.1639  0.0163
 8064W        W24911  14.683   2.464  14.391 -0.3012 -0.1015 -0.0662
 8065W        W24912   3.774   8.633   2.998 -0.0460  0.1089 -0.2664
 8066W        W24913   0.507  19.477   0.168 -0.1925 -0.0504 -0.0378
 8067W        W24914   9.404  15.763  14.363  0.0334  0.1369 -0.0611
 8068W        W24915  12.870  11.266  10.731 -0.0612 -0.1799  0.0300
 8069W        W24916  17.633   6.488  11.984  0.2067  0.0930 -0.0120
 8070W        W24917  16.766  12.376  12.690 -0.4362  0.0322  0.5928
 8071W        W24918   6.500   3.567   0.105 -0.1172  0.2806  0.0750
 8072W        W24919   8.538  16.186   1.293  0.0085  0.0629  0.0238
 8073W        W24920   4.227  18.371   4.184 -0.0944 -0.0174  0.1505
 8074W        W24921  10.085   8.348  11.310  0.0607 -0.2713  0.2677
 8075W        W24922  14.192  17.599  14.197  0.1125  0.0692  0.1932
 8076W        W24923  17.062  16.521  11.730 -0.2193  0.0073  0.1283
 8077W        W24924   9.383  13.256   3.638  0.0763 -0.2397  0.0533
 8078W        W24925  17.394  19.163  10.977  0.1170 -0.2366  0.1072
 8079W        W24926   3.684  14.671  10.443  0.4078 -0.0980 -0.0395
 8080W        W24927  11.359  13.294  14.053 -0.0403  0.0540 -0.0875
 8081W        W24928  18.808  10.661  11.079  0.3141  0.2098 -0.3975
 8082W        W24929  10.504   5.041  12.476  0.2611 -0.3043 -0.3686
 8083W        W24930  10.736  18.981  12.551  0.0259  0.1528 -0.2185
 8084W        W24931  13.322  17.294  13.973 -0.4824  0.1281 -0.1088
 8085W        W24932   6.661   9.637  10.140  0.3586 -0.2058 -0.0455
 8086W        W24933  19.479   7.778  10.773 -0.0592  0.0326  0.1479
 8087W        W24934   0.000   1.125   5.147  0.2682 -0.2873 -0.1078
 8088W        W24935   4.002  13.961   1.872 -0.2145 -0.1014  0.0009
 8089W        W24936  17.780   3.176  10.991  0.3017  0.0913 -0.1708
 8090W        W24937  17.472  11.332  14.138  0.0575  0.1157 -0.0132
 8091W        W24938  10.288  12.490   3.069  0.0872  0.4147  0.0786
 8092W        W24939   8.636   9.597   3.810  0.0049  0.1102  0.2013
 8093W        W24940   8.468  18.142   3.569  0.0845 -0.1564  0.1644
 8094W        W24941  16.455  15.594   3.873 -0.2940  0.0044  0.0461
 8095W        W24942   2.687   3.273   2.760  0.0761 -0.3062 -0.0653
 8096W        W24943  17.245  13.980   3.148 -0.0755 -0.1414  0.0662
 8097W        W24944  15.196  13.870   2.448 -0.3085  0.1108  0.5128
 8098W        W24945  13.563   8.013   0.214  0.0275  0.0385 -0.1067
 8099W        W24946   2.893  11.370   1.555 -0.1537 -0.2383  0.0097
 8100W        W24947   3.339   3.736   3.137  0.0135  0.2205 -0.0492
 8101W        W24948  12.832  14.797   0.050 -0.0508 -0.1040 -0.2282
 8102W        W24949   9.143   7.489   0.153  0.0424  0.0834  0.0723
 8103W        W24950  13.680   0.457  14.265  0.0329  0.0836 -0.1525
 8104W        W24951   1.910   7.596   3.520 -0.0510  0.2002 -0.1951
 8105W        W24952   3.938   4.422   3.326 -0.0944 -0.2650  0.1978
 8106W        W24953   1.225   1.925   3.177  0.0090  0.0064 -0.0416
 8107W        W24954   4.909   3.308   0.158  0.0408 -0.1387  0.1322
 8108W        W24955  18.079   2.069  13.860 -0.1879 -0.1588 -0.2018
 8109W        W24956  17.017   9.373  14.526 -0.0444 -0.1149 -0.2543
 8110W        W24957   1.300  12.808   2.173  0.3498 -0.1757 -0.0203
 8111W        W24958  18.254  13.572  11.154 -0.3946  0.0216 -0.0787
 8112W        W24959   4.017   6.709   1.319 -0.1283 -0.2648 -0.0082
 8113W        W24960  16.692  13.992   1.728  0.1264  0.1041 -0.0160
 8114W        W24961  16.231   6.820  14.098  0.2908  0.2156 -0.0458
 8115W        W24962  14.780  18.140   4.990 -0.1525 -0.0344  0.1807
 8116W        W24963   2.305   3.160  11.645  0.1014 -0.0874  0.3847
 8117W        W24964   9.680   6.104  14.411  0.2202 -0.3383  0.4208
 8118W        W24965   9.247  11.788   2.108  0.0536  0.0050 -0.3318
 8119W        W24966  19.130  18.652   1.813  0.0306  0.2669 -0.0040
 8120W        W24967  12.183  17.094  11.274  0.1772 -0.0311 -0.4329
 8121W        W24968   3.834   7.048   4.472  0.1409 -0.2888 -0.1300
 8122W        W24969  15.515  10.833   1.431  0.0350  0.0403 -0.3938
 8123W        W24970  18.098   9.700   2.224 -0.1032  0.0035 -0.1381
 8124W        W24971   9.776   5.393  11.124  0.1387 -0.0521 -0.1700
 8125W        W24972   5.790   7.626   1.958  0.0017  0.0749 -0.2248
 8126W        W24973  10.060   4.047   0.175 -0.0815  0.0248  0.0991
 8127W        W24974  18.289   8.078   0.862  0.2030  0.0456 -0.1410
 8128W        W24975   2.361   9.275   4.821 -0.2251  0.2931  0.0288
 8129W        W24976  10.383  12.776  11.935  0.4050  0.0260 -0.3716
 8130W        W24977   3.365  11.139   3.624 -0.2842  0.0994 -0.3484
 8131W        W24978   4.103   2.279   1.272 -0.1459  0.0869 -0.3411
 8132W        W24979  12.414   7.189  11.060 -0.0277 -0.0821  0.0455
 8133W        W24980   6.049  13.779  10.712 -0.0528 -0.1658  0.1719
 8134W        W24981   5.407   8.470  14.065 -0.3471  0.1587 -0.1737
 8135W        W24982  19.076  11.483   0.138  0.4198 -0.1092  0.1751
 8136W        W24983   3.305   4.922   2.524  0.0647  0.1360  0.2845
 8137W        W24984  16.994   7.803   4.255  0.1373  0.0520 -0.0688
 8138W        W24985   4.090  18.942  12.448 -0.1742 -0.0660  0.1840
 8139W        W24986  12.065  17.678   1.724  0.0554  0.2728  0.2538
 8140W        W24987  15.108   1.175   0.913 -0.0115 -0.0371 -0.1044
 8141W        W24988  13.852   0.597   3.345  0.1743 -0.0101 -0.3684
 8142W        W24989  18.905  14.263  13.933 -0.2044 -0.1758 -0.2684
 8143W        W24990  17.273   6.249   3.559 -0.3474 -0.1169 -0.0388
 8144W        W24991   3.631  16.727  11.936 -0.4614 -0.0271  0.3154
 8145W        W24992  17.544   7.735   2.779  0.2938 -0.1537  0.1552
 8146W        W24993  13.596  13.837  11.761  0.1725  0.4595 -0.2431
 8147W        W24994   8.300  11.858   2.308  0.3105 -0.1011  0.0447
 8148W        W24995  14.784   2.497  11.112 -0.0435  0.2336 -0.2027
 8149W        W24996  15.827   5.880   5.424  0.0244 -0.0566 -0.1747
 8150W        W24997   3.212  13.114   0.676  0.0827 -0.1286  0.0838
 8151W        W24998   1.500  19.417  13.435 -0.2131  0.0256  0.1383
 8152W        W24999   4.435   8.542   2.021 -0.4326 -0.3299 -0.1761
 8153W        W25000   4.975  15.427  10.336 -0.0263  0.0386  0.2320
 8154W        W25001   3.455   7.832  13.365 -0.0150 -0.1577  0.0519
 8155W        W25002   7.050  11.707   1.019 -0.1661  0.0855 -0.2459
 8156W        W25003  12.382   6.127   2.243  0.1472  0.2307  0.0440
 8157W        W25004   8.520  17.426  14.435  0.0342 -0.2188  0.1543
 8158W        W25005  11.419  10.582   3.653  0.1364  0.2790  0.3446
 8159W        W25006   5.194   2.258   3.735  0.0321 -0.1106 -0.1470
 8160W        W25007   5.740   0.413  10.583  0.0799  0.1753  0.3991
 8161W        W25008   7.835  16.081   4.008 -0.0428  0.2443  0.1986
 8162W        W25009  15.683  13.305  11.722  0.1372 -0.1121  0.0007
 8163W        W25010   3.402   1.036  10.253 -0.4155 -0.0738 -0.0108
 8164W        W25011   9.750   4.085  10.216  0.1082 -0.0174  0.1438
 8165W        W25012  18.463   6.847  11.247 -0.0558 -0.0457 -0.3137
 8166W        W25013  11.294   1.230   2.707 -0.0041  0.4294  0.2262
 8167W        W25014   5.793  17.116  10.127 -0.1784 -0.1529 -0.1187
 8168W        W25015   8.522   6.608  11.872  0.1820  0.0076 -0.1492
 8169W        W25016   7.534   6.495   1.666 -0.0042 -0.0380 -0.0004
 8170W        W25017  16.034  15.700   1.852 -0.3291  0.2069 -0.0666
 8171W        W25018  18.568  17.054   5.030 -0.5973  0.0576 -0.2307
 8172W        W25019  15.667  10.099   1.514 -0.2030  0.0308 -0.1198
 8173W        W25020   0.363   2.702   2.234 -0.1930  0.0397 -0.1404
 8174W        W25021  19.138  10.024   5.190  0.0781 -0.1484 -0.0399
 8175W        W25022  15.813   1.851  13.533 -0.0009 -0.0170 -0.1445
 8176W        W25023  17.100   3.644   3.553  0.1466 -0.0025 -0.1260
 8177W        W25024   4.947   6.221  11.938 -0.2110  0.1331 -0.0845
 8178W        W25025   7.803   5.612  13.399 -0.2318 -0.0346  0.0870
 8179W        W25026  10.939   3.318  13.922  0.0465  0.0466 -0.0164
 8180W        W25027   2.212  11.113   3.116  0.0645  0.2211  0.0015
 8181W        W25028  16.455   0.618  10.770 -0.0002  0.0674  0.2657
 8182W        W25029  13.831   7.229   4.140 -0.1842  0.1664 -0.1168
 8183W        W25030   5.395   0.587   9.531 -0.1061 -0.0122 -0.1258
 8184W        W25031   6.120   9.651   2.951  0.0026  0.1810 -0.2128
 8185W        W25032  10.852  17.121   2.919  0.1505 -0.0809  0.0938
 8186W        W25033   4.111   0.791   2.304  0.2574  0.0173 -0.0015
 8187W        W25034  17.721  15.130  11.019 -0.0476 -0.0613  0.2906
 8188W        W25035   6.404   7.945   4.664 -0.0716 -0.4169 -0.1384
 8189W        W25036   1.354   0.951   3.301 -0.1080  0.4209 -0.0171
 8190W        W25037  15.943   4.716  10.519 -0.0504  0.2447 -0.0347
 8191W        W25038  17.603  10.251   0.788  0.0796  0.3295  0.1646
 8192W        W25039   3.328   5.078  12.450  0.0027 -0.1441  0.0215
 8193W        W25040  10.962   3.659  13.049  0.2352 -0.1539 -0.3646
 8194W        W25041  14.568   2.084  10.714 -0.0708 -0.1092  0.1451
 8195W        W25042  15.456  15.219  14.375  0.1917 -0.0617 -0.2857
 8196W        W25043   2.961   1.251  11.891  0.1918  0.2004 -0.1774
 8197W        W25044   0.826   8.579  10.647  0.1750  0.2874  0.3067
 8198W        W25045  13.842  19.005   4.100 -0.2910  0.1478 -0.1337
 8199W        W25046   8.144   7.218   4.225 -0.1363 -0.0948 -0.2200
 8200W        W25047  18.720   0.506   1.438  0.2613  0.1123 -0.0285
 8201W        W25048  18.848  16.930  11.074  0.0922 -0.1820  0.0431
 8202W        W25049   5.128  11.353   1.441 -0.1705  0.0340 -0.1853
 8203W        W25050  16.172   2.900   1.891  0.1835  0.0717  0.0347
 8204W        W25051  18.655  18.228  11.780 -0.0748 -0.0956 -0.1533
 8205W        W25052  12.749  13.002   4.566 -0.0694  0.1769  0.0564
 8206W        W25053   7.882   9.351  12.519  0.1044 -0.0538 -0.0096
 8207W        W25054   4.419  14.567  11.755 -0.2516 -0.1599 -0.2059
 8208W        W25055  14.558   4.778   0.269 -0.1603 -0.0627  0.1095
 8209W        W25056   9.212  15.170   4.158  0.0556 -0.4164  0.1707
 8210W        W25057  17.201  17.572   1.272 -0.0864  0.1156  0.0088
 8211W        W25058   3.081   3.576   0.795 -0.1032  0.2190  0.2834
 8212W        W25059   4.306   0.997   2.753 -0.1431  0.0340 -0.0143
 8213W        W25060   9.081  12.799  13.838  0.0793 -0.0091 -0.1370
 8214W        W25061  10.186   6.744   9.591  0.1563  0.1636  0.1182
 8215W        W25062  10.196  18.689   1.484  0.0447  0.1799  0.0846
 8216W        W25063   8.346  19.578   2.142  0.3955 -0.2997 -0.5451
 8217W        W25064   3.414   9.541  13.709  0.0482  0.0893 -0.2864
 8218W        W25065   8.494  17.752   4.640 -0.2826  0.0486 -0.2372
 8219W        W25066  12.470  18.556  14.140 -0.0942  0.2502 -0.0273
 8220W        W25067   2.626  11.940   3.248  0.1868 -0.0327 -0.1913
 8221W        W25068   6.800   4.915  14.387  0.1229 -0.0556  0.3365
 8222W        W25069   6.119   4.486  11.580 -0.0829  0.0711 -0.1235
 8223W        W25070  14.039  15.423   2.691  0.0351  0.0257 -0.1924
 8224W        W25071   5.962  17.396  11.304 -0.1687 -0.0586 -0.2094
 8225W        W25072  16.489  12.656  12.956 -0.0114 -0.0685 -0.0529
 8226W        W25073  18.096  13.525  13.812 -0.4409 -0.1821  0.0185
 8227W        W25074   8.935  19.314   4.079  0.0485  0.2184 -0.1655
 8228W        W25075  17.066   7.236   1.801  0.0272  0.2028  0.2084
 8229W        W25076   6.736   8.118   3.723  0.3655 -0.1729  0.1414
 8230W        W25077  14.800  15.931   3.471  0.1347 -0.0022 -0.0194
 8231W        W25078  17.694  18.704   3.056 -0.2430 -0.1951  0.0641
 8232W        W25079  10.124  17.125  12.142 -0.1473  0.0700 -0.0377
 8233W        W25080  15.288  12.024   1.991  0.0270  0.3122  0.5346
 8234W        W25081  17.579  10.781   0.824  0.1362 -0.1316 -0.2245
 8235W        W25082  16.611   1.123  11.412  0.1473 -0.0484  0.1063
 8236W        W25083  13.218  19.208   1.953 -0.1305  0.1418 -0.3139
 8237W        W25084  13.531   2.762   3.729  0.2388 -0.0631  0.1673
 8238W        W25085   1.813   6.081   0.649 -0.0508 -0.0989 -0.1893
 8239W        W25086   9.952   3.854   1.116  0.1087  0.1298 -0.2224
 8240W        W25087   8.446   1.449  11.164 -0.0939 -0.4130 -0.0508
 8241W        W25088   0.768   9.637  14.091  0.1477 -0.1861  0.0504
 8242W        W25089  18.297   5.024  13.621 -0.0135 -0.3667 -0.0198
 8243W        W25090  14.342   5.698  12.935 -0.0010 -0.1163  0.0025
 8244W        W25091  11.792   0.585   4.495  0.2312  0.1239  0.2570
 8245W        W25092  15.809   5.858  14.213 -0.0646 -0.0335 -0.0604
 8246W        W25093   6.912   2.670  13.152  0.0683 -0.1087  0.1625
 8247W        W25094   6.268   9.174   0.247 -0.1213 -0.0373 -0.1979
 8248W        W25095  16.619  16.316   2.250  0.0636 -0.4575 -0.2629
 8249W        W25096   4.184   8.536   0.481  0.1189  0.1442  0.0025
 8250W        W25097   8.301  17.646  13.387  0.0592 -0.1400  0.0563
 8251W        W25098   7.563  18.111  10.418 -0.3211  0.2451 -0.0653
 8252W        W25099   1.690  12.265  12.494 -0.4826  0.0976  0.1057
 8253W        W25100   9.651  12.834  10.414  0.4067 -0.1415  0.0618
 8254W        W25101   5.458   6.354   0.674 -0.2866  0.1933 -0.0973
 8255W        W25102  17.783   7.048   2.773  0.0498 -0.4164 -0.1016
 8256W        W25103   0.389  16.874   4.087 -0.0008  0.1284 -0.1135
 8257W        W25104  18.614  13.195  10.199  0.2684 -0.2335  0.1658
 8258W        W25105   7.995  16.242   1.509 -0.1023 -0.0661 -0.0734
 8259W        W25106   2.153  16.655  10.478  0.6899 -0.1987 -0.2932
 8260W        W25107   7.988  12.034   0.768 -0.1340 -0.2211  0.0486
 8261W        W25108  18.160  14.112  12.121  0.2755  0.0731 -0.1375
 8262W        W25109  11.399   5.676  10.932 -0.3941  0.0331  0.0369
 8263W        W25110   1.889  17.535  13.117  0.3524 -0.2384  0.0242
 8264W        W25111   5.654   6.364  11.411  0.0632 -0.2318 -0.0589
 8265W        W25112   6.745  13.846   1.700  0.0183 -0.1258  0.1069
 8266W        W25113  14.676  13.339   0.790  0.1037 -0.0201  0.2293
 8267W        W25114   6.848   0.302   2.616  0.0187 -0.1491  0.0092
 8268W        W25115   3.366   4.461   1.899  0.3478  0.3100  0.0216
 8269W        W25116  11.026  13.927  14.542 -0.1004  0.1291 -0.1942
 8270W        W25117   8.563   7.334  13.299  0.0904  0.0999  0.0296
 8271W        W25118   6.501   0.490   0.246 -0.2582 -0.1411 -0.0302
 8272W        W25119   5.272  14.677   2.235  0.1258  0.0847  0.0590
 8273W        W25120  19.203   6.053  10.798 -0.0138 -0.1356 -0.0281
 8274W        W25121  17.007   7.899  11.222  0.1339  0.0513 -0.1680
 8275W        W25122   4.564  13.671  10.739 -0.0203  0.1497  0.0508
 8276W        W25123  19.155   1.816  11.994 -0.1055  0.0360  0.2084
 8277W        W25124  10.225   6.026  12.585 -0.2608  0.1679  0.0614
 8278W        W25125  19.144   9.912  14.022 -0.1404 -0.0544 -0.1333
 8279W        W25126   0.605   5.147   0.845 -0.0088  0.0416  0.3087
 8280W        W25127  16.667  18.451   3.883  0.3066 -0.1375  0.0906
 8281W        W25128   0.787  11.856  10.543 -0.1102 -0.1343 -0.0075
 8282W        W25129  16.694  13.742   4.789  0.0254 -0.0238 -0.0333
 8283W        W25130   9.156  10.339   0.629  0.0041 -0.0797 -0.2023
 8284W        W25131  18.119   4.999   1.780  0.1867 -0.0158  0.1322
 8285W        W25132  13.828  13.661  12.776 -0.0213 -0.1311 -0.3644
 8286W        W25133   3.481   5.419   0.035  0.2560  0.4210 -0.0407
 8287W        W25134   4.634  16.853   2.454 -0.0005 -0.3379  0.0894
 8288W        W25135  11.007   5.686   3.451 -0.0772  0.2211  0.1499
 8289W        W25136   5.025   4.532  14.024 -0.0533  0.2440  0.0237
 8290W        W25137  12.511   2.182   2.232  0.0027 -0.1049  0.3125
 8291W        W25138   6.360   3.381   1.513  0.0299  0.2308  0.1143
 8292W        W25139   5.990   2.870   4.599  0.0994  0.0983 -0.1717
 8293W        W25140   3.433  14.008   3.340 -0.2999  0.5056  0.0836
 8294W        W25141   3.482  12.434   0.047  0.1783 -0.2014 -0.0324
 8295W        W25142   5.865   3.459   2.015 -0.0141 -0.0425 -0.2905
 8296W        W25143   4.069  14.415  10.672  0.0502 -0.1091  0.0121
 8297W        W25144  14.017   1.122  12.621  0.0598  0.0168  0.2447
 8298W        W25145  12.859   1.158  13.114  0.1873  0.1236  0.3724
 8299W        W25146  10.808   3.295  13.328  0.0891  0.0578 -0.0449
 8300W        W25147  10.820  18.324   4.320  0.1339 -0.2953 -0.3349
 8301W        W25148  19.278   1.110  10.261 -0.3043 -0.5636  0.3573
 8302W        W25149   7.028   4.598  12.122  0.3381 -0.3942  0.3879
 8303W        W25150  17.515  16.647  11.878  0.0941  0.1447  0.0606
 8304W        W25151  12.161   1.857  10.815 -0.2436  0.1291  0.1739
 8305W        W25152  18.899   6.282   0.921  0.0987 -0.1656  0.2310
 8306W        W25153   9.352   6.714   2.529 -0.1502  0.2173 -0.0108
 8307W        W25154  18.635  13.835  14.460 -0.1839  0.3423 -0.0925
 8308W        W25155  16.222   4.052   1.054  0.0570 -0.1809  0.2127
 8309W        W25156   1.983  15.201   2.723  0.2692 -0.1959  0.1775
 8310W        W25157  17.845   9.157   4.894  0.1818 -0.4955 -0.0357
 8311W        W25158   5.974   0.150   0.598 -0.0351 -0.3097  0.3013
 8312W        W25159   3.736   6.308   4.375  0.3678 -0.0194  0.1485
 8313W        W25160  12.367   3.638  14.407  0.0465  0.0119 -0.1450
 8314W        W25161  10.742  11.529  12.555  0.0690 -0.2222 -0.0214
 8315W        W25162   4.735  16.142  14.302  0.3035  0.0658 -0.0693
 8316W        W25163   0.211  13.162   0.770 -0.0495 -0.1700 -0.0112
 8317W        W25164   4.251   0.413   5.084  0.0273 -0.2364  0.0106
 8318W        W25165   3.060  10.639   0.713  0.0847  0.3343  0.1216
 8319W        W25166   6.978  19.013  12.654 -0.0135  0.0622 -0.0329
 8320W        W25167  12.838  17.288  12.868 -0.1536  0.0800 -0.2387
 8321W        W25168  15.142  12.123  11.778 -0.1811 -0.1080 -0.0014
 8322W        W25169   4.846   5.642  11.000  0.0976 -0.0368 -0.0273
 8323W        W25170   9.653   0.036  11.293  0.0064 -0.1152 -0.2527
 8324W        W25171  18.931   9.728   1.037  0.0958  0.3750 -0.0060
 8325W        W25172  17.050   0.626   0.711  0.0215  0.1756  0.0838
 8326W        W25173  10.814   6.985  10.085  0.1167 -0.0361 -0.0927
 8327W        W25174   4.693   8.008  10.256 -0.2018  0.0856  0.0171
 8328W        W25175  11.710  15.318   3.859 -0.0054  0.0043 -0.1683
 8329W        W25176  10.572   0.630  12.232 -0.1152  0.0790 -0.2601
 8330W        W25177  15.974  16.921   1.146  0.0291  0.1679  0.2737
 8331W        W25178  13.052  13.450   1.122 -0.2841 -0.0204 -0.1707
 8332W        W25179   3.777  16.433  11.450  0.1811  0.0007  0.0458
 8333W        W25180   3.590   9.916   2.946  0.1610 -0.1594  0.0834
 8334W        W25181   5.750   8.445  10.557  0.0593 -0.3253 -0.0689
 8335W        W25182  17.326   9.817  11.913  0.1336  0.0867  0.0550
 8336W        W25183  19.503  19.219   0.889  0.0458 -0.1766 -0.0600
 8337W        W25184  17.245   5.192  10.199  0.1196  0.3884 -0.1438
 8338W        W25185   6.301   8.300   0.892 -0.2207 -0.3185 -0.1399
 8339W        W25186  17.233   3.793  12.879 -0.3394  0.0446 -0.1152
 8340W        W25187  14.857   3.907   4.446  0.2800 -0.0734  0.0654
 8341W        W25188  11.495  19.437   4.677  0.4186 -0.2478 -0.0396
 8342W        W25189  13.352   3.429  11.423 -0.0185 -0.1385 -0.1445
 8343W        W25190   7.397  15.905   0.474  0.2987  0.0175 -0.0763
 8344W        W25191   5.382   7.772  11.303  0.1835 -0.0152 -0.0133
 8345W        W25192  10.827   2.319  10.491 -0.0638 -0.1205  0.1248
 8346W        W25193   6.431  12.800   1.672  0.1672  0.3209  0.0892
 8347W        W25194   0.618   2.643  10.146  0.0339  0.5682  0.0263
 8348W        W25195   2.693  11.869   0.043  0.2951 -0.3515  0.1374
 8349W        W25196  12.421  17.423  13.806  0.1868 -0.0312  0.0053
 8350W        W25197  10.943   2.386   0.428  0.0154  0.0945  0.0911
 8351W        W25198   8.500   9.894  14.532 -0.0405  0.2444 -0.2343
 8352W        W25199  14.073   5.764  13.372 -0.0711 -0.2101 -0.1939
 8353W        W25200   5.042   3.252  12.873  0.0614  0.2665 -0.1891
 8354W        W25201   8.935   5.686  12.059  0.2906  0.1738 -0.1080
 8355W        W25202   7.381   9.346   2.258  0.1096  0.0564 -0.1312
 8356W        W25203  14.549   4.915   3.423  0.1175 -0.2315  0.1524
 8357W        W25204   9.192  14.851   2.800  0.1683 -0.1381  0.1587
 8358W        W25205  15.790   2.282  14.276  0.3138 -0.0312  0.3650
 8359W        W25206   1.912   8.987   5.532  0.0248  0.0623 -0.0710
 8360W        W25207   7.649  17.734   2.301 -0.0538 -0.1089 -0.0057
 8361W        W25208  18.724  11.853   2.776  0.2224 -0.1228 -0.1133
 8362W        W25209   7.751   2.845  14.413 -0.2004  0.2234 -0.0177
 8363W        W25210   8.084  15.826   0.642 -0.1492 -0.0930 -0.0809
 8364W        W25211   0.581  13.779   1.966  0.0806  0.4197  0.2586
 8365W        W25212  15.788  14.144  13.623 -0.3586  0.4027 -0.2443
 8366W        W25213  13.768  17.343   0.702  0.0513  0.1947 -0.3643
 8367W        W25214  18.873  15.639   0.169  0.3977  0.1110  0.0101
 8368W        W25215   0.125  15.313  13.560  0.0316 -0.0311 -0.0406
 8369W        W25216  12.008   1.659   4.278 -0.2195 -0.0000 -0.2288
 8370W        W25217  15.028  12.998  10.424 -0.1456 -0.0274  0.0524
 8371W        W25218   0.800  15.818   2.114 -0.3539  0.0731 -0.1836
 8372W        W25219  10.607   3.716  13.759 -0.4329  0.1004  0.0464
 8373W        W25220  16.453  12.529   1.064 -0.2476  0.0068 -0.1978
 8374W        W25221  17.791  18.785  12.685 -0.1918 -0.0797  0.0169
 8375W        W25222   6.919  12.122  14.062 -0.1575 -0.1471  0.2587
 8376W        W25223  17.468   4.337  12.758 -0.0282  0.3969  0.1481
 8377W        W25224  14.167  15.497   1.353 -0.1850 -0.0637  0.2296
 8378W        W25225  16.409   2.357   0.726 -0.2021  0.0653 -0.3027
 8379W        W25226   3.706  17.839   3.837 -0.1776 -0.1259 -0.0298
 8380W        W25227  18.485   5.239   2.464 -0.2607 -0.0712 -0.0235
 8381W        W25228   2.916   2.178  10.223  0.1861 -0.1102 -0.0385
 8382W        W25229  16.693  16.601  10.834 -0.1016 -0.0490  0.0234
 8383W        W25230  19.629   0.286   1.618 -0.0063  0.1805 -0.0317
 8384W        W25231  11.328   8.378   1.448  0.1663 -0.0495 -0.1164
 8385W        W25232   7.886   0.540  11.342 -0.0329 -0.1298 -0.2031
 8386W        W25233   8.901  17.112   2.154  0.0598  0.0952 -0.0451
 8387W        W25234  18.837   1.029  10.434  0.0125  0.1079  0.0544
 8388W        W25235  14.756  13.078   0.154  0.0546 -0.3100 -0.2293
 8389W        W25236  11.607   6.778  11.024  0.3334  0.2135 -0.0723
 8390W        W25237   7.841   0.207   3.617 -0.1014  0.3216  0.2327
 8391W        W25238   2.987   0.789   9.855 -0.0284 -0.4737  0.0055
 8392W        W25239  12.337   1.638   1.716  0.1608 -0.1754 -0.0654
 8393W        W25240  16.900  14.197   4.965 -0.1461 -0.1469  0.2259
 8394W        W25241   5.376   3.579   3.210 -0.0069 -0.1945 -0.0591
 8395W        W25242   3.774   6.860   3.482 -0.0375  0.1969  0.2115
 8396W        W25243   3.363  13.018  10.608 -0.3460  0.1595 -0.0224
 8397W        W25244   6.952  15.733   3.098 -0.1772  0.0444  0.1112
 8398W        W25245   8.207   6.074  10.328 -0.0874  0.1013  0.3083
 8399W        W25246   2.072   0.683  13.276 -0.2395 -0.3526  0.2997
 8400W        W25247  19.435   1.315   0.475 -0.2851 -0.0034 -0.1006
 8401W        W25248  12.541   0.714   3.913 -0.0491  0.0984  0.1812
 8402W        W25249  19.288  11.509   1.399 -0.1115 -0.1745 -0.0595
 8403W        W25250  11.391   9.728   2.105  0.0208 -0.2903 -0.2598
 8404W        W25251   3.856  14.909  14.069 -0.0053 -0.0540  0.1272
 8405W        W25252   9.395   8.251   0.503 -0.1121  0.4111 -0.1262
 8406W        W25253  12.250  14.194  11.935 -0.0355  0.0684 -0.2014
 8407W        W25254  11.534  11.034  13.494  0.0111  0.1315  0.1853
 8408W        W25255  10.319  12.389   0.996 -0.2925 -0.0392 -0.5735
 8409W        W25256   1.960   0.582   5.378 -0.2092  0.0364 -0.0861
 8410W        W25257   6.747   6.455   2.815  0.1954  0.0606  0.2538
 8411W        W25258   1.852  15.427   3.595  0.1731  0.5370 -0.0224
 8412W        W25259   7.848  13.744   1.524  0.0132 -0.5555  0.1383
 8413W        W25260   2.557   0.622  12.042  0.0673 -0.0131  0.5490
 8414W        W25261  18.168  13.501   3.182 -0.1643 -0.2252  0.0670
 8415W        W25262   3.739  14.026   4.847 -0.1944 -0.1743  0.1169
 8416W        W25263  15.006   8.222   1.171 -0.2264  0.0375  0.2197
 8417W        W25264  10.884   1.107  10.449  0.0340 -0.0547  0.0413
 8418W        W25265  18.928   3.690   3.840  0.1198  0.1275 -0.0662
 8419W        W25266  15.010   2.159   2.385 -0.1579  0.0058  0.2360
 8420W        W25267   9.307   5.452   4.308  0.0778 -0.2178  0.0379
 8421W        W25268  13.563   9.417  12.776  0.1933 -0.0263 -0.0568
 8422W        W25269  11.857   7.151  14.261 -0.1495 -0.1159  0.1382
 8423W        W25270  18.956  14.814   4.512  0.0091  0.0698 -0.0970
 8424W        W25271   2.691   4.516   0.461  0.0786 -0.0140 -0.1576
 8425W        W25272   8.273   8.950   0.268  0.2516  0.1900  0.1859
 8426W        W25273   8.033   3.191  10.186 -0.5193 -0.0314 -0.0549
 8427W        W25274  19.418   4.688   1.150 -0.1061  0.0290 -0.0665
 8428W        W25275  17.851  13.397  10.690 -0.0152  0.0210 -0.0375
 8429W        W25276  16.215  13.831   2.547  0.2428 -0.0046  0.0520
 8430W        W25277  19.295   9.431  14.161  0.1185  0.5615 -0.1327
 8431W        W25278  17.128  10.949  13.057 -0.1987 -0.0090 -0.0981
 8432W        W25279  15.185  19.061  11.511  0.1929  0.0039 -0.2324
 8433W        W25280   1.107   5.746   3.737  0.0349  0.0294  0.0659
 8434W        W25281  11.471   3.362   4.444  0.1399  0.2391  0.0636
 8435W        W25282   7.320  13.834   0.787 -0.0042 -0.2279 -0.3798
 8436W        W25283   5.567   2.957   1.794  0.0365  0.1427  0.0402
 8437W        W25284   1.908   5.483  11.529 -0.0697  0.1798  0.0830
 8438W        W25285   1.032   3.024  10.266  0.0408 -0.2324  0.3551
 8439W        W25286   8.603   2.020   9.889 -0.3159 -0.0102 -0.0420
 8440W        W25287   2.241   2.347   1.357 -0.0137  0.2700  0.0721
 8441W        W25288   5.436   4.535   4.117 -0.2631  0.1015 -0.2099
 8442W        W25289   3.081   0.786  11.715  0.0923  0.0279  0.1317
 8443W        W25290   0.464   7.200   0.662  0.0414  0.0574  0.3512
 8444W        W25291  15.438  11.318   4.408 -0.1439 -0.1683 -0.1888
 8445W        W25292  11.415  15.008  10.634 -0.1169 -0.2051  0.0786
 8446W        W25293   5.221   1.618  10.352 -0.2301  0.1343  0.0132
 8447W        W25294   0.708  10.149  14.118  0.1000  0.3127 -0.0439
 8448W        W25295   6.390   0.769   4.826  0.1038  0.0988 -0.2312
 8449W        W25296  15.676   9.934  11.399  0.1635  0.1222 -0.2007
 8450W        W25297   4.250   7.775   2.080 -0.0906 -0.2449 -0.1157
 8451W        W25298   2.359  15.053  12.325 -0.2112 -0.3172  0.1909
 8452W        W25299   5.263   1.338  12.376 -0.2193 -0.1786 -0.1172
 8453W        W25300   5.988  12.807   0.845 -0.1136 -0.2433  0.2178
 8454W        W25301  14.016  13.858   2.242 -0.1589 -0.0795  0.0344
 8455W        W25302  16.181   0.493  12.768 -0.1449 -0.1820  0.1323
 8456W        W25303  17.214   4.684   0.455  0.1696 -0.2179  0.0299
 8457W        W25304  13.406  17.543   3.092  0.1378  0.0889 -0.0312
 8458W        W25305  12.425   6.916   2.812 -0.2147  0.1615  0.0585
 8459W        W25306  11.770  16.470   0.416  0.1138  0.2115 -0.1252
 8460W        W25307  18.511   9.672   3.929  0.1085 -0.2633  0.2846
 8461W        W25308  14.304  13.106  14.571 -0.0626  0.0196 -0.2441
 8462W        W25309   1.577   2.636  12.828 -0.0533 -0.1032 -0.2052
 8463W        W25310   6.986  10.192  12.770 -0.0393 -0.0731 -0.0412
 8464W        W25311   3.173  18.063   2.339 -0.1395 -0.2748 -0.2142
 8465W        W25312  13.343   2.776   4.260  0.1039  0.3257  0.1962
 8466W        W25313  16.898  14.260   0.139 -0.1348 -0.0459 -0.1079
 8467W        W25314  12.967   1.003   0.392  0.0046  0.1844  0.1573
 8468W        W25315  14.450  17.477  10.440  0.2279  0.2456  0.2416
 8469W        W25316   5.676   8.386  11.777  0.1781  0.1542 -0.0371
 8470W        W25317  13.493   7.179   4.655 -0.1241 -0.0940  0.2764
 8471W        W25318  19.363  16.847  10.987  0.1399  0.0883 -0.0954
 8472W        W25319  14.267  10.311  14.411  0.5731 -0.0790  0.3083
 8473W        W25320  18.032   7.627  12.774  0.0829  0.2339 -0.1210
 8474W        W25321  10.658  11.741  13.605 -0.0931  0.1651 -0.3397
 8475W        W25322   1.244  16.590  13.069 -0.0667  0.2255  0.3674
 8476W        W25323   5.638  16.774   2.694  0.6135 -0.1138 -0.0314
 8477W        W25324  19.152   8.469   3.601 -0.0788  0.1166 -0.1934
 8478W        W25325  15.920  13.432   1.133 -0.2350  0.2130  0.1886
 8479W        W25326  13.651   6.455   1.373  0.3931  0.0265  0.1269
 8480W        W25327   1.613  10.841   5.082  0.1295  0.0515  0.3282
 8481W        W25328  14.178  13.178   0.951  0.2254  0.0196  0.0363
 8482W        W25329   2.879  10.273  11.947  0.1300  0.0149 -0.2575
 8483W        W25330  10.217  19.016   0.650  0.0565  0.1734 -0.0853
 8484W        W25331  14.358   8.239   1.470  0.4794 -0.0330 -0.1669
 8485W        W25332  13.502  15.888  10.704 -0.2235  0.2469  0.1522
 8486W        W25333  12.548   5.980  10.526  0.0498  0.1937  0.0502
 8487W        W25334  14.141  14.885   1.949 -0.0421  0.1644 -0.0513
 8488W        W25335   4.536  18.098  10.340 -0.4309 -0.1867 -0.1847
 8489W        W25336   2.467   1.504  10.962  0.2164 -0.1172  0.1058
 8490W        W25337   3.481  19.015   1.961 -0.2069  0.1623 -0.1180
 8491W        W25338  16.375   2.593  10.121  0.2305 -0.0497 -0.2912
 8492W        W25339  17.872  13.097   3.114 -0.2537  0.4109 -0.2086
 8493W        W25340   4.934  11.270  11.857 -0.0840  0.3464  0.1213
 8494W        W25341   6.184   7.288  11.581 -0.0088  0.1411 -0.0241
 8495W        W25342   9.225  10.113   2.118  0.1482 -0.3182  0.2438
 8496W        W25343  12.678   3.180  12.987 -0.3228 -0.1153  0.0680
 8497W        W25344   7.867  16.841  12.456  0.0966  0.0300 -0.2765
 8498W        W25345  15.559   7.484   2.176 -0.1063 -0.0561  0.0364
 8499W        W25346  12.435  14.665   1.383  0.1524  0.0470 -0.3248
 8500W        W25347   7.239  17.398   2.386 -0.1992 -0.2772  0.2741
 8501W        W25348   4.399  14.366   0.182 -0.3051 -0.1783 -0.1935
 8502W        W25349   1.158  15.580  13.509  0.0265  0.0403  0.2139
 8503W        W25350  17.164   6.693  11.804 -0.1940 -0.0799  0.0833
 8504W        W25351   6.319   1.850   1.531 -0.0472 -0.1368  0.0256
 8505W        W25352  19.494  13.149   4.730  0.1728 -0.1990 -0.0434
 8506W        W25353   1.918   5.591   1.065  0.0697 -0.0012 -0.1493
 8507W        W25354  18.878  12.570  14.204  0.3844 -0.2632 -0.2925
 8508W        W25355  19.305  16.237   3.531 -0.1053  0.0864 -0.0690
 8509W        W25356  13.298  15.154   3.115 -0.1423  0.0293  0.1416
 8510W        W25357   2.486   6.314   0.461  0.1741 -0.3394  0.1854
 8511W        W25358   6.947  15.471   2.247  0.0879  0.3942  0.3775
 8512W        W25359   9.266   0.899   0.919  0.2614  0.1059 -0.4200
 8513W        W25360   3.228  12.192  14.128  0.2497 -0.1876 -0.1736
 8514W        W25361   1.886   1.814  13.900 -0.0284  0.2120  0.1551
 8515W        W25362  12.107  10.426   0.563 -0.0774 -0.2097 -0.1878
 8516W        W25363   0.269   0.778  12.271 -0.1673  0.0425 -0.0726
 8517W        W25364  16.616   1.596  10.568  0.3024 -0.0290 -0.4339
 8518W        W25365   4.899   1.364   4.919 -0.0597 -0.0816  0.2585
 8519W        W25366  16.325   7.636  12.069 -0.1569 -0.0914 -0.1288
 8520W        W25367   0.657   0.502  11.371 -0.3107 -0.1576  0.2169
 8521W        W25368   0.007  17.337  11.075 -0.0653 -0.0927 -0.2421
 8522W        W25369  12.592   8.510  10.233  0.3065  0.3629  0.0302
 8523W        W25370   8.544   7.632   4.294  0.0418 -0.3353 -0.0622
 8524W        W25371   2.523   7.105   2.912  0.0097  0.2044 -0.2189
 8525W        W25372  13.337  11.828   9.592 -0.1508 -0.0419  0.2039
 8526W        W25373   5.625   4.413  12.508 -0.1577 -0.0079  0.0146
 8527W        W25374   3.507   0.854   0.152  0.1284  0.1967 -0.0036
 8528W        W25375   0.255   6.327   1.322 -0.2695 -0.0344 -0.0686
 8529W        W25376  14.123   4.546   3.990  0.0841  0.2615  0.2549
 8530W        W25377   5.434   0.630   1.938  0.2152 -0.0445  0.0154
 8531W        W25378  17.036  14.705  13.582 -0.3758 -0.1569 -0.1873
 8532W        W25379  12.103   3.945  13.640 -0.1546 -0.1455  0.0796
 8533W        W25380  14.448  17.987  11.768 -0.1133  0.2649 -0.0855
 8534W        W25381   2.648   6.113  14.240 -0.0322  0.0911 -0.1520
 8535W        W25382   6.351  16.512   4.106  0.0725 -0.0008 -0.1337
 8536W        W25383   3.667  15.329   4.687  0.3761  0.0294  0.2283
 8537W        W25384   0.907  15.364   3.104 -0.2015  0.0544  0.1172
 8538W        W25385   1.895   5.094  11.907 -0.1951  0.1322 -0.0816
 8539W        W25386  18.921   0.933   0.098 -0.2539 -0.1434  0.0691
 8540W        W25387   9.178  13.558  11.523  0.0964 -0.1942 -0.2904
 8541W        W25388   9.456   9.111  13.314  0.2046 -0.1995  0.1137
 8542W        W25389  13.063  16.334  11.763 -0.2087  0.1598 -0.0544
 8543W        W25390  17.443   2.837  11.150  0.3421  0.1003  0.0827
 8544W        W25391  16.937   2.470   3.767 -0.0919  0.0725 -0.0922
 8545W        W25392  10.150  17.626   3.749  0.1039  0.3251 -0.2128
 8546W        W25393   5.756  12.386   4.716  0.0534  0.2678  0.0186
 8547W        W25394   3.055  17.989   0.821 -0.5101 -0.1072  0.2662
 8548W        W25395   0.823  12.319  10.289 -0.4152  0.0052 -0.0875
 8549W        W25396  17.806   7.414  12.303  0.1358 -0.1653 -0.0764
 8550W        W25397  13.680  14.339   1.192 -0.0398  0.4583 -0.1794
 8551W        W25398  16.480  18.162   3.437 -0.1048 -0.0939  0.0269
 8552W        W25399  19.421  11.550   4.965  0.2828  0.0238  0.2697
 8553W        W25400   2.301   7.221   9.339 -0.0587  0.3094  0.3782
 8554W        W25401   8.867   8.275  13.677 -0.1462  0.1108 -0.2907
 8555W        W25402   5.388   0.273   1.134 -0.3102 -0.2118  0.1424
 8556W        W25403   7.148   7.296   3.344 -0.2178  0.0114 -0.2856
 8557W        W25404   8.657  11.056   2.051  0.0229  0.0202  0.2111
 8558W        W25405  10.330   9.743  10.483  0.0872 -0.1472  0.4128
 8559W        W25406   0.559   8.078  11.680 -0.0289  0.1974 -0.5884
 8560W        W25407  17.969  16.916   1.942 -0.1390  0.0852 -0.3153
 8561W        W25408   6.283  10.086   1.733 -0.1887  0.1377  0.1792
 8562W        W25409   1.553  16.636  10.458 -0.0604 -0.0970 -0.1977
 8563W        W25410   3.976   1.452   3.619  0.1999 -0.2699  0.0335
 8564W        W25411  13.364  18.637   2.461 -0.1462 -0.0644  0.0508
 8565W        W25412   4.836  12.342   4.199  0.1992  0.1574  0.0732
 8566W        W25413  12.239   4.155   0.002 -0.1709 -0.0987 -0.3691
 8567W        W25414   9.462   4.778   3.063  0.0085  0.0707 -0.1936
 8568W        W25415  12.930  10.956   3.851  0.3645  0.2688  0.1126
 8569W        W25416  17.526   1.678   4.689  0.2052 -0.0071 -0.0095
 8570W        W25417  11.211  18.594   4.504  0.3879  0.0799 -0.0340
 8571W        W25418   8.965   9.934   4.031 -0.0889  0.0007 -0.2184
 8572W        W25419  15.721   6.998   0.315 -0.1629  0.1649  0.0755
 8573W        W25420   0.493  19.408   3.921  0.0574 -0.2703  0.0060
 8574W        W25421   5.969   9.715  13.512  0.2700  0.0899  0.2423
 8575W        W25422   0.646   6.454   4.337 -0.2288  0.0669  0.0988
 8576W        W25423   9.288   8.339  14.546  0.1112 -0.0820 -0.2506
 8577W        W25424  18.509   0.441   3.388  0.0356  0.1352 -0.2234
 8578W        W25425   3.261  18.735  10.745  0.1432 -0.2473  0.1883
 8579W        W25426  12.351  11.418   2.780  0.1620 -0.0817 -0.1876
 8580W        W25427   2.356   4.826   2.416  0.1132 -0.0648  0.0654
 8581W        W25428  13.162  14.215   1.676  0.1909  0.2884  0.3037
 8582W        W25429  12.404  18.874   1.366  0.2400 -0.3154 -0.0526
 8583W        W25430  13.281  13.108  11.916 -0.0999 -0.1245 -0.3861
 8584W        W25431  18.241   5.711   4.074 -0.0491 -0.1871  0.1619
 8585W        W25432  15.067  18.138   3.024  0.1086 -0.0904  0.1419
 8586W        W25433   7.470  11.808   1.829  0.0881 -0.2446 -0.0547
 8587W        W25434  16.791   7.504  12.215  0.0414 -0.2949  0.0528
 8588W        W25435   8.828   7.045   3.705  0.2355  0.0132  0.0717
 8589W        W25436   9.939  12.403  11.945  0.0615 -0.2193  0.1964
 8590W        W25437  14.226  14.668   1.079 -0.2339  0.0007  0.1323
 8591W        W25438  11.423   9.089  10.137  0.3376 -0.2225  0.1762
 8592W        W25439  10.592  12.661  12.693 -0.1296 -0.0399 -0.1913
 8593W        W25440   5.235  13.104   5.141 -0.0191  0.0209  0.2622
 8594W        W25441   7.439  16.280   4.255  0.0490  0.0328  0.2978
 8595W        W25442  14.113  13.607   0.701 -0.0546  0.0704 -0.1795
 8596W        W25443  17.914   0.228   5.209  0.0236 -0.2821  0.2308
 8597W        W25444   3.049  14.593  10.878 -0.0646 -0.1364 -0.0654
 8598W        W25445   7.738  12.599  10.564 -0.0554 -0.0516  0.1741
 8599W        W25446  17.077   2.391   0.483 -0.1485 -0.2664  0.4016
 8600W        W25447  14.056  15.872   4.625  0.0080  0.2129 -0.0650
 8601W        W25448   7.345  12.434  13.863 -0.3268  0.2467 -0.1405
 8602W        W25449  16.618  13.437   0.586  0.4356  0.1369 -0.0801
 8603W        W25450   8.286  15.113  11.138  0.0021 -0.1950  0.1106
 8604W        W25451   5.190   1.259   2.932 -0.1396 -0.1689 -0.2438
 8605W        W25452  15.904  11.996  12.776 -0.2354 -0.0435 -0.0915
 8606W        W25453  12.476   0.664   1.647 -0.2989  0.0599 -0.1176
 8607W        W25454  10.174  10.543   2.582  0.3130 -0.0984 -0.1362
 8608W        W25455  15.554   4.074   2.796  0.2610  0.0114 -0.3243
 8609W        W25456   4.483   3.011  11.688 -0.0311 -0.3379  0.1068
 8610W        W25457  15.448   4.789   2.281  0.1439  0.3818 -0.2287
 8611W        W25458   4.146  16.482   3.376  0.0553  0.1695  0.2518
 8612W        W25459   0.872  17.680  12.250 -0.0377 -0.4485 -0.1502
 8613W        W25460  18.005  14.643   5.330 -0.1006  0.0977 -0.0703
 8614W        W25461   9.668  17.799  11.368 -0.1797  0.1802  0.0340
 8615W        W25462   4.892   4.433   0.922 -0.1946  0.0963  0.0837
 8616W        W25463  16.486   7.427   1.153  0.1197 -0.2705 -0.3819
 8617W        W25464   9.322  10.418  11.796 -0.0818  0.0235 -0.0960
 8618W        W25465  17.645   4.193   1.942 -0.1119 -0.4241 -0.0965
 8619W        W25466  14.425  10.343  13.242  0.0279 -0.1430  0.0975
 8620W        W25467   4.363   2.083   0.553  0.0063  0.1443  0.2591
 8621W        W25468  13.797   0.984  14.251 -0.4818 -0.1583 -0.0718
 8622W        W25469   0.407  16.438  11.075 -0.0864 -0.1275 -0.4580
 8623W        W25470  17.617  14.956  12.010 -0.0851 -0.3884 -0.2497
 8624W        W25471  17.464  15.926  14.157  0.2172  0.1596  0.1347
 8625W        W25472  18.644  14.472   8.843 -0.2984  0.1327  0.2242
 8626W        W25473  15.175  16.855  12.829  0.1174  0.1319  0.1872
 8627W        W25474  18.827  19.547   2.683 -0.4817 -0.2797  0.1999
 8628W        W25475  10.205  17.577  12.680 -0.2906 -0.1853 -0.0314
 8629W        W25476   4.405  15.207   0.682  0.0338  0.2145  0.0071
 8630W        W25477   1.017  18.453   9.833  0.3739  0.1086  0.1331
 8631W        W25478   2.878   9.105   3.023  0.1664 -0.2017  0.2741
 8632W        W25479   4.427   4.947  13.522  0.2817  0.0976 -0.0222
 8633W        W25480  10.416  19.119   3.337 -0.0997  0.4224 -0.1931
 8634W        W25481  11.791  13.047  13.980  0.4318  0.2494  0.0891
 8635W        W25482  15.993  18.246  11.648  0.1162  0.0281  0.3129
 8636W        W25483  14.186   9.851   3.030 -0.1608 -0.2156 -0.4150
 8637W        W25484  17.939  19.430   0.489 -0.0073 -0.0497 -0.0337
 8638W        W25485  11.906   9.192   0.483 -0.0096 -0.0240  0.1621
 8639W        W25486  16.624   2.292   4.913  0.1809  0.0468 -0.0303
 8640W        W25487  14.921   9.504   4.768  0.0851  0.2198  0.3038
 8641W        W25488  15.562   4.957   5.391 -0.1424 -0.0331 -0.1418
 8642W        W25489   3.078  11.412  11.266  0.0257 -0.2365  0.2640
 8643W        W25490  13.505  11.466  10.434  0.2684 -0.1680  0.0856
 8644W        W25491   9.078  12.225   3.990 -0.1064 -0.2660  0.2053
 8645W        W25492  11.567   0.938  14.440  0.1669 -0.0530 -0.1603
 8646W        W25493   3.765   0.381   4.957  0.0765  0.4015  0.0924
 8647W        W25494  14.687  16.035  13.537  0.0086 -0.0549  0.0136
 8648W        W25495   9.701   2.312   1.148 -0.0332 -0.3110  0.2713
 8649W        W25496   2.004  11.515   3.483  0.1177  0.1554 -0.0108
 8650W        W25497  17.193   2.897   0.202  0.0291 -0.3233 -0.2015
 8651W        W25498   2.435   4.865   0.154  0.0996  0.1584 -0.2424
 8652W        W25499   5.720   1.383   5.536 -0.0221  0.0553 -0.0178
 8653W        W25500   4.142  11.245  13.355  0.5552  0.1506  0.0437
 8654W        W25501  19.205  10.458   2.971 -0.4406 -0.0512 -0.2308
 8655W        W25502  16.576   8.088   4.333 -0.0005 -0.0322 -0.2549
 8656W        W25503  19.227  11.202  13.745  0.1799  0.0381  0.0627
 8657W        W25504  12.277  18.532  13.170  0.1320  0.1548  0.1133
 8658W        W25505   2.460   1.504   2.513 -0.0318 -0.2889  0.0808
 8659W        W25506   7.950  12.909   3.715 -0.0996 -0.3498  0.1541
 8660W        W25507   3.996  14.934   4.640 -0.1751 -0.1039 -0.0135
 8661W        W25508  10.384   0.003   3.267  0.3331 -0.1941  0.2585
 8662W        W25509  17.184  11.506  13.248  0.0627  0.2754 -0.0092
 8663W        W25510  11.542  18.941   4.669 -0.0439  0.2824 -0.0431
 8664W        W25511   3.530   6.287   2.444 -0.1289  0.3384 -0.0413
 8665W        W25512  13.336  18.313   4.380 -0.4645 -0.2420  0.3359
 8666W        W25513   6.079   0.156  11.743  0.1991  0.0878  0.0854
 8667W        W25514  17.837   1.210  10.116  0.0647 -0.1194  0.0789
 8668W        W25515  17.503  12.825  14.316  0.3676  0.0426 -0.5104
 8669W        W25516   5.702  13.365   9.572  0.0062  0.1213 -0.1438
 8670W        W25517   2.012  11.857   2.456  0.0300 -0.1804  0.3158
 8671W        W25518  14.970  16.677   0.310 -0.2455  0.0600 -0.2595
 8672W        W25519  10.593   1.644   9.907  0.3418 -0.1289  0.0928
 8673W        W25520   1.872   9.171  12.857  0.0291  0.2438 -0.1481
 8674W        W25521  17.010   5.797  11.355 -0.1420 -0.0124 -0.0310
 8675W        W25522  11.334  10.214   2.280 -0.1092 -0.3279 -0.0214
 8676W        W25523   8.577  19.415  10.903  0.2709 -0.0488  0.0467
 8677W        W25524  10.456  13.468  14.250  0.1220 -0.0043 -0.1715
 8678W        W25525  17.755  10.021   2.293  0.0689 -0.1518 -0.2408
 8679W        W25526  11.602  19.001  13.794 -0.3519  0.0224  0.0290
 8680W        W25527  13.730  16.656  14.210  0.2921 -0.0895  0.1447
 8681W        W25528   1.217   5.596   9.491 -0.0283 -0.1032  0.2486
 8682W        W25529  19.327   3.445  13.066 -0.1847  0.0135  0.2057
 8683W        W25530   9.933  18.556  14.043  0.1724 -0.1041 -0.0987
 8684W        W25531   5.435   2.101   0.794  0.3303  0.0937  0.2451
 8685W        W25532  13.294   0.336  11.951  0.1165 -0.1592 -0.3665
 8686W        W25533  11.911   1.189  12.191 -0.1487 -0.2851  0.2823
 8687W        W25534   5.337  12.923  13.895  0.2274 -0.0289 -0.1261
 8688W        W25535   3.972   0.224  12.582  0.2723 -0.1333 -0.0557
 8689W        W25536  19.006  15.205   2.103 -0.0488 -0.2080  0.2005
 8690W        W25537  18.341  18.670  13.448 -0.0610  0.2941 -0.0685
 8691W        W25538   6.647   4.771   1.651  0.1566  0.0841 -0.0776
 8692W        W25539   8.703  12.937   2.722 -0.0408 -0.0629 -0.2774
 8693W        W25540   8.196   7.855  14.529  0.0481  0.1442 -0.0767
 8694W        W25541   5.959  14.636   1.594 -0.1763  0.0436  0.0058
 8695W        W25542  16.383  11.329   3.589  0.1068  0.2442 -0.2792
 8696W        W25543  18.445   2.851  12.538  0.1106 -0.0978 -0.0540
 8697W        W25544   9.657  14.752   1.486  0.1300  0.2210 -0.1326
 8698W        W25545  18.461   5.924  11.633  0.1540  0.2870  0.1644
 8699W        W25546   8.781   1.717   3.003  0.3409  0.0418  0.1269
 8700W        W25547  18.615  13.439  12.115 -0.1054 -0.0901 -0.2965
 8701W        W25548   3.037  13.674  13.441  0.1174  0.3763 -0.1002
 8702W        W25549  11.164   1.889   0.600  0.1119  0.0860  0.2066
 8703W        W25550   5.787  10.768  13.530  0.0741  0.3677 -0.1304
 8704W        W25551  18.407  18.117   1.854 -0.0252 -0.0806  0.0462
 8705W        W25552  17.317   3.531   1.335 -0.0174 -0.0147  0.1207
 8706W        W25553   1.943   7.944  14.410 -0.1000 -0.2852 -0.1212
 8707W        W25554   8.748  18.346  11.901 -0.2021  0.4769 -0.0620
 8708W        W25555  14.897  10.090   5.634  0.2809  0.1727  0.0731
 8709W        W25556   1.435   3.727  11.436  0.0700 -0.0090  0.2078
 8710W        W25557   6.377  15.864   4.067 -0.1064  0.0166  0.2233
 8711W        W25558  17.675  14.945  13.557 -0.4962  0.1477 -0.4070
 8712W        W25559  13.973  18.018   4.104 -0.2374 -0.0066 -0.2759
 8713W        W25560  10.995   7.105   0.227  0.1163  0.1478 -0.0104
 8714W        W25561  15.771   6.828  11.985  0.4195  0.0584 -0.0983
 8715W        W25562   0.401   5.790   2.660 -0.0396 -0.1331 -0.1331
 8716W        W25563   7.731  11.010  11.876  0.1385 -0.1337  0.0948
 8717W        W25564   7.292   2.672  10.228 -0.2400  0.0167 -0.2522
 8718W        W25565   3.182   2.538  11.809 -0.1651 -0.4177  0.0542
 8719W        W25566   7.697   2.049  12.068  0.0800  0.0442 -0.2505
 8720W        W25567   3.406   1.483  11.678  0.0145 -0.1816 -0.0774
 8721W        W25568   5.423  17.281   2.606 -0.1593 -0.1838 -0.2806
 8722W        W25569   3.777  10.333   0.985  0.2503  0.0961  0.0107
 8723W        W25570  11.406   2.288   0.321  0.1379 -0.1606  0.0718
 8724W        W25571   6.638   8.602   3.487 -0.1891  0.1552  0.2390
 8725W        W25572  11.060   8.281  14.051  0.0818 -0.3037 -0.0159
 8726W        W25573   7.926  16.449   0.341 -0.0298  0.0494 -0.0324
 8727W        W25574  19.275  15.914  12.068  0.3074 -0.0651  0.1138
 8728W        W25575   3.202   9.840   1.994  0.0843  0.2564  0.0444
 8729W        W25576  11.982   1.657  11.997  0.1566 -0.0675  0.0786
 8730W        W25577  10.818   2.124   4.413 -0.0033 -0.4449 -0.0732
 8731W        W25578  13.815  13.320  11.894  0.3266 -0.4062 -0.0571
 8732W        W25579   6.542  16.121  11.643 -0.0128  0.0331 -0.0709
 8733W        W25580  12.324  15.211   1.198  0.0147  0.2636  0.1016
 8734W        W25581  12.040  14.018  12.449 -0.0625 -0.1841 -0.1789
 8735W        W25582  18.576  15.385   0.783  0.1516 -0.0230  0.2954
 8736W        W25583   4.125   5.836  13.741 -0.0039  0.0290 -0.0568
 8737W        W25584   8.660  16.342   2.433 -0.1692 -0.0681  0.1229
 8738W        W25585   6.598   8.295  10.870 -0.0012 -0.0349 -0.0686
 8739W        W25586   8.514   4.017  12.138  0.2019 -0.0012  0.6201
 8740W        W25587   5.900  17.309  13.925 -0.3482 -0.1127 -0.0771
 8741W        W25588  11.838   4.211  11.275  0.4042  0.1092 -0.0987
 8742W        W25589   3.499  13.652  13.704 -0.1787 -0.3475  0.0597
 8743W        W25590   4.712   3.864   2.172 -0.0413  0.2030 -0.0438
 8744W        W25591  10.940  18.455  12.718  0.0720  0.0119  0.0942
 8745W        W25592  10.629   5.880  12.975  0.1196  0.0235  0.2375
 8746W        W25593  14.666  11.775   4.658  0.0640  0.0757  0.2685
 8747W        W25594   0.981   9.243  12.772 -0.0472  0.2383 -0.1325
 8748W        W25595   5.773  11.699   4.249  0.3970 -0.2491 -0.1971
 8749W        W25596  17.991   7.958  11.109 -0.0173 -0.1785 -0.1404
 8750W        W25597   1.612   2.622   0.539 -0.1585  0.1124 -0.3578
 8751W        W25598   6.570   3.513  14.146  0.1404  0.1632  0.0517
 8752W        W25599  12.541   9.329  12.517  0.0468 -0.1690  0.1100
 8753W        W25600   1.681  13.492   2.357  0.2559 -0.1080 -0.1494
 8754W        W25601   7.004   4.897  12.555 -0.0662  0.0933 -0.1683
 8755W        W25602  13.697  15.238  14.076  0.0936 -0.0858 -0.0369
 8756W        W25603   3.638   3.597   2.711  0.4117 -0.0529  0.1875
 8757W        W25604  10.578   2.937  13.905  0.0889  0.2263 -0.4546
 8758W        W25605  19.292  10.193  14.532 -0.3959 -0.1521  0.3376
 8759W        W25606   1.350  13.808  12.323  0.0617  0.4593 -0.2556
 8760W        W25607  10.978  15.890  10.606 -0.2320  0.0273  0.2370
 8761W        W25608   0.794   3.097  11.283 -0.0687  0.1782  0.2079
 8762W        W25609  17.988  16.860   1.485 -0.1881 -0.2496 -0.3073
 8763W        W25610  16.686  15.061  12.936  0.1584  0.1670  0.1523
 8764W        W25611   9.316   0.271  13.974  0.1436  0.0789 -0.3464
 8765W        W25612   6.029  10.850   0.988  0.1977  0.2930 -0.1839
 8766W        W25613   1.903  13.525   1.363 -0.0664 -0.1818 -0.0092
 8767W        W25614  14.386   2.475   1.685 -0.1786 -0.3284  0.2466
 8768W        W25615   8.989   0.841   5.108 -0.2090 -0.1006  0.1149
 8769W        W25616   6.591  15.419  13.903 -0.1500 -0.0971  0.2501
 8770W        W25617   2.477   1.224   2.955 -0.1403 -0.1447  0.1304
 8771W        W25618   8.825   4.623   3.612 -0.1171 -0.1448  0.1189
 8772W        W25619  12.118  15.362   0.111 -0.2718  0.3917  0.2609
 8773W        W25620  13.423   5.128   3.188 -0.0797  0.1663  0.0844
 8774W        W25621  15.790   5.367  14.041  0.0323 -0.1509 -0.1853
 8775W        W25622   3.755   5.447  11.810  0.0774 -0.0271 -0.3820
 8776W        W25623   2.179   2.952   2.105 -0.2215 -0.0739  0.3053
 8777W        W25624   9.411   8.031  13.476 -0.0073  0.1873 -0.2033
 8778W        W25625  14.663  14.065   1.445  0.1362  0.0065 -0.0535
 8779W        W25626  15.224   4.576  13.989 -0.1010 -0.2417 -0.1754
 8780W        W25627   6.701  15.468  12.825 -0.0227  0.1690  0.1126
 8781W        W25628  13.964   9.349   0.922  0.4803  0.1766  0.1218
 8782W        W25629   8.716   6.231   1.188 -0.2563 -0.5654 -0.0451
 8783W        W25630  11.722  15.786   4.625  0.0406  0.0043  0.1597
 8784W        W25631  14.466  10.755  12.647 -0.0409 -0.0002 -0.1844
 8785W        W25632   9.710   8.837   1.161 -0.0654 -0.1197  0.1216
 8786W        W25633   1.056  16.044  13.251  0.0479 -0.1139 -0.2774
 8787W        W25634  19.559  18.492  12.097  0.0681  0.0555  0.2032
 8788W        W25635  17.922   6.661   3.210 -0.1606 -0.1682 -0.1942
 8789W        W25636  12.370  15.932  12.517 -0.1235  0.2727  0.1167
 8790W        W25637  17.579   4.552  10.273 -0.1380  0.0283  0.3701
 8791W        W25638   7.403   6.496   4.763  0.1299 -0.1292  0.3141
 8792W        W25639  18.048   1.799   3.465  0.1988 -0.0389  0.2363
 8793W        W25640  13.439  14.922  14.552 -0.0804  0.1555  0.1313
 8794W        W25641  10.641  16.472  11.892  0.3525 -0.0419  0.2438
 8795W        W25642   2.774  19.214  11.999  0.1037  0.2435  0.3214
 8796W        W25643   5.975  18.375  11.793 -0.1941 -0.0521 -0.1237
 8797W        W25644  15.478   4.857  10.660 -0.5450 -0.1946 -0.0911
 8798W        W25645   1.988   9.924  14.097  0.2693  0.1205  0.0696
 8799W        W25646  18.053   2.844   0.938  0.1880  0.1780  0.1713
 8800W        W25647  13.798   3.276  11.285 -0.3658 -0.0512  0.1447
 8801W        W25648  13.446   4.282  10.263 -0.2042  0.0127 -0.1347
 8802W        W25649   8.761   2.611  13.548 -0.3664 -0.2171 -0.1782
 8803W        W25650  12.372   1.935  12.746  0.3995 -0.0419 -0.0516
 8804W        W25651  14.278  13.468  12.874 -0.1768 -0.1033  0.0408
 8805W        W25652  13.701  11.737  11.801 -0.2295  0.2298 -0.0044
 8806W        W25653   0.650   4.412  13.222  0.4538  0.2128 -0.0518
 8807W        W25654   0.589   8.472  12.807  0.2053 -0.1155  0.0971
 8808W        W25655   2.227   7.245  11.104 -0.2970 -0.1308 -0.1346
 8809W        W25656  13.874   2.390  13.196 -0.2201  0.0312 -0.0785
 8810W        W25657  19.377   0.760  13.760 -0.0011 -0.1323  0.2372
 8811W        W25658  15.508  11.340   1.113 -0.2057 -0.2475 -0.1579
 8812W        W25659   8.637   9.245   4.167  0.2969  0.1453 -0.0157
 8813W        W25660  11.825  13.963  13.441  0.4482 -0.3365  0.2043
 8814W        W25661  11.562  11.185   0.872  0.2180 -0.3199 -0.0426
 8815W        W25662   2.495   5.884   5.077 -0.1658  0.0946 -0.0408
 8816W        W25663  13.863   9.030   4.437 -0.0872 -0.4665  0.0013
 8817W        W25664   9.933  17.449  10.252  0.1094  0.0441  0.3889
 8818W        W25665  18.483  12.869  13.885  0.0843  0.4008 -0.0244
 8819W        W25666  15.404   0.749   2.942 -0.2871 -0.1688  0.0364
 8820W        W25667  13.749  16.344   4.317  0.1098  0.1578  0.2026
 8821W        W25668  12.246  10.758  13.590 -0.0867  0.2627  0.0378
 8822W        W25669   0.711   8.748  14.580 -0.2846 -0.0687  0.2961
 8823W        W25670   2.550   9.835   4.675 -0.2791 -0.1542 -0.3912
 8824W        W25671  18.947  16.346   2.745  0.1441 -0.1679 -0.1267
 8825W        W25672   1.275  12.238   4.099  0.0624  0.0883  0.2908
 8826W        W25673  10.489   8.712  11.580 -0.1026 -0.0018  0.1701
 8827W        W25674  12.810  13.257   0.386  0.0002  0.1358  0.3444
 8828W        W25675   5.056  16.332   0.917 -0.2663  0.2148 -0.4750
 8829W        W25676   0.278  17.211   3.602 -0.2090  0.2463 -0.2224
 8830W        W25677   2.375  14.754   0.747 -0.0531 -0.0330  0.1281
 8831W        W25678   0.082   5.779  12.721 -0.3284  0.1630 -0.1609
 8832W        W25679   8.819  10.237  11.770  0.1253  0.2041  0.2605
 8833W        W25680  15.114   3.483  14.223  0.1263 -0.0338 -0.1162
 8834W        W25681  18.109  18.776  10.051  0.3206 -0.0242 -0.0878
 8835W        W25682  19.261   5.644  10.549  0.5845 -0.3613 -0.5946
 8836W        W25683   2.791  10.456   3.552 -0.2406 -0.5600  0.0908
 8837W        W25684   0.325  14.849   0.369  0.1007 -0.0054  0.2846
 8838W        W25685   8.331  14.756  12.024 -0.0272  0.0318 -0.0417
 8839W        W25686  17.296  15.803  12.266 -0.0996 -0.1286  0.3999
 8840W        W25687  18.011  11.082   0.875  0.6289 -0.1706  0.2310
 8841W        W25688  10.065  11.897  11.750 -0.0684 -0.2306 -0.0209
 8842W        W25689  18.308  17.697   3.355 -0.1010  0.0383 -0.1625
 8843W        W25690  18.748  15.794  11.184  0.2276  0.0863 -0.2633
 8844W        W25691   9.911  14.701  13.154  0.2453  0.0776 -0.1062
 8845W        W25692  11.922  10.018  10.202 -0.0790 -0.0635 -0.0682
 8846W        W25693   6.403  16.055  14.365  0.3403  0.2009  0.0242
 8847W        W25694  18.594  18.525   1.603  0.1254 -0.1637 -0.0180
 8848W        W25695   3.230   6.264  11.587 -0.0615 -0.1245 -0.2133
 8849W        W25696  12.530  14.332  12.530  0.1693 -0.0142  0.0001
 8850W        W25697   3.966   3.063  11.090 -0.2146 -0.2030  0.1223
 8851W        W25698   6.174  18.106  14.030  0.1623 -0.0240  0.3346
 8852W        W25699  11.815  17.387  10.555  0.0615 -0.3988  0.0320
 8853W        W25700   8.309   6.805  11.349  0.0619  0.0898 -0.0446
 8854W        W25701   9.942  15.971   4.838 -0.2682  0.3296  0.0148
 8855W        W25702  12.565   4.483  13.415  0.2646 -0.0743 -0.0919
 8856W        W25703  13.117   5.831   1.697  0.0991  0.1136  0.5478
 8857W        W25704   9.509  15.670   2.394  0.0864  0.2592  0.1381
 8858W        W25705  19.269  10.617  12.282 -0.1211  0.1085  0.0227
 8859W        W25706   5.288   9.790  14.195  0.0948  0.0214 -0.0651
 8860W        W25707  15.180   1.091   0.340  0.1399 -0.0204  0.1934
 8861W        W25708  14.041   8.424   2.949  0.3011  0.1264 -0.1897
 8862W        W25709   4.721   6.147  13.729  0.3088  0.4142  0.3745
 8863W        W25710  15.822   2.227   3.790  0.1389  0.0455  0.0910
 8864W        W25711   0.444   8.912   1.932  0.0273 -0.1318 -0.2047
 8865W        W25712   2.238   8.166   0.877  0.2196 -0.0375 -0.1845
 8866W        W25713   3.508  15.944   3.784  0.0471  0.0477 -0.1601
 8867W        W25714   6.739  11.072  14.074  0.1893  0.0507 -0.3059
 8868W        W25715  15.777   7.419  10.975  0.0773 -0.1763 -0.0859
 8869W        W25716   4.294   5.100   0.168 -0.1058  0.1559  0.4512
 8870W        W25717   0.973  13.480   4.677  0.1400  0.2851 -0.1790
 8871W        W25718   8.557  11.114  12.389  0.0332  0.0586  0.2480
 8872W        W25719  12.694   8.437   2.791  0.1154  0.1137  0.1617
 8873W        W25720   8.739   1.158   0.163 -0.1194 -0.0708 -0.1597
 8874W        W25721  17.389   2.261   0.130 -0.1332  0.1506 -0.1551
 8875W        W25722   6.994  18.955  12.115 -0.0948 -0.3629  0.1745
 8876W        W25723   3.461  13.757   2.366 -0.1966  0.1088 -0.2349
 8877W        W25724   2.064   2.145  10.385 -0.1669 -0.1583 -0.1082
 8878W        W25725  10.460  10.028  13.976 -0.0441  0.4561  0.0320
 8879W        W25726   5.532   5.296  11.820  0.0160  0.2723 -0.1690
 8880W        W25727  11.647  16.402   0.905 -0.1879  0.1709  0.1755
 8881W        W25728  17.599  13.470   2.874 -0.2700 -0.0553 -0.5495
 8882W        W25729  17.179   2.443  11.963 -0.0830  0.2608 -0.0978
 8883W        W25730  15.866   4.303   3.799 -0.0653  0.0376  0.0727
 8884W        W25731   0.929   2.356  10.998  0.1865  0.0482  0.0287
 8885W        W25732  17.457  13.550  12.436  0.1401  0.1210 -0.0106
 8886W        W25733  18.684   5.345  13.341  0.5583 -0.2530  0.2571
 8887W        W25734  12.752  13.066   5.548  0.3066 -0.2877 -0.2834
 8888W        W25735   3.151  11.106   4.222 -0.0189 -0.3479 -0.1318
 8889W        W25736   4.885  17.319  11.969  0.1744 -0.1221 -0.0273
 8890W        W25737   9.567   3.976   3.823  0.1112 -0.0903 -0.2098
 8891W        W25738  19.324  12.724   2.022  0.0317  0.1360  0.2033
 8892W        W25739  17.568   0.801  11.898  0.2114  0.0501 -0.0668
 8893W        W25740  17.212  13.223  12.099  0.0493 -0.0195  0.1899
 8894W        W25741  12.138  15.229   2.734  0.0845  0.0961  0.2921
 8895W        W25742  19.263   0.457   4.905 -0.0324  0.1438  0.0810
 8896W        W25743  11.120   2.761   0.170  0.2844  0.2503 -0.0493
 8897W        W25744   8.703   8.801   4.470 -0.1203  0.3815 -0.2361
 8898W        W25745  16.712   9.207   2.572 -0.0878  0.0053  0.2263
 8899W        W25746  18.090   3.153   4.058 -0.2628 -0.3110 -0.0730
 8900W        W25747  11.339  10.633  12.610  0.2759  0.2699 -0.1505
 8901W        W25748  10.589  12.661   0.204  0.0354  0.1764  0.2963
 8902W        W25749   4.352  11.346   1.507 -0.0524  0.5479  0.1705
 8903W        W25750   1.202  10.024  14.202 -0.4060 -0.4400  0.2233
 8904W        W25751  17.944  17.431  12.783 -0.0862  0.3301  0.1980
 8905W        W25752   6.139  17.295   9.797  0.1706  0.3807 -0.4646
 8906W        W25753  14.039   0.673  10.359  0.1523  0.1180 -0.5609
 8907W        W25754  14.959  10.068   3.028 -0.2978  0.0478 -0.0011
 8908W        W25755  14.860   2.042  10.309  0.1759  0.1224 -0.3048
 8909W        W25756  11.859   8.955  14.186  0.0724  0.2702  0.1333
 8910W        W25757  14.849  12.790   3.367 -0.1576 -0.1834  0.0644
 8911W        W25758   7.306   3.123   1.345 -0.0995 -0.0251 -0.0094
 8912W        W25759   5.017   8.605   1.097 -0.2280 -0.1964  0.1164
 8913W        W25760   6.329  14.488  11.405  0.1636 -0.0403  0.1149
 8914W        W25761  17.511  12.454  10.627 -0.1344 -0.0221  0.1843
 8915W        W25762   8.046   5.888   3.936 -0.1441  0.0095  0.1300
 8916W        W25763   2.393  10.196   4.331 -0.1473  0.0536  0.2104
 8917W        W25764  15.409  12.352   1.062  0.0969  0.1840 -0.0620
 8918W        W25765  11.028   9.855   3.084  0.0845 -0.0508 -0.2381
 8919W        W25766   2.867  16.098  10.713 -0.0841  0.0967  0.0372
 8920W        W25767   4.461  17.344   4.666  0.1063 -0.0091  0.0166
 8921W        W25768   5.714   2.380  10.572 -0.0728  0.0909  0.3432
 8922W        W25769  10.956  16.160   0.664  0.0772  0.1113 -0.1957
 8923W        W25770   3.636   4.661   1.530 -0.3312  0.2794 -0.1426
 8924W        W25771   6.446   0.782   1.077  0.1469  0.2399  0.1960
 8925W        W25772   5.753  15.763  12.869 -0.0020 -0.1277 -0.3278
 8926W        W25773   1.569   0.028   3.078  0.4447  0.0717  0.1431
 8927W        W25774  17.387   1.720   2.141  0.0283 -0.0672 -0.1265
 8928W        W25775  17.062   0.764   0.245  0.1310  0.0870 -0.0719
 8929W        W25776   4.105   0.852   4.713 -0.1794  0.0492  0.0809
 8930W        W25777  17.745  17.545   3.537 -0.3446 -0.3833 -0.0206
 8931W        W25778   7.869  15.410   1.904 -0.2045  0.0338  0.2439
 8932W        W25779  13.171  17.428  10.768  0.0573  0.1652  0.0479
 8933W        W25780   7.709  17.686   3.227  0.1231  0.1131 -0.2759
 8934W        W25781  11.463  11.665   1.606  0.2145 -0.0447 -0.0829
 8935W        W25782  13.816   0.207  11.758  0.2748  0.1779 -0.0817
 8936W        W25783   5.114   0.275  11.370 -0.0986 -0.1987  0.2210
 8937W        W25784  16.520  13.419  11.433 -0.1532 -0.0881 -0.1069
 8938W        W25785  16.066  12.560   3.532  0.1333  0.1636 -0.0095
 8939W        W25786   3.869  12.196  10.951 -0.0838  0.1328  0.1435
 8940W        W25787  14.692   2.534   3.037 -0.3106  0.2399 -0.1195
 8941W        W25788  15.929   3.756   1.884  0.2394  0.1044  0.0253
 8942W        W25789   5.732   3.205  13.064  0.1518 -0.1728 -0.0831
 8943W        W25790   4.899  12.585  13.067  0.0167 -0.0556  0.3395
 8944W        W25791   4.389   9.544   2.483  0.1065 -0.1924  0.2399
 8945W        W25792  14.823   7.087   1.207  0.1765  0.2812  0.2028
 8946W        W25793   6.931  16.056   4.283  0.2201  0.0207 -0.1871
 8947W        W25794  15.150  11.738   4.819 -0.1510  0.1220 -0.0171
 8948W        W25795   3.452   8.956  12.261 -0.3919  0.1154 -0.0038
 8949W        W25796  10.551   0.962   2.847  0.1141 -0.1307 -0.1283
 8950W        W25797  14.641  13.206   2.516 -0.1602  0.1206  0.1530
 8951W        W25798   5.082   4.191   2.493  0.5210 -0.0165 -0.0035
 8952W        W25799  11.026  13.641  11.949 -0.0749 -0.3213 -0.2271
 8953W        W25800  16.980   4.468  13.582 -0.1306 -0.2020 -0.2443
 8954W        W25801  17.257  13.944   4.111  0.3461 -0.1802  0.2986
 8955W        W25802  18.168  16.142  12.174 -0.0346  0.1456 -0.0162
 8956W        W25803  18.720   4.003   3.164 -0.0914 -0.2205  0.0617
 8957W        W25804  16.641  11.608  12.100  0.4175 -0.1767 -0.0212
 8958W        W25805   8.621  15.994  14.022  0.0958 -0.2938  0.4538
 8959W        W25806  10.026   6.163  13.594  0.0535 -0.1119  0.0859
 8960W        W25807   8.901  16.438   4.140  0.0982  0.0179 -0.0816
 8961W        W25808   8.400   2.521   1.726  0.0032 -0.2045  0.0597
 8962W        W25809   9.143  10.557   4.605 -0.2442 -0.1208 -0.0773
 8963W        W25810  16.106   0.277   3.856  0.0175 -0.0190 -0.0229
 8964W        W25811  10.578   7.228  11.646 -0.1015 -0.2169 -0.2090
 8965W        W25812  17.245   7.113   5.617  0.1009  0.2760 -0.4018
 8966W        W25813  19.503  15.793   4.191  0.0629 -0.1559  0.0686
 8967W        W25814  12.856   8.577   4.736  0.1537 -0.2577  0.0347
 8968W        W25815  17.363  17.213   3.263  0.0455 -0.0830 -0.0593
 8969W        W25816   5.369  15.702   4.927  0.3048  0.3320  0.2166
 8970W        W25817   6.130  19.181   1.703 -0.1808 -0.1487 -0.1160
 8971W        W25818  14.427   6.263  12.687  0.0747  0.0309  0.0629
 8972W        W25819  18.664   4.832  12.536  0.1125  0.0891 -0.2300
 8973W        W25820   1.527  15.388   1.061 -0.3256  0.3013  0.0764
 8974W        W25821  10.499  10.932  14.285 -0.0462 -0.1476  0.0690
 8975W        W25822   6.296   6.424  14.166  0.1368 -0.1872 -0.0909
 8976W        W25823   6.370   6.762  10.852 -0.3877  0.1386 -0.4332
 8977W        W25824  12.176   3.635  12.468 -0.1374 -0.1739  0.1511
 8978W        W25825   3.604  17.492   4.205  0.2132  0.0807 -0.1295
 8979W        W25826  13.505   3.841  13.552  0.1318 -0.1318  0.0594
 8980W        W25827  12.974  15.827  14.138  0.3084  0.1202  0.0933
 8981W        W25828   4.276  10.106   0.343  0.2310 -0.2656  0.1826
 8982W        W25829  16.921  15.740  10.844 -0.1037  0.4101  0.2164
 8983W        W25830  10.814  12.416   1.035  0.1997 -0.0557 -0.1301
 8984W        W25831  17.534   6.098   2.652 -0.0380  0.3707 -0.0724
 8985W        W25832   4.097  15.352  13.731  0.3586  0.2689  0.0835
 8986W        W25833   8.237  15.915   4.746  0.1460  0.2582  0.1073
 8987W        W25834   2.851  16.820   0.613 -0.0930  0.3373 -0.2372
 8988W        W25835  15.649   8.126   5.024 -0.2103  0.1714  0.0082
 8989W        W25836  16.258  16.334  12.656  0.0294 -0.0936 -0.2523
 8990W        W25837   9.685  18.871  13.119  0.2132 -0.0644  0.2747
 8991W        W25838   5.511   8.537   4.720 -0.0342 -0.0197  0.0942
 8992W        W25839  12.559   8.181  11.915 -0.0243  0.0774 -0.0331
 8993W        W25840   0.001  17.555   3.227  0.2224 -0.2298  0.1458
 8994W        W25841  15.689   6.648  12.968 -0.3337  0.0254 -0.1512
 8995W        W25842   3.348  18.477   2.079 -0.2359 -0.1772 -0.0203
 8996W        W25843  15.105   7.586   3.019 -0.1098 -0.2192 -0.0625
 8997W        W25844  12.831   3.306   0.412  0.4379  0.1892  0.0128
 8998W        W25845  14.864   2.942  12.334  0.0632  0.5654 -0.3086
 8999W        W25846  19.052   5.152   1.299 -0.1468 -0.2176  0.2421
 9000W        W25847   0.155   1.541   1.447  0.1634  0.0541 -0.2023
 9001W        W25848   6.119   1.456  14.584 -0.0007 -0.2684  0.3279
 9002W        W25849   0.820   4.828   3.513 -0.0071 -0.0265  0.0621
 9003W        W25850   1.036  15.593   4.071  0.0178 -0.3876 -0.3010
 9004W        W25851   7.008  15.980  12.881 -0.2131  0.1436  0.0295
 9005W        W25852  16.338  17.476  14.289 -0.0592 -0.1588  0.2755
 9006W        W25853   6.236  13.368  10.970 -0.0787  0.1789  0.0175
 9007W        W25854   7.048   9.318   9.286 -0.0870  0.1060  0.2807
 9008W        W25855   3.334  14.186   9.887  0.3050 -0.2639 -0.3141
 9009W        W25856   3.210  16.298  12.309  0.1847 -0.4342  0.1711
 9010W        W25857   0.427   0.942  11.421 -0.1491  0.0433  0.0281
 9011W        W25858  12.062   6.124  13.697  0.2810  0.0411  0.0008
 9012W        W25859  10.871  14.190   0.335 -0.1245  0.0955  0.0391
 9013W        W25860  13.152  13.050  12.404 -0.3081  0.2292 -0.0390
 9014W        W25861   8.358   6.868   4.959  0.1596  0.1869  0.2747
 9015W        W25862  10.423   9.543  13.692 -0.0625  0.1773 -0.2026
 9016W        W25863   7.051  18.906  13.110 -0.1674  0.4495  0.0501
 9017W        W25864  17.414   0.767  10.369  0.0127 -0.2734 -0.0667
 9018W        W25865   7.897  14.945  13.381 -0.1061  0.0241  0.3485
 9019W        W25866   4.375  11.003   4.576  0.4922  0.1201  0.0317
 9020W        W25867  14.332   1.046   1.437  0.1298 -0.2068  0.0118
 9021W        W25868  13.715  11.352   2.547  0.0616  0.0091 -0.3255
 9022W        W25869   2.171   6.819   3.160  0.1357 -0.1447 -0.0510
 9023W        W25870  14.356  11.501   1.094  0.0646 -0.0918  0.0909
 9024W        W25871   4.530  13.378  11.252  0.3526 -0.0822 -0.5312
 9025W        W25872   3.194  10.622   4.989 -0.4517 -0.0908 -0.0008
 9026W        W25873   1.939   1.824  13.384 -0.0695  0.0133  0.0751
 9027W        W25874  12.959   8.990  12.341 -0.0983 -0.0813  0.5059
 9028W        W25875  16.254  12.242  14.320  0.0703 -0.0557  0.3106
 9029W        W25876   6.889   0.467   1.705  0.1822 -0.0052  0.0958
 9030W        W25877   2.430   6.335   3.251  0.1143 -0.1190  0.0890
 9031W        W25878   1.973  16.565   3.277  0.2102 -0.1228  0.2396
 9032W        W25879  12.796  10.007   1.145 -0.0403 -0.0592 -0.3385
 9033W        W25880  17.149   2.690  13.951 -0.1193 -0.0397 -0.2615
 9034W        W25881   7.055  15.312  14.556  0.1626  0.3478 -0.0576
 9035W        W25882  19.596   4.103   4.822  0.1598 -0.0604  0.1763
 9036W        W25883   8.054   6.566  12.505 -0.3100  0.2762 -0.0621
 9037W        W25884  10.202   3.557   4.378 -0.0562 -0.1247  0.3260
 9038W        W25885  15.835  15.092  11.156 -0.0233  0.2615 -0.3209
 9039W        W25886   1.473  12.549   0.428  0.1280 -0.3694  0.3014
 9040W        W25887   1.073   0.133   4.347 -0.0699 -0.1290  0.1319
 9041W        W25888   3.715  10.236   3.347  0.1708 -0.0375 -0.0854
 9042W        W25889  13.057   4.665  13.531  0.0353 -0.1735  0.0562
 9043W        W25890   3.441  19.498  10.198 -0.1561 -0.1826 -0.0487
 9044W        W25891   8.153  15.407  10.726  0.0999  0.1337 -0.2080
 9045W        W25892  16.180  17.410   2.746 -0.2257 -0.1299  0.3219
 9046W        W25893  16.783   6.609   3.621 -0.0582 -0.0426 -0.0313
 9047W        W25894   8.915  19.287  14.458  0.1223  0.0258  0.1453
 9048W        W25895   7.056  19.019  10.376  0.2158  0.1463  0.3444
 9049W        W25896   4.875  12.701  13.619 -0.0042 -0.0253  0.0721
 9050W        W25897   8.170  11.466   4.540 -0.0487 -0.1079 -0.0590
 9051W        W25898  14.473  11.095   0.178  0.0998 -0.1741  0.2751
 9052W        W25899   6.895   6.352   3.260 -0.0046  0.3264 -0.2320
 9053W        W25900   2.840   1.133  10.911  0.1465 -0.0070  0.0298
 9054W        W25901  16.569   8.443  13.624  0.3637 -0.2231  0.0503
 9055W        W25902   5.368   5.887   3.350 -0.1654  0.1225 -0.1216
 9056W        W25903  13.832  14.652  13.515 -0.2870  0.1031 -0.1710
 9057W        W25904  16.741  18.865  10.771 -0.2274 -0.0037  0.2488
 9058W        W25905   1.417  10.800   2.447  0.0726  0.3632 -0.0064
 9059W        W25906  14.937   5.826   3.317  0.1808  0.1201 -0.0345
 9060W        W25907  13.560  10.472  11.696  0.2421  0.0779 -0.0003
 9061W        W25908   4.533   4.932   9.552 -0.0068  0.0450  0.2067
 9062W        W25909  19.283   0.345   9.952 -0.1762 -0.2889  0.0020
 9063W        W25910   5.054  11.428   2.371 -0.2017  0.1049  0.0237
 9064W        W25911   4.977  12.959   4.758  0.0423 -0.0422 -0.0055
 9065W        W25912   5.488   5.438   4.151  0.1392 -0.1042  0.1707
 9066W        W25913   7.482   7.059   3.668  0.3040  0.0892  0.3027
 9067W        W25914  18.334   0.813   1.512 -0.1104 -0.3151 -0.2442
 9068W        W25915   5.307  14.593   2.787  0.5446  0.0604 -0.0655
 9069W        W25916   5.650  14.836   2.464  0.3542 -0.3478 -0.2248
 9070W        W25917   6.470   5.259   1.058 -0.1023  0.1031 -0.1913
 9071W        W25918  17.269  13.448  10.863 -0.1664 -0.1088  0.1532
 9072W        W25919   1.509  14.745   4.710 -0.0696  0.0366  0.1858
 9073W        W25920   2.933  15.011  14.306  0.1036  0.0521  0.0992
 9074W        W25921   7.990   6.137  12.185 -0.0012  0.1709  0.1221
 9075W        W25922  15.235   3.416  10.275  0.1907  0.3406 -0.0705
 9076W        W25923   4.926   6.819   2.032  0.1621 -0.0363 -0.1612
 9077W        W25924   8.203   9.586  14.111  0.3278 -0.4819  0.0507
 9078W        W25925   7.986   8.194   4.392 -0.0262  0.2603  0.2423
 9079W        W25926   7.958   1.390  12.117 -0.0861 -0.0990  0.2766
 9080W        W25927   0.868  15.226  10.944 -0.2579 -0.0766 -0.1239
 9081W        W25928  13.625  12.626  13.490  0.1243 -0.0223  0.1217
 9082W        W25929   0.122   6.264   0.791  0.2218 -0.0940 -0.3559
 9083W        W25930  11.768  12.345   3.836 -0.2391  0.0466 -0.0627
 9084W        W25931  18.300  12.152   2.863 -0.1239  0.3629 -0.4354
 9085W        W25932  19.608  19.480  12.414  0.2000  0.1421  0.0620
 9086W        W25933   4.089  17.468   4.343 -0.0711  0.3113 -0.2054
 9087W        W25934  12.789  16.388   1.323 -0.2148  0.1603 -0.2760
 9088W        W25935  18.350   1.005  13.565 -0.0937  0.0551 -0.0226
 9089W        W25936   2.093   9.001   4.041 -0.2000  0.1272 -0.2005
 9090W        W25937  10.289  19.269   4.550 -0.0765  0.0512 -0.0983
 9091W        W25938   1.877   9.412  13.282  0.1791  0.2240  0.0676
 9092W        W25939  11.926   6.226  11.036  0.3082 -0.3354 -0.1832
 9093W        W25940  10.463   1.942  10.317 -0.0077  0.2438  0.1114
 9094W        W25941   0.565  15.515   3.888 -0.2127 -0.1073  0.0670
 9095W        W25942   7.456  12.452   2.727 -0.0644 -0.6320 -0.0099
 9096W        W25943   8.528   4.694   2.593  0.0267 -0.0221  0.1139
 9097W        W25944  12.831  16.189   3.258 -0.0907 -0.0296 -0.0327
 9098W        W25945  15.196  19.628  11.321  0.2424  0.0675 -0.0884
 9099W        W25946   1.697   8.772   2.906 -0.3930 -0.2614 -0.1266
 9100W        W25947   5.225   1.745   3.038 -0.2716 -0.1584 -0.1643
 9101W        W25948   1.430   0.456   3.440 -0.3561  0.2541  0.3370
 9102W        W25949  18.376  10.838  11.557 -0.1410 -0.1927 -0.1734
 9103W        W25950  18.862   9.751  12.139 -0.0445 -0.0877  0.1711
 9104W        W25951  16.517   2.946   2.764  0.0511  0.0561 -0.2955
 9105W        W25952   5.951   6.155   5.420  0.1593 -0.2621 -0.3167
 9106W        W25953   5.952   8.610   1.088 -0.1585 -0.2521 -0.0174
 9107W        W25954  16.155   4.396  10.984 -0.0665 -0.1404 -0.1073
 9108W        W25955  14.335   4.778   1.461  0.1343  0.2012 -0.1434
 9109W        W25956   1.609   7.780  12.752  0.0755  0.1272 -0.1547
 9110W        W25957   6.997   7.889   4.816  0.1109 -0.2088 -0.0869
 9111W        W25958   5.737  17.576   1.211  0.1185  0.3304  0.1298
 9112W        W25959  16.659   0.688  12.188  0.0822  0.0753 -0.3903
 9113W        W25960   1.888   6.903   9.318 -0.1733 -0.1808 -0.0014
 9114W        W25961  18.294  14.814  11.028 -0.6316  0.1166  0.0652
 9115W        W25962   8.386   6.412  11.088 -0.0975  0.2376  0.1177
 9116W        W25963  18.248  16.122  10.248 -0.5040  0.3409  0.0961
 9117W        W25964  13.499   8.775   0.578 -0.0163  0.1108 -0.2160
 9118W        W25965   4.738  11.462   1.134  0.1709 -0.0986 -0.3096
 9119W        W25966  15.091   2.696  13.137 -0.0918 -0.2748  0.1297
 9120W        W25967  17.936   1.551   2.894  0.1823 -0.1236 -0.1370
 9121W        W25968  18.354  16.916  10.278 -0.0620  0.1034 -0.0535
 9122W        W25969  12.240  19.312   2.451  0.0803  0.0937  0.0125
 9123W        W25970   8.362   8.472   4.811  0.2315  0.0374  0.2138
 9124W        W25971   1.536   0.702   1.411 -0.1733 -0.0822 -0.0333
 9125W        W25972   1.591   4.160  10.570 -0.1111 -0.1690 -0.2093
 9126W        W25973  16.664   9.132   4.023 -0.1624 -0.2007 -0.0105
 9127W        W25974  17.157   6.548  10.223 -0.2787 -0.4424  0.0936
 9128W        W25975   5.127  13.273  14.186 -0.1007 -0.0604  0.1390
 9129W        W25976  16.924   0.550   2.734 -0.0691 -0.1718  0.5025
 9130W        W25977  17.579   3.753   3.601 -0.4543 -0.0391 -0.2758
 9131W        W25978   3.560  13.454  14.553  0.1212 -0.1812  0.4821
 9132W        W25979   1.086  14.952  12.803 -0.1331  0.1046 -0.0451
 9133W        W25980  19.452   7.835  12.515  0.0659 -0.2412 -0.2481
 9134W        W25981  15.608   3.842  13.858 -0.1810  0.1296 -0.2142
 9135W        W25982   0.692   5.579   3.097  0.0980 -0.0125  0.1072
 9136W        W25983   0.786   9.663   4.769 -0.1092 -0.0785 -0.2231
 9137W        W25984  10.585   4.172   0.490 -0.2623  0.0520  0.0365
 9138W        W25985  15.506  14.557   4.243  0.0046 -0.1574 -0.0909
 9139W        W25986  16.728  14.145   1.192 -0.1479 -0.4362 -0.2138
 9140W        W25987   4.852  15.199  12.294 -0.1342 -0.1110 -0.3475
 9141W        W25988   7.374  18.124  12.412 -0.2801 -0.0876  0.2332
 9142W        W25989  18.580   7.642  13.563 -0.1852 -0.0407 -0.1224
 9143W        W25990  14.793  13.093  11.451 -0.3403 -0.2366 -0.0186
 9144W        W25991  10.093   0.362  10.548  0.3938  0.2401  0.1320
 9145W        W25992  15.126   3.248  13.124 -0.2473  0.4290  0.0567
 9146W        W25993   3.256  10.577   1.666 -0.3135  0.1790 -0.2739
 9147W        W25994   7.121   4.492   0.631  0.0722  0.0343 -0.1854
 9148W        W25995   5.618  18.202  12.167 -0.2019 -0.1046 -0.1033
 9149W        W25996  15.762   4.453   2.390  0.0048 -0.0565 -0.2159
 9150W        W25997  12.130  16.972   2.296  0.0233  0.0847  0.0245
 9151W        W25998  13.866   9.895   2.606 -0.0827 -0.0680  0.0923
 9152W        W25999  18.406  18.683   9.656  0.2028  0.2413 -0.2626
 9153W        W26000   8.276   5.373  13.042 -0.2489 -0.0595 -0.0574
 9154W        W26001  18.658   0.991  13.154 -0.0934  0.0619  0.0836
 9155W        W26002   4.547  17.005   3.497 -0.5653 -0.2320  0.2741
 9156W        W26003   1.145   6.371   2.777 -0.0200 -0.0629  0.2975
 9157W        W26004   9.598  15.949   0.279 -0.0714  0.0154 -0.0008
 9158W        W26005  12.142  18.641   3.499 -0.2633  0.0450  0.2304
 9159W        W26006   9.063   6.049  13.228 -0.0600  0.1660 -0.0664
 9160W        W26007  18.182  19.033  12.561 -0.1978 -0.1604  0.0354
 9161W        W26008   0.680  11.090   1.839 -0.2218 -0.4449 -0.2664
 9162W        W26009   6.764   0.499   2.195 -0.0028 -0.1606 -0.3028
 9163W        W26010  17.019   5.022   1.718  0.3306 -0.0871  0.0728
 9164W        W26011   5.605  11.601   0.462  0.0589 -0.3839  0.2751
 9165W        W26012   9.505   5.798   0.688 -0.1756  0.1223 -0.1662
 9166W        W26013  12.591  13.729   2.351  0.0234 -0.0542  0.0531
 9167W        W26014   2.062  15.289   1.388 -0.3605 -0.1795 -0.1542
 9168W        W26015  13.997  18.586  13.032 -0.0650  0.0729 -0.0828
 9169W        W26016  18.951   1.638  12.441 -0.0516  0.1147  0.0195
 9170W        W26017  16.233   9.359   2.838 -0.2606  0.1714  0.3691
 9171W        W26018  11.141  10.048  12.442  0.0574 -0.0914  0.1984
 9172W        W26019  15.931   1.765  10.229  0.1570 -0.5310  0.4378
 9173W        W26020   1.082   4.715  10.026 -0.1791  0.3229 -0.1529
 9174W        W26021   7.835  12.354  13.580  0.1467 -0.1592 -0.0330
 9175W        W26022   2.306   3.832   1.278 -0.1168  0.0002  0.2828
 9176W        W26023   1.540   1.348   2.591  0.3357  0.0124  0.3689
 9177W        W26024   9.548  11.384   2.004  0.0681  0.1895 -0.0951
 9178W        W26025   9.654   8.111   5.025 -0.3522 -0.1697  0.2344
 9179W        W26026  16.413  18.831   0.003 -0.3813  0.3703 -0.1442
 9180W        W26027   2.669   6.372   1.393  0.0701  0.0833  0.1247
 9181W        W26028   8.780  15.899   1.648 -0.1127  0.0982 -0.2041
 9182W        W26029  17.161  14.088  13.576 -0.0357  0.1997 -0.1458
 9183W        W26030   5.298   7.862   4.334 -0.0721 -0.1053  0.0454
 9184W        W26031  17.069  12.877  12.947  0.0553  0.0318 -0.0384
 9185W        W26032   2.222  15.754   1.668  0.2569 -0.2842  0.1679
 9186W        W26033   4.268   3.420   4.146  0.0808 -0.2565  0.1242
 9187W        W26034   3.307   0.448  14.536 -0.0494 -0.1597 -0.1599
 9188W        W26035   1.869   6.994   2.762 -0.2095 -0.2083  0.1466
 9189W        W26036   0.052   1.554  14.180  0.0234  0.0207 -0.1074
 9190W        W26037  15.716  10.350   2.636 -0.1556 -0.4226  0.2176
 9191W        W26038   6.920  19.621  12.616  0.2809  0.1315 -0.1824
 9192W        W26039  13.050  18.023   3.678  0.3040  0.2031  0.1121
 9193W        W26040  16.209   8.299   2.578 -0.0385 -0.0776 -0.0288
 9194W        W26041   9.181  14.092  14.306  0.1134 -0.1806 -0.1465
 9195W        W26042  11.359   4.974  14.585  0.2864 -0.3276  0.0127
 9196W        W26043  10.845   0.669   1.284 -0.2770  0.2929 -0.1091
 9197W        W26044  13.839   5.309  14.498  0.0103  0.1050 -0.0941
 9198W        W26045  18.661  13.113   0.148 -0.2821  0.0343 -0.0659
 9199W        W26046   1.805   1.632   1.408 -0.1551  0.1307 -0.2353
 9200W        W26047  12.868   7.419   0.540 -0.0104  0.1361  0.2269
 9201W        W26048   0.194  14.057   0.380  0.0355 -0.0133  0.0953
 9202W        W26049  11.060  13.156  11.043 -0.1951  0.1136  0.2757
 9203W        W26050   2.830  14.969  11.230 -0.3549 -0.0495  0.0011
 9204W        W26051   0.038  10.426   3.741 -0.0242  0.0312  0.1421
 9205W        W26052  11.500  15.311  13.760  0.0750  0.3657  0.4460
 9206W        W26053   2.102   4.394  10.251 -0.0893 -0.1042  0.1767
 9207W        W26054  14.233   3.290   2.277  0.2988 -0.2670 -0.2099
 9208W        W26055   0.910  10.229   2.568 -0.1552  0.0946 -0.1639
 9209W        W26056  18.592   5.993   1.768  0.0041  0.0387 -0.2207
 9210W        W26057   1.105   7.407   4.114  0.0775  0.1457 -0.1240
 9211W        W26058  11.897   0.166   4.774  0.1445  0.0850  0.1341
 9212W        W26059  17.998   3.527  10.665 -0.0360 -0.1950 -0.1709
 9213W        W26060  10.372  14.365   4.979 -0.0195 -0.1559  0.0073
 9214W        W26061  12.265  12.584   2.536 -0.2199 -0.1487 -0.0507
 9215W        W26062  11.872   9.374  11.007 -0.1837  0.0358 -0.1873
 9216W        W26063   9.380  11.157   4.678  0.0741  0.3966 -0.0063
 9217W        W26064  10.041   7.477   3.139 -0.1281  0.0410  0.1048
 9218W        W26065  11.403  10.802  14.292  0.1781 -0.3584 -0.2701
 9219W        W26066   2.315  12.284   9.909 -0.3301  0.2445  0.0987
 9220W        W26067   4.965   2.123  12.768  0.3335  0.2840 -0.2096
 9221W        W26068   6.531   0.025   3.351 -0.0095  0.4701 -0.1308
 9222W        W26069  18.401  10.384   0.950 -0.0565  0.2155 -0.0755
 9223W        W26070   9.978  11.425  12.309 -0.0650  0.1390  0.1075
 9224W        W26071  12.922   1.971  12.664 -0.1556  0.2053  0.0444
 9225W        W26072  17.374  10.418  14.500 -0.2848  0.0749 -0.2021
 9226W        W26073  17.315   1.291  10.130  0.0829 -0.2142  0.1283
 9227W        W26074   2.963   3.033   0.897  0.0761 -0.1408  0.2191
 9228W        W26075  14.867   7.820  11.659  0.1309 -0.1260 -0.1425
 9229W        W26076  18.073   3.602   3.777  0.1792 -0.0701  0.3469
 9230W        W26077   1.593  18.079  14.421  0.1093 -0.3374 -0.0785
 9231W        W26078   2.641  19.173  13.587  0.0558  0.0520 -0.2196
 9232W        W26079   9.133  16.905  11.473  0.1579  0.0026  0.1825
 9233W        W26080   6.325  16.101  13.622  0.0139 -0.0967 -0.1135
 9234W        W26081   5.092   3.122   1.744 -0.1667  0.0528  0.2505
 9235W        W26082  15.073   4.396   4.559  0.0238 -0.1631 -0.2072
 9236W        W26083   5.131  19.220   0.033 -0.0654 -0.3100  0.2205
 9237W        W26084   0.018  14.764  13.920 -0.1019 -0.2481 -0.0031
 9238W        W26085  10.938   0.121  10.494  0.0356 -0.3590  0.0263
 9239W        W26086   4.368   4.319   4.715 -0.3578  0.0650  0.0930
 9240W        W26087   6.263  10.706  12.897  0.3243 -0.2208 -0.0432
 9241W        W26088  18.723  15.086   3.799 -0.0953  0.2489 -0.0805
 9242W        W26089   7.396  13.615  10.768 -0.4548  0.0421 -0.0775
 9243W        W26090  16.312   3.925  13.223  0.0427  0.0337 -0.0038
 9244W        W26091  15.295  16.934  11.265 -0.3525  0.1923  0.1021
 9245W        W26092   9.270   1.887  13.463 -0.0396 -0.0560 -0.0667
 9246W        W26093   6.685   0.085   1.935  0.1332 -0.1678  0.1983
 9247W        W26094  17.057   1.458   9.736  0.0662  0.2817 -0.0638
 9248W        W26095   3.593   6.903   5.350  0.1225  0.0213 -0.1041
 9249W        W26096   6.696  11.330  12.251  0.2127  0.1047  0.0312
 9250W        W26097  19.259  14.314   3.260  0.1234  0.2359 -0.2390
 9251W        W26098   4.120   7.993   9.428 -0.1970  0.3506 -0.0439
 9252W        W26099  14.408   5.498   2.779 -0.0863 -0.0044 -0.0814
 9253W        W26100  15.614  16.831  13.058  0.2906  0.2326  0.1045
 9254W        W26101   9.853   5.892   4.032 -0.0395  0.1670 -0.2393
 9255W        W26102   0.235  16.601   3.002 -0.4498  0.3618  0.1949
 9256W        W26103   7.638   7.579  13.471 -0.0659  0.3552 -0.2183
 9257W        W26104  13.868  15.204  13.421 -0.4132  0.3101 -0.0410
 9258W        W26105   1.616  11.682  12.812  0.0981  0.1409 -0.1110
 9259W        W26106   5.432   9.081   5.572 -0.3428  0.1437  0.0252
 9260W        W26107   5.685   9.749   1.015  0.3311  0.2035  0.0244
 9261W        W26108  15.432  10.426  10.671 -0.0796  0.0236  0.2642
 9262W        W26109   8.369   0.177  13.987 -0.0869 -0.0094  0.2728
 9263W        W26110   5.585   9.392  11.775 -0.0894  0.0034 -0.2021
 9264W        W26111  17.958  15.801  13.360  0.1671  0.0687  0.0830
 9265W        W26112   3.005   7.282   4.356 -0.0533  0.0474 -0.1538
 9266W        W26113  10.553   8.618   5.089  0.3533 -0.4099  0.1563
 9267W        W26114  15.643   9.017  11.745 -0.1611 -0.3307 -0.1686
 9268W        W26115   9.867  17.562  12.183  0.4333  0.0042 -0.0920
 9269W        W26116  14.699   6.507  11.053 -0.1504  0.2548 -0.0912
 9270W        W26117  14.227  19.610   4.953  0.0281 -0.2245  0.0736
 9271W        W26118   0.624  18.450   1.584 -0.1601 -0.3442 -0.1401
 9272W        W26119  13.395  16.977  12.886  0.2478  0.1365 -0.1516
 9273W        W26120   2.205  15.813  11.963  0.1680 -0.0440 -0.0483
 9274W        W26121   6.167  17.214  13.030 -0.3733 -0.0030 -0.1065
 9275W        W26122  19.064  17.380   1.531  0.0688 -0.0879 -0.2135
 9276W        W26123   6.412   3.630   5.096 -0.1703  0.1176 -0.0850
 9277W        W26124  14.519  12.473   3.605 -0.0681  0.0696  0.1351
 9278W        W26125   8.314  18.643   0.723  0.1302  0.0498 -0.0198
 9279W        W26126  11.089   5.413   2.134 -0.2181 -0.2061  0.0754
 9280W        W26127   7.286  10.583  11.791  0.0207 -0.3268 -0.0502
 9281W        W26128  12.817   5.822   4.924 -0.0320  0.0176 -0.3350
 9282W        W26129   8.033   3.917  14.178 -0.2285  0.1099  0.1181
 9283W        W26130   3.266  17.470   1.710  0.2051 -0.0325 -0.0286
 9284W        W26131  12.495   3.612   2.610 -0.1357 -0.2938 -0.0932
 9285W        W26132   0.813   7.935   0.523 -0.0984 -0.1376 -0.0976
 9286W        W26133   7.519  18.185  11.626 -0.1420 -0.0642 -0.0845
 9287W        W26134   5.884  18.633   0.069 -0.0722  0.0366  0.5522
 9288W        W26135  17.243  10.760  14.164 -0.1253 -0.0165 -0.1376
 9289W        W26136  10.593  16.059  13.242  0.2898  0.3631  0.3747
 9290W        W26137   1.931  15.576   0.729  0.5598 -0.0164 -0.1742
 9291W        W26138   7.152  10.321   1.243  0.2519 -0.0831  0.1874
 9292W        W26139  16.181   0.763  14.298 -0.0605  0.1850  0.1006
 9293W        W26140   6.334  14.976  12.640  0.1899  0.0193  0.0919
 9294W        W26141  15.956   2.117   0.079 -0.0973 -0.0025 -0.1941
 9295W        W26142   8.112  18.372  11.038  0.1512 -0.1929  0.1452
 9296W        W26143  15.910   8.927   2.837 -0.1530  0.1368  0.0252
 9297W        W26144   7.483   4.538  12.714 -0.1419 -0.0688  0.1276
 9298W        W26145  16.184  11.836  13.183  0.0412  0.3191 -0.0523
 9299W        W26146  13.607  18.177  13.694  0.0973 -0.2035 -0.0005
 9300W        W26147  13.524  17.555  14.420  0.1732  0.3395  0.2334
 9301W        W26148   4.816  15.871   9.843  0.0269  0.0431 -0.2073
 9302W        W26149   7.451  10.052  13.336  0.2024  0.2449  0.3681
 9303W        W26150   0.178  11.696   3.989 -0.0536 -0.3517 -0.0917
 9304W        W26151   2.309  12.747   3.836 -0.2187 -0.1333  0.0970
 9305W        W26152   3.505  15.510  13.201 -0.0063 -0.0544  0.0962
 9306W        W26153  16.646   1.478  13.725  0.2070  0.1159  0.2080
 9307W        W26154  13.649  12.981   3.763 -0.0398  0.3272 -0.2093
 9308W        W26155   4.011   9.476   9.789  0.1138 -0.2808 -0.1281
 9309W        W26156  16.219  11.180  11.561 -0.0468  0.0376  0.1422
 9310W        W26157  15.844   7.660  13.823 -0.0899  0.0898 -0.0751
 9311W        W26158   9.624  10.122   0.112 -0.1244  0.0962 -0.3184
 9312W        W26159  12.753  11.145   2.833  0.3870 -0.0230  0.0275
 9313W        W26160  10.467   0.976   0.126 -0.4186  0.3230  0.0651
 9314W        W26161   6.587  12.557   4.623  0.0491  0.1562 -0.1350
 9315W        W26162   8.196  19.348  10.552  0.2385  0.0549  0.1406
 9316W        W26163   8.251   8.905  10.413  0.0728  0.2869  0.2202
 9317W        W26164   9.051  18.374   2.548 -0.3666  0.0699  0.2484
 9318W        W26165  17.239   5.941  13.205  0.1487  0.0518  0.0451
 9319W        W26166   8.885   0.504  10.301 -0.1230  0.2725  0.0920
 9320W        W26167  16.597   2.258   0.293 -0.1823  0.3667  0.2184
 9321W        W26168   7.252  11.321   2.935  0.1272  0.0447  0.0457
 9322W        W26169  16.674   9.463  10.934  0.3552 -0.1102  0.0693
 9323W        W26170   1.615  19.172   3.240  0.2275 -0.2645 -0.1207
 9324W        W26171   4.050  14.492  10.166  0.1221  0.1012 -0.2500
 9325W        W26172  12.918  12.647   5.276 -0.1540  0.3299 -0.2553
 9326W        W26173   8.789  14.435  11.990  0.3857  0.0405 -0.2527
 9327W        W26174  19.292   4.195   1.976  0.4841 -0.2399 -0.0080
 9328W        W26175   1.760  17.272   1.892 -0.2588 -0.0579 -0.2592
 9329W        W26176  15.211   8.439  14.055  0.1643  0.3265  0.1651
 9330W        W26177  17.257   9.086   3.283  0.5580  0.1217  0.1137
 9331W        W26178  17.094  15.872   3.020  0.1743  0.2124  0.0428
 9332W        W26179   3.345  10.418   0.305  0.1170 -0.2704 -0.2405
 9333W        W26180   2.508  16.523  12.507  0.2430  0.3842 -0.0084
 9334W        W26181  18.743   4.798   2.574 -0.2415  0.1400 -0.2882
 9335W        W26182  13.274   0.890   0.791  0.1165 -0.0637  0.1302
 9336W        W26183   9.859  16.178   3.337  0.0142 -0.4319 -0.1849
 9337W        W26184  17.666   8.914   2.991 -0.2370  0.1477 -0.1349
 9338W        W26185  10.443   8.360   0.773  0.2855 -0.3082 -0.0791
 9339W        W26186  19.136   7.788   0.224  0.4739 -0.1815 -0.3091
 9340W        W26187  14.823   3.018  10.034  0.3281 -0.0260  0.1766
 9341W        W26188   1.774  17.716   4.706 -0.1939 -0.1040 -0.0258
 9342W        W26189  13.118   5.371   4.251  0.2850  0.1018 -0.1730
 9343W        W26190  10.189   0.833  10.726 -0.0745 -0.0390 -0.0078
 9344W        W26191   6.242  14.838  11.837 -0.0269 -0.1913  0.2388
 9345W        W26192  17.563  19.193  13.046  0.2977  0.1041 -0.0956
 9346W        W26193   8.308  10.143   4.675 -0.1395  0.1087  0.1553
 9347W        W26194   2.791   8.410   0.144 -0.1366  0.1196 -0.1179
 9348W        W26195   8.431  12.245  12.239  0.1601  0.0187  0.4593
 9349W        W26196   6.698   9.768   1.648 -0.0531  0.0309  0.0908
 9350W        W26197  13.932  10.677   1.015 -0.0422  0.0865 -0.0283
 9351W        W26198  15.819   0.611  11.027  0.1042 -0.2357 -0.3947
 9352W        W26199   3.301  16.586   3.206  0.1541  0.0832 -0.1923
 9353W        W26200  19.315   9.473   0.710  0.0486  0.0976 -0.1519
 9354W        W26201  12.085  19.515  11.051 -0.0528  0.4566  0.0933
 9355W        W26202   3.823   9.333  11.994 -0.0480  0.0095 -0.1144
 9356W        W26203  16.247  11.193  10.398 -0.1080 -0.2208 -0.0393
 9357W        W26204  16.144  15.307   1.548  0.0789  0.0283  0.0193
 9358W        W26205  10.930   2.849   0.623 -0.0343 -0.1656 -0.1131
 9359W        W26206  10.775   5.635   9.730  0.0219 -0.0929 -0.2439
 9360W        W26207  14.058   3.236   3.536  0.0365 -0.1457  0.2408
 9361W        W26208   3.251  11.189   1.818 -0.0943  0.0082  0.2159
 9362W        W26209  14.739  12.097   3.876  0.0014 -0.0293 -0.0875
 9363W        W26210  13.291  17.889   1.331 -0.1009 -0.1146  0.1935
 9364W        W26211  10.197  10.409  11.642 -0.0713  0.3356  0.1900
 9365W        W26212  13.203   0.335  14.006 -0.1041  0.3871  0.2451
 9366W        W26213   6.105   1.139  10.446  0.3320  0.2584  0.1042
 9367W        W26214  12.791  13.289   2.315  0.1151  0.4544 -0.0528
 9368W        W26215   2.159   9.482   4.381 -0.3405 -0.2061  0.0184
 9369W        W26216   0.500  17.824   0.880  0.0207  0.2056 -0.0579
 9370W        W26217   9.501  14.181   4.306 -0.0582  0.1366  0.2438
 9371W        W26218  10.139  10.686   1.404  0.0456 -0.1371 -0.1828
 9372W        W26219   7.216   4.344  13.415  0.1505  0.0193 -0.0815
 9373W        W26220   0.023  14.243  14.555  0.2304  0.1681  0.0091
 9374W        W26221  19.557   9.369   2.942 -0.0592  0.0527 -0.3137
 9375W        W26222  17.190  10.221  10.866  0.4609 -0.2331 -0.1841
 9376W        W26223   1.028  10.761  10.493 -0.1575  0.2950  0.2851
 9377W        W26224   8.256  10.832  11.046  0.3752  0.2815  0.1598
 9378W        W26225   0.511   6.491   2.585  0.3513 -0.0361 -0.1416
 9379W        W26226   1.036   3.095   9.244 -0.1843  0.2229  0.0432
 9380W        W26227   6.905   8.328   0.717 -0.0193 -0.0314  0.4065
 9381W        W26228  12.253   3.498   4.546 -0.1516 -0.1780 -0.2114
 9382W        W26229   2.950  12.265   5.169 -0.0001 -0.1015 -0.1745
 9383W        W26230   0.228  17.705  10.819 -0.1766 -0.3035  0.0979
 9384W        W26231  10.301  18.654   3.717 -0.2756 -0.0086 -0.1539
 9385W        W26232   5.980  11.366   0.223 -0.0127  0.0590 -0.0878
 9386W        W26233  12.465   7.765  12.607  0.0343  0.0735  0.0680
 9387W        W26234   8.324   6.130  14.076 -0.0038  0.0569  0.0234
 9388W        W26235  17.453   4.091   3.177 -0.0840 -0.0770 -0.0700
 9389W        W26236  12.351  10.583  12.277  0.0925  0.2040  0.1638
 9390W        W26237   8.578   5.591   1.978  0.2689 -0.3577  0.0678
 9391W        W26238   8.281   2.560  11.828 -0.0927 -0.3584 -0.2029
 9392W        W26239  15.697  18.277  13.176 -0.0046 -0.0099  0.2303
 9393W        W26240   3.060   9.156  13.752  0.1697  0.1177 -0.1772
 9394W        W26241  10.117  12.938   0.190  0.0483  0.0005  0.1082
 9395W        W26242   0.450   6.002   0.494  0.2343  0.0393 -0.1881
 9396W        W26243  17.089  19.569  10.143 -0.1157 -0.4253 -0.4972
 9397W        W26244   0.854   5.935  11.735 -0.0221  0.1634  0.2980
 9398W        W26245  11.716   9.469  14.397  0.2563  0.1478  0.1899
 9399W        W26246  12.696   4.154  13.016  0.0770  0.2168  0.0449
 9400W        W26247  16.006   9.479  11.797 -0.4067  0.1589  0.1164
 9401W        W26248  10.293  17.270   4.080 -0.0841 -0.2235 -0.1803
 9402W        W26249  17.082   1.372  10.609 -0.0179  0.0252  0.2515
 9403W        W26250   8.134  17.546   4.313 -0.0133  0.1656  0.1961
 9404W        W26251  12.710  18.154  12.336  0.1910 -0.1797  0.0551
 9405W        W26252  12.674  17.509  14.550 -0.0305 -0.0676  0.0349
 9406W        W26253   8.109  13.232  13.819  0.0105  0.0284  0.1082
 9407W        W26254   5.215  15.037  10.867  0.3596 -0.1414 -0.2318
 9408W        W26255  18.912   4.063  11.333  0.0951 -0.0000 -0.0041
 9409W        W26256   1.674  12.678   2.709 -0.1073 -0.2111  0.1080
 9410W        W26257   7.594  14.209   9.195  0.1019 -0.0812 -0.0351
 9411W        W26258  13.602  12.283   3.772 -0.0435  0.0042 -0.3224
 9412W        W26259  15.915   2.273   0.666 -0.0874 -0.1955  0.2063
 9413W        W26260   2.752   9.832   3.465  0.1789  0.0380  0.1597
 9414W        W26261   1.850   9.551   2.715 -0.0298 -0.0548  0.2004
 9415W        W26262  18.939   6.136   4.246  0.3725  0.4255  0.0748
 9416W        W26263   6.254  13.702   3.752 -0.1332 -0.0595 -0.3054
 9417W        W26264   6.602  11.447   0.960 -0.3364 -0.2141 -0.0774
 9418W        W26265   7.858  18.827   0.183  0.0535 -0.0469  0.0818
 9419W        W26266  16.208   4.389  14.190  0.1053 -0.1182 -0.1220
 9420W        W26267  12.558   4.038  12.511 -0.0049  0.3622 -0.3369
 9421W        W26268  10.160  19.469   0.527  0.0769  0.1143 -0.1391
 9422W        W26269  17.258  16.238   0.711 -0.1759  0.1419  0.0232
 9423W        W26270   8.600   6.908  12.612  0.2554  0.1837 -0.0788
 9424W        W26271  17.513  11.201  11.381 -0.1657  0.0292  0.0542
 9425W        W26272  11.110   2.918  11.956  0.1799  0.0031 -0.1454
 9426W        W26273  14.008   5.795  12.008  0.0188  0.0857  0.2098
 9427W        W26274   2.403  11.816   5.649  0.1037  0.1645  0.2944
 9428W        W26275  12.106  16.885   2.830  0.2724 -0.1061  0.0352
 9429W        W26276  15.539   2.960   1.267 -0.3713 -0.0711 -0.1716
 9430W        W26277   6.960  14.441   2.929 -0.1147 -0.4045  0.0756
 9431W        W26278   4.239   0.300  14.181 -0.1654 -0.0263  0.2921
 9432W        W26279  15.522   3.942  10.742 -0.0575 -0.1948 -0.2028
 9433W        W26280  14.766  14.261  11.265  0.1582 -0.0046 -0.2381
 9434W        W26281   1.252  14.426   4.095 -0.0764 -0.1050  0.2112
 9435W        W26282  15.954   5.738   4.345  0.2213  0.1664  0.2620
 9436W        W26283   8.024   7.104  13.280 -0.3147 -0.0001  0.1173
 9437W        W26284   7.219   7.812  13.716 -0.3171  0.2215  0.2486
 9438W        W26285   0.287  14.502   4.794  0.0467 -0.1504 -0.0631
 9439W        W26286  15.944   3.265   4.699 -0.2438 -0.1292 -0.0393
 9440W        W26287   1.434  13.476   2.927 -0.1993 -0.2224 -0.1444
 9441W        W26288  17.987   2.583  12.689 -0.0737  0.2425 -0.1059
 9442W        W26289   4.996   2.814   3.933 -0.2256  0.1368 -0.1905
 9443W        W26290   6.643  14.084   2.677  0.0217 -0.0756 -0.0399
 9444W        W26291   3.512   6.751   1.917 -0.3141  0.0339  0.1156
 9445W        W26292   6.530   9.694   3.411  0.0621  0.1642 -0.1582
 9446W        W26293   7.061   9.639   3.199 -0.1399 -0.2141  0.0609
 9447W        W26294   2.620  10.739   2.932 -0.0337 -0.1350 -0.2620
 9448W        W26295   0.767   4.317   4.633  0.1569  0.1797 -0.0762
 9449W        W26296   1.682  10.368  14.180  0.2277  0.2475 -0.1359
 9450W        W26297  14.815  18.190  11.366  0.0783 -0.0043 -0.1068
 9451W        W26298   9.025  14.969  11.444  0.1040  0.1027 -0.0379
 9452W        W26299   2.719   2.177   1.199  0.4541  0.0912 -0.1415
 9453W        W26300   9.654   0.011   0.643 -0.1482  0.0197 -0.2938
 9454W        W26301   1.490  15.855  11.041 -0.0929 -0.1786  0.1016
 9455W        W26302  18.582  12.104   4.004 -0.1507 -0.0840  0.0894
 9456W        W26303  18.881  11.095  14.375  0.1411  0.1294  0.0171
 9457W        W26304  14.948  13.108  14.325  0.3415 -0.1506 -0.0168
 9458W        W26305   0.626  17.216   4.355 -0.2983  0.0183  0.0964
 9459W        W26306  10.004   5.530  10.729  0.0857 -0.1854  0.3296
 9460W        W26307   1.010   0.738  10.826 -0.1250  0.0774  0.0683
 9461W        W26308   0.749  11.886   3.349  0.1105  0.0437 -0.0297
 9462W        W26309   2.778   8.129   3.305 -0.1480 -0.0020 -0.4167
 9463W        W26310   2.741   6.175  12.393 -0.0426 -0.3354  0.1014
 9464W        W26311   9.515   3.584  13.379 -0.2515  0.1315 -0.0566
 9465W        W26312  13.369  10.252  14.252 -0.6020  0.0520 -0.1106
 9466W        W26313  18.965   4.564   0.983  0.2019  0.1393 -0.0726
 9467W        W26314   5.098  12.426   2.239 -0.2969 -0.2615 -0.4520
 9468W        W26315  10.945  10.517  14.183  0.0909 -0.1753  0.0677
 9469W        W26316   0.552  16.062   1.630  0.1313  0.0803  0.0863
 9470W        W26317   0.849  17.987   1.388  0.1796 -0.2686  0.2789
 9471W        W26318   6.972  12.535  14.550  0.0057  0.0452  0.0147
 9472W        W26319   6.301   1.237   3.783 -0.2356  0.2624 -0.1217
 9473W        W26320   6.096  10.900   1.796  0.2329  0.2130 -0.0770
 9474W        W26321   0.579  19.323   2.012  0.1166 -0.0462 -0.3077
 9475W        W26322  14.452  15.167  10.119 -0.0606 -0.0223  0.2500
 9476W        W26323   4.980  17.906   4.876  0.1301  0.1429  0.1471
 9477W        W26324  16.719   7.384   4.344  0.1597  0.0465  0.2725
 9478W        W26325  10.642   9.466   3.146  0.1709 -0.0592 -0.0343
 9479W        W26326   3.736  19.218   3.952 -0.1409  0.1311 -0.0700
 9480W        W26327  18.724  11.903  13.906  0.2334  0.3035  0.1741
 9481W        W26328  13.276   3.730   1.288  0.0567 -0.0649 -0.3882
 9482W        W26329   2.120   3.216   2.941 -0.1807  0.0155  0.0423
 9483W        W26330  11.318   8.113  13.192  0.1585  0.1488 -0.4141
 9484W        W26331   0.295   7.076   3.417  0.5409  0.0284 -0.0653
 9485W        W26332   4.672   2.666   2.112 -0.1400 -0.0568 -0.2647
 9486W        W26333  11.858  12.021  11.924 -0.1972  0.0495 -0.2210
 9487W        W26334  17.346   2.212   3.861 -0.1291 -0.1348  0.1911
 9488W        W26335   1.770  11.784  12.259  0.0566  0.1389  0.4438
 9489W        W26336   7.871   2.882  11.739 -0.2715  0.0034 -0.0225
 9490W        W26337   6.485  14.378  11.862 -0.1194 -0.3074  0.0019
 9491W        W26338   8.089  12.345  10.777  0.1255  0.2168 -0.2158
 9492W        W26339  15.134  12.551  13.094  0.0971 -0.1308 -0.0310
 9493W        W26340  17.408  15.499   4.485 -0.1197 -0.1393  0.2487
 9494W        W26341  13.434  10.623  11.216 -0.2613 -0.0482  0.0052
 9495W        W26342  13.142   2.006  14.596 -0.0814 -0.2892  0.1278
 9496W        W26343   3.174  16.276   0.530 -0.4220 -0.2868 -0.1910
 9497W        W26344  11.729   1.148   3.503 -0.3005  0.3646  0.0776
 9498W        W26345  17.499   6.054  11.449 -0.0657  0.1668  0.0097
 9499W        W26346   0.295   6.072   3.807 -0.1233  0.1147 -0.0174
 9500W        W26347   3.007  15.475   2.855  0.0498  0.0421 -0.1999
 9501W        W26348   8.829  15.096  14.329  0.2565  0.1920  0.1660
 9502W        W26349   4.059   0.812   0.404 -0.1147 -0.2432 -0.0402
 9503W        W26350   5.267   8.506   0.534  0.1775  0.0467  0.3407
 9504W        W26351   4.916  10.624  10.883  0.1998 -0.2533 -0.0466
 9505W        W26352  10.247  16.130  11.254  0.0483  0.3671  0.1930
 9506W        W26353   1.559  13.408   3.905 -0.4755 -0.0314 -0.2642
 9507W        W26354  14.624  17.267   0.265  0.0537  0.0327  0.0621
 9508W        W26355  18.122   5.894   1.531  0.1027  0.0340  0.0825
 9509W        W26356   2.770  10.146  14.176 -0.2073 -0.0617  0.1094
 9510W        W26357   1.012  12.375   1.388  0.0888  0.1880  0.0443
 9511W        W26358   4.021   3.566   2.309 -0.2023 -0.1351  0.0867
 9512W        W26359  11.656  12.001  14.252  0.1952 -0.0236  0.3384
 9513W        W26360  10.162  15.438  11.662 -0.0828 -0.1230  0.0075
 9514W        W26361   4.486  18.698   4.804 -0.0201  0.0550  0.0771
 9515W        W26362   5.468  10.059  11.312 -0.0647  0.0260 -0.0091
 9516W        W26363  12.617  13.176  12.400  0.0406 -0.1482  0.1529
 9517W        W26364   7.463   3.033  13.142  0.0181  0.1849 -0.0392
 9518W        W26365   0.733   3.099   4.592  0.2679 -0.0590 -0.0679
 9519W        W26366   3.588  17.051   3.225 -0.0341 -0.1261  0.1334
 9520W        W26367   8.967  12.481   2.646  0.2659 -0.2422  0.0783
 9521W        W26368   9.185  10.107   4.452  0.3216 -0.1714  0.0838
 9522W        W26369   3.995   7.486   4.206  0.3019 -0.2110  0.0482
 9523W        W26370  13.625   0.306   2.214  0.1599 -0.1316 -0.0760
 9524W        W26371   0.134   9.003   3.382 -0.5559  0.2795 -0.0191
 9525W        W26372  17.370  14.090  14.476 -0.2526 -0.0465  0.1059
 9526W        W26373  14.445  14.053   3.535  0.1345  0.2326  0.3163
 9527W        W26374   4.973  12.228  13.450 -0.0352  0.0108  0.1514
 9528W        W26375  14.450   8.420   2.006 -0.3412 -0.1822 -0.2149
 9529W        W26376   3.486  11.920   2.653 -0.2827  0.0745 -0.0021
 9530W        W26377  13.861  14.428  10.481  0.0948  0.1642 -0.3146
 9531W        W26378  11.250  12.182   3.803 -0.0089 -0.1904 -0.2101
 9532W        W26379  17.085   4.311   4.750  0.0354  0.1842  0.0901
 9533W        W26380   4.869  14.106   0.098 -0.4116  0.1108 -0.0551
 9534W        W26381  15.380  19.080   0.732 -0.0954 -0.1315 -0.3660
 9535W        W26382  13.103  12.390   2.239  0.1077  0.0205 -0.1027
 9536W        W26383   8.536   6.488  12.342 -0.3285  0.0141 -0.0441
 9537W        W26384   1.027   2.107   1.316  0.0459 -0.0600  0.0764
 9538W        W26385  13.167   3.634   4.234  0.1541 -0.2103  0.0479
 9539W        W26386   3.984  18.332  13.267 -0.0997 -0.0311 -0.0777
 9540W        W26387  14.508   9.195  10.492  0.1086 -0.2341 -0.1387
 9541W        W26388   5.850  17.585  10.540 -0.0762  0.2367 -0.1437
 9542W        W26389   5.838   6.296   9.304  0.2023  0.1389  0.3756
 9543W        W26390   1.163  18.203   1.743  0.1335 -0.2732  0.4145
 9544W        W26391  13.872  13.658  13.302 -0.0188  0.0577  0.0815
 9545W        W26392  16.552  12.911   1.489 -0.4431 -0.0413  0.0767
 9546W        W26393   5.408   7.207  14.356 -0.1714 -0.0418  0.0988
 9547W        W26394   6.390   3.915   4.662 -0.2845 -0.2193 -0.0386
 9548W        W26395   5.995   9.799   4.127  0.2290 -0.0763 -0.1755
 9549W        W26396   1.468   9.885   1.518 -0.0924 -0.1085  0.1024
 9550W        W26397   2.437  17.089  10.554  0.3108 -0.0903 -0.2370
 9551W        W26398   1.685   7.766   0.214  0.4058  0.0745 -0.1271
 9552W        W26399   6.101   7.677  10.582  0.2766  0.2523  0.1115
 9553W        W26400   8.707  17.050   3.562  0.1677 -0.1644  0.1978
 9554W        W26401   8.500   4.138  12.613  0.3555 -0.2812 -0.1015
 9555W        W26402  15.975   2.824  14.249  0.0641  0.0845 -0.0434
 9556W        W26403  13.434   8.577  10.855 -0.1331 -0.4065  0.1264
 9557W        W26404   6.070   3.791   0.295  0.3744  0.2065  0.0474
 9558W        W26405   4.986   2.597   1.682  0.0983  0.3446  0.0816
 9559W        W26406  19.377  17.077  11.483 -0.1718  0.1780  0.0845
 9560W        W26407   1.816  14.434  10.515  0.0704  0.1051 -0.0161
 9561W        W26408   3.613   0.367  10.265  0.1732  0.0044 -0.0011
 9562W        W26409   9.300  15.078  13.041 -0.3074  0.0873  0.0117
 9563W        W26410   7.543   9.052  14.347  0.2432 -0.0012  0.1094
 9564W        W26411  15.583   9.802   5.724 -0.2670 -0.0249  0.3277
 9565W        W26412  10.264   7.361   4.885  0.1506  0.3235  0.1614
 9566W        W26413   7.590  14.201   4.170 -0.0814  0.3255 -0.2127
 9567W        W26414  12.252  14.039  10.800  0.0789 -0.2721 -0.0822
 9568W        W26415   9.828   8.732  12.178  0.0332 -0.1093  0.2024
 9569W        W26416  14.396  16.044  10.790 -0.0850 -0.4168 -0.1028
 9570W        W26417  19.127  16.234   2.086 -0.2398 -0.2424 -0.0257
 9571W        W26418  19.511   2.424  10.891  0.1098 -0.1373  0.3155
 9572W        W26419  12.270   9.514  12.903  0.4395 -0.0330  0.0417
 9573W        W26420  14.849  17.663  12.648 -0.0463  0.2459  0.0246
 9574W        W26421   3.310  11.333   5.204  0.0616 -0.0782  0.1131
 9575W        W26422   6.037   3.967   0.914 -0.1347  0.3460  0.1905
 9576W        W26423   9.707   4.286   3.334  0.1753 -0.3397 -0.0801
 9577W        W26424   8.607   8.052   3.886 -0.4312 -0.0470 -0.0956
 9578W        W26425   3.336  13.353   1.901  0.1746 -0.1834  0.0763
 9579W        W26426  18.132   8.741   4.282  0.1402 -0.0659 -0.1104
 9580W        W26427   4.743  12.032   0.672  0.0556  0.1759  0.0208
 9581W        W26428  14.444   5.021  11.658  0.0686  0.0796  0.0003
 9582W        W26429   2.317   1.393  13.701 -0.2999 -0.0702  0.1103
 9583W        W26430   6.337  13.052  13.723  0.2291  0.0162 -0.0976
 9584W        W26431   0.501  12.850  11.652 -0.0142 -0.0924 -0.0576
 9585W        W26432   6.451  12.751  10.461  0.1489  0.1774 -0.2491
 9586W        W26433  14.955  17.387   4.029 -0.1342  0.3041  0.1033
 9587W        W26434  14.059   3.249  10.001  0.0505  0.1931  0.2542
 9588W        W26435   3.978  19.471   1.293 -0.2768 -0.2400  0.1070
 9589W        W26436   8.866  13.944   0.041  0.1692  0.0091  0.0165
 9590W        W26437   8.385  18.703   4.949 -0.2506  0.2170  0.1941
 9591W        W26438  16.675   5.190   2.606  0.2516  0.0228 -0.2958
 9592W        W26439  13.252  15.917  13.154 -0.2154 -0.1658  0.2261
 9593W        W26440  10.907  18.094   2.055 -0.0836  0.2023  0.2787
 9594W        W26441   7.892   0.516   2.770  0.5348  0.4954  0.0728
 9595W        W26442  16.158   7.131  13.678  0.0320  0.1830 -0.0218
 9596W        W26443  15.694  18.708   0.766  0.3215 -0.0286 -0.2537
 9597W        W26444   5.429  12.550   2.655  0.0420 -0.2955  0.0928
 9598W        W26445   6.279   6.852   2.208 -0.3912  0.1805  0.2887
 9599W        W26446  15.952  10.988   1.200 -0.0076 -0.0858  0.1615
 9600W        W26447  16.188   6.938  12.423 -0.0522  0.0147  0.0993
 9601W        W26448   8.097   5.656   1.626 -0.1747 -0.2060  0.0203
 9602W        W26449  18.971  12.459   5.276  0.2175 -0.2574  0.1969
 9603W        W26450   0.762   2.361   2.228 -0.0564 -0.2886  0.0539
 9604W        W26451  15.931  17.987  12.098 -0.1516 -0.3840 -0.2140
 9605W        W26452  18.746   6.933  10.702  0.0185  0.4117 -0.0276
 9606W        W26453   8.752   9.883   3.016  0.2746  0.2108 -0.1887
 9607W        W26454   0.909   1.417  11.589 -0.1189 -0.1161  0.0169
 9608W        W26455   0.146  16.685   3.590  0.1781  0.0734 -0.0775
 9609W        W26456   6.822   8.048   0.206 -0.2938  0.0391 -0.1314
 9610W        W26457   7.899   2.895   4.178  0.3002  0.1639  0.1961
 9611W        W26458   2.505  17.160   0.835  0.0426  0.0049 -0.0459
 9612W        W26459   5.843  15.760  12.307 -0.0982  0.0204 -0.1681
 9613W        W26460   8.570  16.690   3.884  0.0496 -0.0445  0.0450
 9614W        W26461  10.144   6.309   1.852 -0.1955 -0.1418 -0.1825
 9615W        W26462   8.499  11.330  11.306  0.0905 -0.2239  0.0978
 9616W        W26463  15.584  11.500  14.100  0.2350 -0.0746  0.1225
 9617W        W26464   2.119  12.945  13.588  0.1614  0.1785 -0.1277
 9618W        W26465   1.252   3.405  12.390 -0.0532 -0.1027  0.4209
 9619W        W26466  19.253  10.501   1.194  0.1914 -0.2926  0.0120
 9620W        W26467  16.477   6.074  13.294  0.2887 -0.1800  0.0194
 9621W        W26468   5.497   5.717   0.250 -0.0516 -0.1170 -0.0081
 9622W        W26469   5.231   9.459   4.669 -0.3330  0.0992 -0.3060
 9623W        W26470   4.169   8.838  14.547  0.1375 -0.0227 -0.0809
 9624W        W26471   7.739   8.072  14.416  0.0066  0.0881 -0.2011
 9625W        W26472   0.766   5.499  13.310  0.0090  0.1493  0.0507
 9626W        W26473   9.474   9.126  10.508  0.3752 -0.1664 -0.0732
 9627W        W26474  14.228   3.681   3.457 -0.2469 -0.3021  0.0020
 9628W        W26475  18.393   4.074   1.991  0.0708 -0.1528 -0.3253
 9629W        W26476   3.367   8.095   0.725  0.1601 -0.0663  0.0274
 9630W        W26477   6.097  11.550  10.292  0.0072  0.0475 -0.2540
 9631W        W26478   0.735  14.537  11.289 -0.2596 -0.1901  0.0233
 9632W        W26479   8.463   1.370  12.987  0.3203  0.0973 -0.2640
 9633W        W26480  12.510  12.035   3.027 -0.1099  0.1169 -0.2091
 9634W        W26481  13.793   7.649  12.320  0.3082 -0.2910 -0.0385
 9635W        W26482   9.394   1.217   5.151 -0.1740  0.5270  0.2600
 9636W        W26483  18.145   3.968  10.321  0.0630 -0.0327  0.0357
 9637W        W26484  11.209  14.484   4.603 -0.0924 -0.2158 -0.1667
 9638W        W26485   6.258  11.732  11.085  0.1409  0.1326 -0.0834
 9639W        W26486   0.931  18.046  13.601  0.1361 -0.3139  0.2374
 9640W        W26487  15.173   6.570  14.351 -0.2350 -0.3074  0.2332
 9641W        W26488  11.261   5.050   2.422 -0.0354 -0.0306  0.1860
 9642W        W26489   0.594   9.264   2.284  0.0101  0.3051  0.1059
 9643W        W26490  11.969   3.361   2.663 -0.2083  0.0826  0.2145
 9644W        W26491   2.377  18.828   2.828  0.0827  0.1940 -0.1122
 9645W        W26492   8.596   9.289  10.716  0.1063  0.0352 -0.4493
 9646W        W26493  11.398  14.997   1.264  0.3852 -0.0815 -0.0151
 9647W        W26494   6.145   5.285   3.450 -0.0129  0.2066  0.0187
 9648W        W26495   1.549  16.914   1.253  0.1778 -0.1141  0.2892
 9649W        W26496   8.581  11.728   3.179 -0.2663  0.3084  0.1539
 9650W        W26497   3.804  10.903   1.250  0.1964 -0.2492  0.0385
 9651W        W26498  15.607  18.961  14.343  0.3292  0.0932  0.1217
 9652W        W26499   3.330   6.849   3.862 -0.2782 -0.3311 -0.2541
 9653W        W26500   2.569   2.064  14.600 -0.2022 -0.0054  0.3316
 9654W        W26501   3.595  10.648  11.859  0.0590 -0.0930 -0.0110
 9655W        W26502   0.005   5.184   3.425 -0.0569 -0.2881  0.0790
 9656W        W26503   7.003   9.983   0.272 -0.3145  0.1041  0.4045
 9657W        W26504  17.171  15.052  12.754 -0.1664 -0.0661  0.4413
 9658W        W26505   7.375   9.018  10.113 -0.1167  0.3413  0.0135
 9659W        W26506  12.771  18.905  12.608 -0.2453 -0.0203  0.3545
 9660W        W26507  10.122   1.022   3.951 -0.0420 -0.1226 -0.1120
 9661W        W26508   7.027   2.919  13.569 -0.2098 -0.1944  0.2272
 9662W        W26509  15.295  17.572  11.832 -0.2426 -0.0632  0.5885
 9663W        W26510   1.795   8.525  11.972 -0.2485  0.1320  0.3250
 9664W        W26511   8.447   8.324   4.346 -0.0680  0.0674  0.1505
 9665W        W26512  12.467  10.531  14.041  0.0066  0.2938  0.2754
 9666W        W26513   8.283  10.483   3.852  0.0355 -0.1752 -0.0104
 9667W        W26514   9.455  16.302  14.428  0.0844 -0.2324  0.0924
 9668W        W26515   8.502   7.345  12.426  0.0340 -0.1379 -0.0088
 9669W        W26516   3.233  15.301   1.998 -0.3112  0.0849 -0.1720
 9670W        W26517  12.813  10.311   3.831  0.1702 -0.0128 -0.0455
 9671W        W26518  19.058   5.339   9.820 -0.0699  0.1971  0.0838
 9672W        W26519  18.850   8.808   5.212 -0.0546  0.3159  0.3828
 9673W        W26520  14.532  17.580   0.663 -0.1978  0.0122 -0.0656
 9674W        W26521   2.863  11.869   4.735  0.1020  0.0535  0.0044
 9675W        W26522   2.422   6.851   3.931 -0.1839  0.1094 -0.1243
 9676W        W26523  19.081  18.959   3.656 -0.2026 -0.0931 -0.4802
 9677W        W26524   8.588   2.800   0.323  0.0883  0.1915  0.1499
 9678W        W26525   2.295  14.314   2.973  0.1878 -0.2075 -0.1381
 9679W        W26526  11.648   9.542   0.754 -0.2946 -0.1211  0.0156
 9680W        W26527   1.774   3.397  12.215  0.0762 -0.4103 -0.1363
 9681W        W26528   3.623  13.427  11.645  0.2483  0.2824  0.2283
 9682W        W26529   7.869  18.835  13.628  0.1028 -0.2299  0.0916
 9683W        W26530  16.024   3.081  13.177  0.1726  0.0557 -0.1061
 9684W        W26531  10.302   1.261   1.755  0.4257 -0.0576  0.0874
 9685W        W26532   6.950  14.046  11.884  0.3888 -0.1037  0.1603
 9686W        W26533   1.179  15.138   1.548 -0.1282  0.1219 -0.0818
 9687W        W26534  12.446   7.746   0.634 -0.0760 -0.0168 -0.2283
 9688W        W26535   5.747   1.118  13.208 -0.1563  0.0055  0.1947
 9689W        W26536   3.808  15.626  11.902  0.0370  0.1072 -0.1198
 9690W        W26537  12.269  18.261   0.442 -0.1691  0.2508 -0.3268
 9691W        W26538   0.504  13.971  14.086  0.1779 -0.2343 -0.2544
 9692W        W26539  14.886  17.325  12.117 -0.2154 -0.2705 -0.0884
 9693W        W26540   3.204  19.375   1.119  0.2621  0.4033  0.4405
 9694W        W26541   5.027   4.930   4.895 -0.0945 -0.0266 -0.1135
 9695W        W26542   7.725  17.810  13.362  0.2554 -0.1606 -0.2429
 9696W        W26543  16.382  14.057  13.292  0.1544 -0.1022 -0.0969
 9697W        W26544  12.419  18.742  13.625 -0.2905  0.4458  0.1882
 9698W        W26545   6.328  16.003   1.825 -0.1446 -0.1533 -0.0014
 9699W        W26546   7.322  13.666  11.839  0.0517 -0.1630  0.1171
 9700W        W26547   3.970  14.472   5.050 -0.2047 -0.1950  0.5397
 9701W        W26548   8.437   8.612  13.395  0.2492  0.1406 -0.2100
 9702W        W26549  17.929  18.464  11.443 -0.2009 -0.1605  0.0995
 9703W        W26550   6.615   9.432  11.059  0.3124  0.1290  0.0853
 9704W        W26551  12.458   0.802  11.348 -0.1889 -0.1254  0.0128
 9705W        W26552  10.081  13.859  10.396  0.1719  0.2306  0.0685
 9706W        W26553  14.692  16.185  14.578  0.0344 -0.4643 -0.0760
 9707W        W26554   9.959  15.169   3.342 -0.0451 -0.1271  0.2663
 9708W        W26555   7.789   0.403  13.098  0.0864  0.0003 -0.1988
 9709W        W26556   9.537   0.219  13.132  0.2381  0.1216  0.0861
 9710W        W26557   8.931   3.808   1.404  0.1523  0.0266 -0.0170
 9711W        W26558   8.274   3.880   1.309 -0.1248  0.0436 -0.1702
 9712W        W26559   7.491  18.856  12.331 -0.0944 -0.0438  0.0922
 9713W        W26560  17.914  12.694  12.481 -0.0991  0.1152  0.4846
 9714W        W26561   6.866   7.222   3.760 -0.3685 -0.1689  0.0599
 9715W        W26562  14.870  12.796  10.017 -0.1118  0.1718 -0.0082
 9716W        W26563  15.278  12.896  11.266 -0.1054 -0.0101  0.0365
 9717W        W26564  18.399   8.277  12.305 -0.1083 -0.2168 -0.1044
 9718W        W26565  15.127   0.654   0.857 -0.1838  0.1535 -0.0574
 9719W        W26566   8.586   7.546   3.775  0.1348 -0.1124  0.2511
 9720W        W26567  15.913   5.366  12.239  0.2471 -0.0408  0.1118
 9721W        W26568  10.684   5.592   5.383  0.1218  0.4441  0.0656
 9722W        W26569  19.188  15.999   1.072 -0.0661  0.1402 -0.0449
 9723W        W26570  17.928  18.327  13.866 -0.1429  0.1358 -0.0765
 9724W        W26571   3.530   0.466  12.796 -0.5162 -0.2515 -0.2432
 9725W        W26572  17.486  12.441  10.099  0.3620 -0.0778 -0.2063
 9726W        W26573   1.750   2.610   1.347 -0.2643  0.1860 -0.2593
 9727W        W26574   6.506   7.776   9.667 -0.0221  0.3319 -0.0474
 9728W        W26575   0.027  18.963  13.496  0.3006  0.1325 -0.0917
 9729W        W26576  16.281   9.500   4.136 -0.0640 -0.0031 -0.0443
 9730W        W26577  13.073   4.614   3.869 -0.1762 -0.3073 -0.0444
 9731W        W26578  10.755   5.589   4.891  0.1766 -0.0222  0.0778
 9732W        W26579  18.333   1.540  13.459 -0.1861 -0.0546  0.2164
 9733W        W26580  16.709   6.059   0.405  0.0166  0.1666  0.3479
 9734W        W26581  15.146  10.330  13.690 -0.0611 -0.0234 -0.0549
 9735W        W26582   9.719  15.465  14.074 -0.1959 -0.0092  0.0357
 9736W        W26583  17.318   3.420  14.552  0.2409 -0.0755  0.1496
 9737W        W26584   7.793  18.613  11.747 -0.0200 -0.1086  0.1647
 9738W        W26585  10.473  16.464   2.010  0.0332 -0.0988  0.2693
 9739W        W26586   2.049   2.747  14.364 -0.0713 -0.0309 -0.0354
 9740W        W26587  16.459   7.813   3.946 -0.1266 -0.0979 -0.1986
 9741W        W26588  12.017   2.002   0.876 -0.2156 -0.1670 -0.1996
 9742W        W26589  19.601   7.000  13.987 -0.2673 -0.1213 -0.2911
 9743W        W26590  15.066  14.593  11.552 -0.0321  0.3151  0.0885
 9744W        W26591   5.535  17.027  13.558  0.0915 -0.1131 -0.2181
 9745W        W26592  18.108  11.340   0.047 -0.2585  0.1049  0.0743
 9746W        W26593   1.896  19.340   1.652  0.1842  0.0068  0.0036
 9747W        W26594  19.153   4.391   3.305 -0.1997 -0.1736  0.0462
 9748W        W26595   5.431  13.233   2.711  0.0352  0.2316  0.5630
 9749W        W26596   9.228   6.096   1.366 -0.1882  0.0711  0.0001
 9750W        W26597   8.305  14.718   4.156  0.2068 -0.0902  0.0325
 9751W        W26598  17.006   1.215  12.332 -0.0540 -0.0320 -0.0229
 9752W        W26599  12.649  14.005   3.090 -0.1641 -0.3371  0.1866
 9753W        W26600   1.906   2.850  12.017  0.0883 -0.0897 -0.2909
 9754W        W26601  14.071   4.061   3.129 -0.0805  0.2345  0.2821
 9755W        W26602  15.945  17.664   3.300  0.1409  0.0242  0.0286
 9756W        W26603   9.710   5.819  10.480 -0.0292  0.0299  0.0240
 9757W        W26604   4.579  19.225   3.359 -0.2061 -0.1084 -0.0084
 9758W        W26605  15.214  11.184   3.569  0.0024  0.0224 -0.1230
 9759W        W26606   8.102   1.600   1.944  0.1363  0.1976  0.0436
 9760W        W26607  17.923  10.130  13.312  0.2043 -0.0666  0.2712
 9761W        W26608  15.152   7.870   9.724  0.2193  0.0011 -0.0684
 9762W        W26609   3.677  19.084   0.324  0.5794 -0.3399 -0.0945
 9763W        W26610  17.638   5.128  13.631  0.1158 -0.0933 -0.5723
 9764W        W26611  17.730  15.907  11.218  0.3530 -0.2200 -0.2906
 9765W        W26612   4.121  10.638   3.291  0.3528  0.0312  0.2409
 9766W        W26613   4.929  14.706   1.351 -0.2415 -0.0710  0.1134
 9767W        W26614   6.906   3.697   3.853 -0.0323  0.2100  0.0232
 9768W        W26615   0.230   0.181  11.360 -0.0671  0.0539  0.0158
 9769W        W26616  15.515  16.605  12.072  0.0850 -0.4274 -0.0697
 9770W        W26617   3.614   7.679   0.151 -0.0574  0.1054  0.1616
 9771W        W26618  16.841   0.579   1.711  0.0721  0.1067  0.2087
 9772W        W26619  10.979  10.264   2.652 -0.0484  0.2260  0.0014
 9773W        W26620   0.588   4.600  12.800  0.0678 -0.1850 -0.1347
 9774W        W26621  11.064  10.030   1.669  0.0294  0.2726 -0.0597
 9775W        W26622   8.290   3.019   0.808 -0.3417 -0.1294 -0.1216
 9776W        W26623   2.789   8.739  11.691  0.3222  0.2474  0.1304
 9777W        W26624   3.415   8.071   2.632 -0.3576  0.3536 -0.0998
 9778W        W26625   5.480   8.816  11.478  0.0212  0.2687 -0.1162
 9779W        W26626   1.701   8.879   9.463  0.1112 -0.0421 -0.3618
 9780W        W26627   1.527  14.358   1.011  0.0540  0.0436 -0.1390
 9781W        W26628   5.825   8.354   0.691  0.0288 -0.0146 -0.0094
 9782W        W26629   0.022  13.252   3.749 -0.2137  0.0523 -0.1643
 9783W        W26630   9.184   1.429  10.898  0.0001 -0.0706 -0.3739
 9784W        W26631  16.407  15.567   4.379  0.2654  0.0901 -0.1791
 9785W        W26632   2.271   8.382   1.822 -0.2147  0.1835 -0.0576
 9786W        W26633  19.446   7.607  13.531  0.1621 -0.4482  0.1270
 9787W        W26634  15.725  12.783  11.548  0.2417  0.0150 -0.0432
 9788W        W26635  16.811  11.586  10.990  0.0878  0.1418  0.1766
 9789W        W26636   2.943  10.563   2.572 -0.0828  0.2090  0.1839
 9790W        W26637  13.236  19.349  12.857  0.0357 -0.1639  0.0516
 9791W        W26638  12.276   0.507  13.095 -0.0392 -0.0473  0.3124
 9792W        W26639   3.746   2.756   0.979  0.0390 -0.0458 -0.0092
 9793W        W26640  11.017   9.273   3.953  0.1400 -0.0423  0.0515
 9794W        W26641  11.468  18.524  12.292 -0.0005 -0.0124  0.0686
 9795W        W26642   5.206  19.520  10.986  0.0801 -0.0243 -0.0486
 9796W        W26643  11.192  18.896  10.255 -0.3485  0.1034 -0.0635
 9797W        W26644  16.045   9.824   0.354  0.0716  0.1002  0.5001
 9798W        W26645  10.667   4.024  10.020  0.2308  0.0235  0.1735
 9799W        W26646   1.452  10.297   1.210 -0.2986 -0.0212  0.0485
 9800W        W26647   6.435  12.962  11.271 -0.0800  0.2020 -0.0266
 9801W        W26648  10.638   7.090   4.171 -0.2091  0.0747 -0.1882
 9802W        W26649   8.874   5.299  12.365 -0.1882  0.0928 -0.1028
 9803W        W26650   4.267   6.155   2.130 -0.0243  0.1532 -0.0558
 9804W        W26651  16.760  14.688  11.128 -0.0369 -0.2157 -0.4789
 9805W        W26652   1.734  12.291  14.500 -0.0294  0.0778 -0.0825
 9806W        W26653  16.055   7.793   1.323  0.1723 -0.0125  0.2970
 9807W        W26654   6.592  14.922   3.087 -0.3482  0.1107  0.0159
 9808W        W26655  18.209  19.123  13.617 -0.1193 -0.1330 -0.1390
 9809W        W26656  13.792  11.658   9.926 -0.1088 -0.0963  0.2363
 9810W        W26657   6.491   2.673  12.516  0.0493  0.0217  0.3334
 9811W        W26658   6.011   4.502   2.379 -0.1443  0.1293 -0.2146
 9812W        W26659   7.418  13.722  14.422 -0.1382  0.1394 -0.0503
 9813W        W26660   7.373   4.552   3.453 -0.2118  0.0965 -0.0022
 9814W        W26661  11.267   1.411   2.071 -0.1653 -0.1779 -0.1013
 9815W        W26662   2.252   0.508   0.490  0.0699  0.0261  0.3897
 9816W        W26663   0.260   6.143  13.595 -0.2329 -0.3292  0.0995
 9817W        W26664  18.233   5.405   1.290  0.1377  0.1811  0.3137
 9818W        W26665   1.375  15.767   2.076  0.4304  0.1123 -0.1342
 9819W        W26666  18.192  10.334   3.687 -0.3714 -0.3104 -0.0062
 9820W        W26667   0.761  13.081  12.615 -0.2457 -0.1634  0.2156
 9821W        W26668   8.702  19.005   0.797 -0.0215 -0.0243  0.2699
 9822W        W26669  12.416  16.930  13.713  0.0422 -0.0426 -0.1142
 9823W        W26670  12.901  18.308   9.367 -0.0622 -0.0723 -0.0919
 9824W        W26671  19.601  11.957  11.413 -0.3581 -0.1804 -0.0308
 9825W        W26672   0.681  17.383  10.649  0.0531 -0.3252  0.0817
 9826W        W26673   8.730   2.699  12.704  0.3245  0.0808  0.0570
 9827W        W26674   0.416   8.725  11.008 -0.1585  0.2033  0.1740
 9828W        W26675  17.419   3.453   1.978 -0.1203 -0.1969  0.3970
 9829W        W26676   9.900   3.459  12.375 -0.1398  0.2342  0.2106
 9830W        W26677   7.538  15.242  13.551  0.1464  0.3520 -0.0080
 9831W        W26678  14.466  13.723  10.346  0.0386  0.3746 -0.1020
 9832W        W26679  10.646   9.751   0.939 -0.3958  0.1910 -0.2319
 9833W        W26680  11.804   3.834   2.672 -0.2358 -0.1158 -0.0382
 9834W        W26681   5.591  12.368   0.063  0.2691 -0.0192  0.0170
 9835W        W26682   0.620  17.918  10.589 -0.1429 -0.0702  0.0428
 9836W        W26683  19.398  19.250  12.877 -0.3994  0.0987  0.0555
 9837W        W26684   1.871   8.639  13.805  0.2305 -0.1994 -0.4039
 9838W        W26685   4.533  18.069  12.533  0.0618 -0.0661 -0.3595
 9839W        W26686  18.694   6.596   5.022 -0.0200 -0.0845  0.0371
 9840W        W26687   8.909  16.523   1.422  0.0188 -0.1813 -0.1318
 9841W        W26688   9.629   1.364   0.672  0.0620  0.0282 -0.1529
 9842W        W26689  10.133  18.220   1.255 -0.2613  0.0401 -0.1140
 9843W        W26690   8.046  12.200  12.621 -0.1588  0.1737  0.1069
 9844W        W26691  11.363   4.278   3.903 -0.0804  0.0431 -0.1267
 9845W        W26692  19.001   5.469   0.571  0.0070 -0.0044 -0.1207
 9846W        W26693   3.387  17.451  14.185  0.1325 -0.2890 -0.0003
 9847W        W26694   4.810   8.509  12.393  0.1566  0.0068 -0.0818
 9848W        W26695   0.005  12.081  12.185 -0.1399  0.2497 -0.0839
 9849W        W26696   1.085  16.016   1.735 -0.3277  0.0625  0.1157
 9850W        W26697   3.900  15.654  12.408 -0.3279 -0.0503  0.1498
 9851W        W26698   2.494   7.747   1.736 -0.0112 -0.0396  0.0673
 9852W        W26699  19.555  13.681   0.870  0.0551  0.2166  0.4209
 9853W        W26700  18.914  11.463   2.265 -0.0372 -0.1632 -0.0881
 9854W        W26701   0.511  14.396   3.179  0.2898  0.1942  0.0292
 9855W        W26702   1.732   1.842  10.644 -0.1258  0.2029  0.1149
 9856W        W26703   2.653   1.379  10.504 -0.2851  0.2037 -0.1724
 9857W        W26704   6.418   0.031  13.068 -0.0675 -0.0318  0.1193
 9858W        W26705  14.534   1.061  12.801 -0.0954  0.0377 -0.0438
 9859W        W26706   5.254  12.371  12.689 -0.2278 -0.4523 -0.0172
 9860W        W26707  14.203   8.371  12.768 -0.1244 -0.0020  0.2390
 9861W        W26708  19.305  11.678   0.895  0.0257  0.0102 -0.0518
 9862W        W26709  16.437  11.243   5.342 -0.0051  0.1185  0.2550
 9863W        W26710   5.294   8.495  12.190  0.0523 -0.0058  0.0824
 9864W        W26711   4.227   6.718   3.240  0.0372  0.0638  0.2308
 9865W        W26712  12.411   1.243  12.812  0.0668 -0.0912 -0.0750
 9866W        W26713  14.295  16.382   0.242  0.1504 -0.2617 -0.0661
 9867W        W26714   4.503  17.859   4.904 -0.2553  0.1490  0.1249
 9868W        W26715   8.599   0.850  13.420  0.1073 -0.0075  0.1101
 9869W        W26716  12.989   7.940  11.327 -0.0849  0.0948  0.1247
 9870W        W26717  13.063  18.628  13.405 -0.1502  0.4480  0.1651
 9871W        W26718   0.706   8.755  13.494 -0.0525 -0.1683  0.2722
 9872W        W26719  18.849   1.577   9.023  0.0757 -0.1517  0.1082
 9873W        W26720   7.533   0.287   4.798 -0.0137 -0.0295 -0.0323
 9874W        W26721   4.909  14.254   1.363 -0.3735  0.2192  0.1602
 9875W        W26722   2.632  17.486   1.815  0.2182 -0.0552  0.0181
 9876W        W26723   1.248   7.552  12.375  0.1605  0.0456  0.3515
 9877W        W26724  17.985   6.558   5.623  0.0083 -0.0561 -0.0757
 9878W        W26725   1.728  17.492  11.984  0.3111  0.0639 -0.1400
 9879W        W26726  13.115  16.525   0.923 -0.0998  0.0681  0.1505
 9880W        W26727   7.647   7.093   1.390 -0.2056 -0.4450  0.2353
 9881W        W26728  17.494   6.554  11.508 -0.1520  0.1455  0.0707
 9882W        W26729  10.566  16.002  13.988 -0.2931 -0.1407  0.0107
 9883W        W26730  11.319   2.741  13.106 -0.0863 -0.0797 -0.1847
 9884W        W26731   8.564   5.406  13.833 -0.1192 -0.1598 -0.3795
 9885W        W26732   0.645  14.797   4.576  0.1568 -0.1682  0.0990
 9886W        W26733  12.348   7.789  11.660  0.7290  0.2045 -0.1447
 9887W        W26734   6.986   2.276   3.777  0.1395 -0.1982 -0.0317
 9888W        W26735   7.733   9.681   3.970  0.0378 -0.4006 -0.2878
 9889W        W26736   4.445  13.598   1.879 -0.3529  0.4371  0.0104
 9890W        W26737   6.809   3.676   1.416  0.0728 -0.3167 -0.0239
 9891W        W26738   5.376  12.774  11.028  0.1582  0.0845 -0.4104
 9892W        W26739   8.501  15.400   1.967 -0.2841 -0.0301 -0.0319
 9893W        W26740   4.661   0.258   1.816 -0.0029  0.0408 -0.0383
 9894W        W26741  18.857   5.538  10.218 -0.2705  0.1463  0.1636
 9895W        W26742   4.858  15.407   3.604  0.1815  0.0988 -0.0497
 9896W        W26743  15.077   7.228  14.347  0.0585 -0.2440 -0.1554
 9897W        W26744  12.060  18.096   1.450  0.3427 -0.0397  0.2102
 9898W        W26745  18.002   1.982  12.074  0.0205  0.0219 -0.0090
 9899W        W26746   1.488  13.239   1.934  0.0870  0.1318  0.1337
 9900W        W26747   0.784  13.631  10.810  0.0932  0.0660  0.2107
 9901W        W26748   5.378   9.617  12.640  0.2125 -0.0333  0.2869
 9902W        W26749   5.245  15.075   2.698 -0.0357  0.3113  0.1127
 9903W        W26750   8.613   8.125   0.004 -0.0516 -0.1305  0.0047
 9904W        W26751  19.544  16.533   4.909  0.3057  0.0111  0.0831
 9905W        W26752  18.602   5.538   3.699  0.2181  0.0108  0.1016
 9906W        W26753  11.356   7.138  10.140  0.2296 -0.1685 -0.1170
 9907W        W26754  11.547  11.138  12.194  0.0024  0.0285 -0.5286
 9908W        W26755   6.592  15.727   1.501  0.2653  0.2622 -0.0028
 9909W        W26756   7.101  17.712   4.653  0.1709 -0.2616  0.2913
 9910W        W26757  15.858   6.977   1.826 -0.1222  0.0864 -0.0434
 9911W        W26758  14.255   8.022  13.648 -0.0415  0.0749 -0.1499
 9912W        W26759  13.740  16.417  13.048  0.2983  0.1760  0.0207
 9913W        W26760  18.677  17.864  14.166  0.1230 -0.0419 -0.0248
 9914W        W26761   6.872   8.570   1.760  0.1140  0.1776 -0.1806
 9915W        W26762  16.820   9.160   3.034 -0.0752  0.0632 -0.0564
 9916W        W26763   2.512   8.483  11.355 -0.0792  0.4029 -0.2588
 9917W        W26764  13.877   7.546   1.528  0.1375  0.0374  0.1412
 9918W        W26765   3.040  12.393  13.230 -0.0913 -0.3549 -0.0934
 9919W        W26766  12.540  15.915   1.316 -0.3257  0.0642  0.1663
 9920W        W26767   0.781  16.953  12.565 -0.2723 -0.2726 -0.1018
 9921W        W26768   1.550  15.045  11.705 -0.0268 -0.3969  0.4287
 9922W        W26769  18.649   1.446  12.938 -0.0969 -0.0251 -0.2251
 9923W        W26770   4.010   0.429   2.603 -0.1420 -0.2240 -0.0971
 9924W        W26771  13.269   1.382  10.704  0.2107 -0.0336  0.1502
 9925W        W26772   2.051  11.802   0.607  0.0871 -0.1041  0.1726
 9926W        W26773  11.768  16.844   0.010  0.0608 -0.1848  0.0999
 9927W        W26774  14.667   5.814  14.066  0.2844 -0.1470 -0.0309
 9928W        W26775   2.755  18.853   3.208 -0.0030  0.0659 -0.1366
 9929W        W26776  19.331   8.951   5.430  0.0233 -0.0173 -0.1298
 9930W        W26777   4.181   9.157  10.712 -0.2558 -0.1350  0.0109
 9931W        W26778   9.789  14.992  11.609  0.3544 -0.1310 -0.2370
 9932W        W26779  12.900  17.203   4.500  0.4156 -0.3443  0.1005
 9933W        W26780  17.794   0.655  12.343  0.0595  0.1495  0.1034
 9934W        W26781   2.422   4.802   4.963  0.2510  0.2448  0.0217
 9935W        W26782  16.147  13.599  10.036 -0.3979  0.0859  0.3208
 9936W        W26783  14.655  14.942   1.939  0.1833 -0.2670 -0.0773
 9937W        W26784  10.400  15.238   2.237  0.1447 -0.1559 -0.0250
 9938W        W26785   3.809   3.411  10.804  0.1202  0.1089 -0.0392
 9939W        W26786   3.220  14.159  14.333  0.0733  0.2037  0.2705
 9940W        W26787   9.181   5.301   2.491 -0.1311  0.3447  0.0882
 9941W        W26788  13.118   5.298   2.036  0.0695  0.2677 -0.0898
 9942W        W26789   6.283   2.593   2.427  0.2495 -0.3882  0.1305
 9943W        W26790   6.117   4.350   4.720  0.2621 -0.1449  0.0078
 9944W        W26791   4.657   1.134   2.360 -0.3652  0.1242 -0.1283
 9945W        W26792   4.412  15.787   2.836 -0.2445 -0.4205 -0.1355
 9946W        W26793  11.099   1.622  10.196 -0.1710  0.1216 -0.0102
 9947W        W26794   1.025  15.531   3.571 -0.0340  0.0040 -0.0859
 9948W        W26795  17.441   8.748  14.147 -0.1246 -0.0857 -0.1914
 9949W        W26796  15.469  13.920   0.912 -0.0735 -0.1242 -0.1296
 9950W        W26797  14.785   2.959  12.852  0.1038  0.2922 -0.1380
 9951W        W26798   0.332  13.409  11.806 -0.1294 -0.1372  0.0075
 9952W        W26799  10.419   7.903   0.550  0.0390 -0.1346 -0.2879
 9953W        W26800  17.553   6.370   1.315  0.1155  0.0418  0.0554
 9954W        W26801  18.284  18.499  11.898 -0.2195 -0.1556  0.1534
 9955W        W26802  16.738  17.512   1.018  0.1350  0.0383 -0.4904
 9956W        W26803   4.739   9.190   4.505  0.1164  0.0642 -0.1722
 9957W        W26804   8.208   2.346   3.113 -0.1640  0.3970  0.0957
 9958W        W26805  14.054  18.703   0.416  0.0582 -0.0912  0.0878
 9959W        W26806  14.536  19.132   3.250 -0.0587  0.2336  0.2113
 9960W        W26807   8.141   8.908   1.929  0.1630 -0.0522 -0.3032
 9961W        W26808   7.072   9.230  12.649  0.0060  0.3379  0.2777
 9962W        W26809   0.140  13.176  13.546  0.2297 -0.2664  0.2392
 9963W        W26810  19.441   9.821   0.287 -0.3312 -0.2845 -0.1306
 9964W        W26811   4.354   7.605  14.240  0.0015  0.1750 -0.0522
 9965W        W26812   5.527   4.331   2.196 -0.1345 -0.2580 -0.0094
 9966W        W26813  17.366  19.035   4.296 -0.0693  0.2048  0.0069
 9967W        W26814  10.143  13.399  11.466 -0.3319 -0.2698 -0.2554
 9968W        W26815   0.495   4.735  14.314 -0.1858  0.0551  0.3617
 9969W        W26816   0.399   2.057   3.126  0.0430 -0.4574 -0.0409
 9970W        W26817   5.509   1.449   4.931  0.0685  0.0008 -0.2683
 9971W        W26818  12.895  10.346   2.749  0.1739 -0.1766  0.1024
 9972W        W26819   8.674   5.240  14.332 -0.1698 -0.1689 -0.1648
 9973W        W26820  18.830  18.263  13.848 -0.0705  0.4609  0.1857
 9974W        W26821   5.690   7.404   2.895 -0.1601 -0.0286  0.0803
 9975W        W26822  18.569  10.350   0.419  0.0849 -0.1397 -0.0062
 9976W        W26823   4.764  11.647   1.639 -0.0527  0.1390 -0.2495
 9977W        W26824   7.347  16.784  12.415  0.2012 -0.1622 -0.4818
 9978W        W26825   6.695   4.246   1.490 -0.2756 -0.1172 -0.1400
 9979W        W26826  17.330  15.068   9.993  0.0649 -0.1218 -0.2349
 9980W        W26827  16.484  17.166  13.331 -0.1004 -0.0406  0.1110
 9981W        W26828   5.545  11.624   2.411  0.3564  0.2650 -0.1538
 9982W        W26829   3.571   4.082  14.323  0.0566 -0.0217  0.0227
 9983W        W26830   4.756   5.813   2.859 -0.0559  0.0824  0.0160
 9984W        W26831   3.228   9.814  14.063  0.0848  0.1118 -0.1192
 9985W        W26832   2.535  16.940  13.264 -0.1902 -0.1974  0.1010
 9986W        W26833  16.767   3.204   0.186  0.0466  0.1318  0.2981
 9987W        W26834   9.748   0.350   9.978 -0.1067 -0.3703 -0.1324
 9988W        W26835  15.904  16.580   1.523 -0.1652  0.0049 -0.2425
 9989W        W26836   1.856  16.167   4.351 -0.3770 -0.0075  0.1948
 9990W        W26837   8.084   0.378   4.737 -0.0367 -0.1117  0.1896
 9991W        W26838  13.852  17.607  11.594  0.0602 -0.1017 -0.1636
 9992W        W26839   8.480   8.804  14.397  0.2349 -0.1399  0.1624
 9993W        W26840  15.017   6.517   0.778 -0.4774  0.0618  0.0482
 9994W        W26841  15.255   3.424   0.550 -0.1582  0.0688  0.0388
 9995W        W26842   4.973   1.333  11.483  0.0878 -0.0203 -0.0228
 9996W        W26843  19.569  10.752  12.682  0.3019  0.0414  0.2905
 9997W        W26844  19.280  19.132   1.581  0.0249 -0.0519 -0.1496
 9998W        W26845  11.554   5.835  11.883  0.1085  0.2681 -0.1364
 9999W        W26846   1.933   5.695  13.065 -0.0463 -0.3249  0.1513
10000W        W26847   0.601   5.665  12.067  0.1351  0.0651 -0.2683
10001W        W26848   4.758   3.701  12.957  0.0453  0.1904 -0.0201
10002W        W26849   5.450  11.130   4.838  0.0183 -0.1633 -0.0586
10003W        W26850  10.016  16.730   3.291 -0.2467 -0.0775  0.0093
10004W        W26851  13.642  12.026   0.906 -0.0416 -0.0631 -0.3245
10005W        W26852  19.589   6.862   5.064 -0.0869  0.2200  0.0728
10006W        W26853  19.576   0.322   3.077  0.1252  0.1287 -0.0661
10007W        W26854   4.564  10.137   3.910 -0.1438  0.1686 -0.0321
10008W        W26855  14.395  16.932  11.016  0.0259 -0.0650  0.1138
10009W        W26856   5.043   4.618  11.293  0.0660 -0.0331 -0.1438
10010W        W26857  13.373  16.956   4.170  0.0645 -0.0178  0.0542
10011W        W26858  16.882  17.546   3.312  0.0183  0.1126  0.1345
10012W        W26859  13.350  17.966   2.814  0.4303 -0.0562 -0.1193
10013W        W26860  15.901   6.412  14.204  0.0738 -0.1834  0.3514
10014W        W26861  12.653  16.090  11.816 -0.2538  0.0021 -0.0513
10015W        W26862   9.202   2.997   0.550 -0.1422  0.0860 -0.2025
10016W        W26863   6.825  16.497  10.764  0.0002  0.0672  0.0510
10017W        W26864   0.372  12.222   0.924  0.0409 -0.1007  0.1168
10018W        W26865   6.217   2.719   4.122 -0.0290 -0.0534  0.0720
10019W        W26866  14.334   2.113   0.145  0.1346  0.0334 -0.0575
10020W        W26867   8.262   4.390  13.035 -0.1690 -0.0062 -0.3287
10021W        W26868  18.613  16.763  11.460  0.0367  0.0567 -0.0626
10022W        W26869   1.992  13.416   4.927 -0.0256 -0.0364  0.2058
10023W        W26870   5.125  18.716   2.238 -0.2142  0.0559 -0.1870
10024W        W26871  17.827   6.448  11.145  0.2271 -0.1170  0.1806
10025W        W26872  14.482  11.474   0.496 -0.1408 -0.0284 -0.0202
10026W        W26873   4.549  13.509   4.890  0.0301 -0.1533 -0.1852
10027W        W26874   2.889  18.927   5.271  0.0554  0.0614 -0.1128
10028W        W26875   0.386  14.106   1.639 -0.4548  0.0846  0.0530
10029W        W26876  13.114  14.618  14.241  0.0071  0.0697 -0.4630
10030W        W26877   3.383  17.122   0.747  0.1332 -0.0232  0.0999
10031W        W26878   8.931  16.483  13.778  0.0167 -0.0645  0.1500
10032W        W26879   4.505   4.627  13.152 -0.1701  0.0820  0.1073
10033W        W26880   9.877  18.883   4.252 -0.3790 -0.0005  0.0047
10034W        W26881  11.940  14.771  13.571 -0.4215  0.1528  0.0973
10035W        W26882   6.013  12.996  10.350  0.2735  0.0241 -0.0288
10036W        W26883   1.808   4.538  10.972  0.0128 -0.1996  0.3330
10037W        W26884  19.289   9.715  11.827 -0.0803  0.0189  0.3043
10038W        W26885  16.421   3.643   3.907 -0.2323  0.0296 -0.2542
10039W        W26886  17.956   2.521   3.277  0.0222 -0.2419 -0.0373
10040W        W26887  13.221  17.136  11.240  0.0176  0.0476  0.2157
10041W        W26888  12.358  18.251   4.536 -0.1492 -0.1411 -0.2484
10042W        W26889   7.540   0.042  11.113  0.1972 -0.0746  0.0070
10043W        W26890  14.330   7.349   2.682  0.1204  0.0453 -0.0577
10044W        W26891  18.834  14.401   2.537 -0.0142 -0.1863 -0.2199
10045W        W26892  17.078  16.735   0.822 -0.1399 -0.0896 -0.2507
10046W        W26893   4.860  18.635  11.602 -0.2049 -0.0489 -0.1892
10047W        W26894   5.666   4.617  14.466 -0.3409 -0.0749  0.1507
10048W        W26895  12.359   3.318  10.242 -0.1687 -0.1021  0.0271
10049W        W26896  12.234   1.974   1.338 -0.0652  0.3371 -0.1096
10050W        W26897  15.540   9.139   1.544 -0.0827 -0.1462 -0.2452
10051W        W26898  11.754   7.296   1.772 -0.1210  0.2710  0.0348
10052W        W26899   7.384   8.524  13.545 -0.1441 -0.2398  0.0977
10053W        W26900   0.720  10.381  10.843 -0.0578 -0.3163  0.1508
10054W        W26901  15.791  17.202   1.606 -0.0364  0.2113  0.0320
10055W        W26902   1.111   3.619   1.996 -0.0347  0.0775 -0.4179
10056W        W26903   0.292  19.272  14.357 -0.0239  0.0479  0.1546
10057W        W26904   0.738   7.277   3.188  0.1470  0.4286  0.0173
10058W        W26905  13.919   4.499  13.308 -0.1796  0.0828  0.1796
10059W        W26906  12.353   0.321  14.418  0.0624 -0.2147  0.2722
10060W        W26907  13.957  11.560   0.694 -0.2064  0.3136  0.0479
10061W        W26908   0.827  16.509   2.857 -0.0904  0.0722 -0.0409
10062W        W26909   9.152   3.989   0.870 -0.3323  0.2160  0.1989
10063W        W26910   3.857  14.498   1.780 -0.2466 -0.1541 -0.3669
10064W        W26911   8.409  17.960   0.767  0.4502 -0.1171 -0.0962
10065W        W26912  16.374   6.396  13.734  0.2768  0.2269 -0.1116
10066W        W26913   1.189  11.707  11.398 -0.0478 -0.0482  0.2370
10067W        W26914  11.552  14.501  13.227  0.2754 -0.1868  0.0544
10068W        W26915   4.777  15.071  14.481 -0.0124  0.0842 -0.0969
10069W        W26916  19.595   4.562  12.753  0.2498  0.2241 -0.0841
10070W        W26917  16.811   3.923  10.552 -0.0731  0.1091  0.0951
10071W        W26918  11.251  19.377  10.467  0.2927  0.0746 -0.2584
10072W        W26919   0.162   1.618   3.084  0.2008 -0.3604 -0.1196
10073W        W26920   1.026   0.559  10.301 -0.0392  0.0141 -0.1345
10074W        W26921  18.006   3.559  12.548 -0.0912 -0.0568 -0.1496
10075W        W26922   6.570   1.539   3.071  0.2906 -0.3937 -0.1474
10076W        W26923   0.750   8.671   2.383 -0.2606 -0.2142  0.0478
10077W        W26924   3.980   1.160   1.272  0.3264 -0.0347 -0.1002
10078W        W26925   1.146   0.883   1.109 -0.0870 -0.0278  0.1636
10079W        W26926  17.088  16.630  13.541 -0.2965  0.0745 -0.1145
10080W        W26927  15.063   9.730   2.082 -0.1166 -0.0392 -0.0737
10081W        W26928  16.654   3.596   3.385  0.1094  0.3304 -0.2508
10082W        W26929   5.046   0.409  10.072  0.1116  0.0237 -0.0778
10083W        W26930   9.469   4.323  12.022  0.1155  0.1345 -0.0167
10084W        W26931   9.939   4.858  10.967  0.1272  0.0584  0.1398
10085W        W26932   8.516   7.009   5.459  0.1061  0.3714 -0.3633
10086W        W26933   5.487  18.395   3.036 -0.0823  0.0041  0.0639
10087W        W26934   7.824   5.961   0.066 -0.0623  0.0807  0.2218
10088W        W26935  18.109  17.356   3.019 -0.0817  0.2472  0.3404
10089W        W26936  19.119  13.911   4.199 -0.0090 -0.0603 -0.4078
10090W        W26937   3.233  11.474   2.754 -0.1157 -0.1383 -0.2039
10091W        W26938   1.514   2.635  13.444 -0.1801  0.1867  0.1271
10092W        W26939  12.865  16.796  13.040 -0.2392 -0.1651  0.2616
10093W        W26940  18.668  12.953   1.288 -0.1930 -0.1145 -0.0090
10094W        W26941  11.215  10.494   1.120 -0.0220 -0.2541  0.2907
10095W        W26942  12.807   3.722   2.188 -0.0872  0.2378 -0.1705
10096W        W26943  12.755  14.297  14.232  0.1256 -0.0096  0.0803
10097W        W26944   6.013  14.416   1.190  0.1965  0.1147 -0.0514
10098W        W26945  19.529   6.788  11.200 -0.2610  0.0765 -0.0193
10099W        W26946   7.749  11.273  10.936  0.1099  0.1406 -0.1507
10100W        W26947  13.424   8.438  14.440 -0.0978 -0.0778  0.2249
10101W        W26948  18.479   8.432   0.410  0.1907  0.1936  0.0548
10102W        W26949  15.614   2.211   4.663 -0.1552 -0.0654  0.0302
10103W        W26950   2.251  18.365  10.944  0.0571  0.0115  0.5072
10104W        W26951   0.982  16.642   2.386  0.0127  0.0147 -0.2423
10105W        W26952  16.876   3.232   4.952  0.3369  0.0377 -0.4137
10106W        W26953   9.087  14.156   4.002  0.0498 -0.0045 -0.2548
10107W        W26954   8.123   7.568  13.574  0.1383  0.0225  0.0855
10108W        W26955  13.521   3.436   9.376  0.0172  0.1744  0.3832
10109W        W26956   5.245  14.592  13.209 -0.2382  0.3830 -0.3814
10110W        W26957   5.785  16.854  12.539  0.3410  0.1366  0.0350
10111W        W26958  11.896   0.538   2.391 -0.2755 -0.1346 -0.2653
10112W        W26959  14.379  12.023   1.911  0.3119 -0.2349 -0.2546
10113W        W26960   9.211   0.409   0.976 -0.1827  0.2501  0.0630
10114W        W26961  12.214   2.287  11.072  0.1843 -0.1165  0.1616
10115W        W26962  18.972   3.524   3.192  0.3280 -0.1006 -0.1689
10116W        W26963  18.235   4.153  13.954  0.1717  0.2822  0.4344
10117W        W26964   5.193   2.598   2.157 -0.2629 -0.4600 -0.0443
10118W        W26965   0.082   0.502   3.491 -0.0659  0.2643  0.2105
10119W        W26966  11.070  11.995   4.708  0.0491  0.1001  0.2599
10120W        W26967  11.627  10.783  11.288 -0.1915  0.2853  0.1774
10121W        W26968   7.303   8.735  12.568 -0.1394  0.1156 -0.0888
10122W        W26969   7.410  10.398   0.394 -0.2713  0.0595  0.0370
10123W        W26970   4.320   1.603  11.456  0.1112  0.1843  0.1341
10124W        W26971   5.897   6.765  10.293 -0.4603  0.0389  0.1260
10125W        W26972  13.891   5.206   4.791  0.0205 -0.0061 -0.3198
10126W        W26973   8.002   7.761  10.467 -0.0547 -0.0236  0.2097
10127W        W26974   5.104  14.620  12.674  0.0178  0.0226  0.3866
10128W        W26975  15.819  10.394  11.406 -0.1019 -0.1057 -0.0844
10129W        W26976   2.518  16.706   1.423  0.0808 -0.0244 -0.1854
10130W        W26977  17.277   6.423  14.554 -0.1892  0.2158 -0.1403
10131W        W26978   1.334   0.254  13.800  0.2874  0.0701  0.3837
10132W        W26979  10.097   2.966  14.062  0.1689  0.0953  0.1733
10133W        W26980  17.377  13.568  11.389  0.0414  0.0481 -0.1434
10134W        W26981  19.606  11.983   0.673 -0.2319 -0.1645 -0.0869
10135W        W26982   6.581  11.407  11.310  0.0718  0.0847 -0.4681
10136W        W26983   8.578   0.007  14.574  0.1159 -0.1232  0.4494
10137W        W26984   7.462  17.116   1.067 -0.0694 -0.1481 -0.0740
10138W        W26985   4.084   4.095   2.408  0.2332  0.0848 -0.2587
10139W        W26986  12.077  10.205  14.029 -0.1206 -0.2723  0.2875
10140W        W26987  13.313   5.081   0.262  0.3893  0.0499  0.0114
10141W        W26988   9.376  15.317   2.716 -0.1645 -0.2157  0.0681
10142W        W26989  11.061   6.356   2.945 -0.0144 -0.1458  0.2264
10143W        W26990  11.275   9.948   0.240 -0.3148 -0.1199  0.2012
10144W        W26991   1.970   9.928  13.591  0.1704 -0.2580  0.5363
10145W        W26992  16.811  14.653  12.505 -0.2713  0.0136 -0.1873
10146W        W26993   1.234   3.435   4.525  0.1708 -0.4585 -0.1332
10147W        W26994  15.385   9.005   3.120  0.3114  0.2975 -0.0606
10148W        W26995  18.342  14.741   3.586  0.1079 -0.2584  0.0781
10149W        W26996   5.237   5.034   4.203 -0.0759  0.0239 -0.1128
10150W        W26997  11.964  15.276  11.616 -0.1745  0.0207 -0.0161
10151W        W26998  15.744  18.222   2.632  0.0275 -0.1680 -0.1114
10152W        W26999  10.251  13.428   5.153  0.0444  0.2446  0.1361
10153W        W27000  19.491   4.480   2.918 -0.1864  0.1155  0.1221
10154W        W27001  13.896   4.332   3.555 -0.1700 -0.0282 -0.0947
10155W        W27002  19.041  12.602   4.015 -0.1505  0.1586 -0.2239
10156W        W27003  17.542   3.196   9.929  0.2171  0.0085 -0.1259
10157W        W27004   0.947   9.758   4.282  0.3722 -0.1122  0.3395
10158W        W27005   4.027  15.045  14.532  0.0600  0.0082  0.1597
10159W        W27006  11.916  10.799   3.865  0.1938 -0.2100  0.0774
10160W        W27007  14.985   4.972  11.756 -0.2365  0.1619 -0.0557
10161W        W27008  16.925  15.061   1.962  0.1554 -0.3748  0.1961
10162W        W27009   6.397   8.614   4.508  0.0304 -0.0156 -0.1877
10163W        W27010  14.837   6.796   5.853 -0.1163  0.2762 -0.0267
10164W        W27011   3.472  18.684  11.614 -0.0123  0.1439 -0.1083
10165W        W27012   3.685  18.477   5.403 -0.2300  0.1281 -0.0530
10166W        W27013   6.912   5.277   3.005  0.1514 -0.0831 -0.1583
10167W        W27014   7.723  14.808   3.929 -0.0449 -0.3561  0.0708
10168W        W27015  11.838   3.777   1.356 -0.1844  0.3992 -0.1408
10169W        W27016  14.321   1.988   8.945  0.0429 -0.0449  0.0807
10170W        W27017   1.923  11.393  11.949  0.0886 -0.0643 -0.2267
10171W        W27018  16.712  14.336  13.588 -0.2418 -0.1327  0.0514
10172W        W27019   7.927  11.147   3.478 -0.1618  0.0703 -0.0637
10173W        W27020   1.940  17.821  11.685  0.1131  0.0581 -0.2739
10174W        W27021  11.653  17.812   0.104  0.1418 -0.3862 -0.0257
10175W        W27022  18.079   9.643  12.820 -0.0721  0.4505 -0.0365
10176W        W27023   3.791  12.323   2.926  0.1099 -0.1462  0.1052
10177W        W27024  16.244   5.471  12.593  0.0884 -0.0706  0.4476
10178W        W27025   0.974  15.805  11.107  0.3566 -0.2452  0.0374
10179W        W27026  11.521   3.341  12.309  0.1239  0.0386 -0.0907
10180W        W27027  11.009   0.909  13.849  0.0051 -0.0781 -0.0875
10181W        W27028   7.657  11.604  10.570  0.0863 -0.0427 -0.0451
10182W        W27029   7.398   3.772  13.570 -0.0109 -0.2874  0.0835
10183W        W27030   3.605   8.061  14.370  0.1174  0.1161  0.3791
10184W        W27031  12.607   3.806  10.933 -0.1599  0.0492  0.2004
10185W        W27032   7.422   8.829   5.696 -0.0454 -0.2637 -0.1256
10186W        W27033  18.062  12.105   1.027 -0.1710  0.1030 -0.0772
10187W        W27034   9.773  12.586  12.830 -0.2459 -0.1396  0.0300
10188W        W27035  11.261   8.188   5.410  0.2346  0.0119  0.0577
10189W        W27036   7.307   3.483  10.707 -0.1105  0.0529 -0.2327
10190W        W27037   4.406   1.187   0.382  0.3514  0.0043 -0.0991
10191W        W27038  15.843   5.448   5.167 -0.1509  0.1892  0.0922
10192W        W27039   7.792  12.275  10.149  0.2630  0.3005 -0.1036
10193W        W27040   0.828   0.033  12.896  0.1318 -0.0779  0.1960
10194W        W27041  19.179  14.952  10.062  0.0463  0.0433  0.0343
10195W        W27042   7.571   4.124   5.115  0.2132  0.1318 -0.1860
10196W        W27043   3.103   2.666  13.284 -0.0839 -0.2448 -0.2391
10197W        W27044  11.867   5.613  11.104  0.3370  0.3710 -0.1582
10198W        W27045  12.972   1.713  10.068 -0.1096  0.1913 -0.2681
10199W        W27046   6.636  14.100   2.134 -0.1596  0.1347  0.0211
10200W        W27047   0.279  11.356   1.674 -0.0797  0.0056  0.3161
10201W        W27048   3.786  10.888  12.251  0.1234 -0.4151 -0.0929
10202W        W27049   4.563  17.555  12.420  0.0359 -0.0688 -0.1395
10203W        W27050  17.892  10.782   3.828  0.0360 -0.4213 -0.0463
10204W        W27051   2.094   6.538   1.217 -0.0849 -0.1397 -0.2192
10205W        W27052  19.191  11.250  12.574 -0.0147  0.1300 -0.0131
10206W        W27053   7.251  14.836  13.627 -0.0446 -0.0290 -0.0235
10207W        W27054  14.629  16.673  12.767  0.1384 -0.3872  0.0477
10208W        W27055  12.683  12.512   4.430 -0.0192  0.0092  0.0855
10209W        W27056  19.270  15.313  11.649  0.1200 -0.0888  0.1738
10210W        W27057  10.279  11.237   5.408 -0.2649 -0.0334 -0.1517
10211W        W27058  15.455   6.396   4.028 -0.3329  0.0922  0.1525
10212W        W27059   1.887   2.435   3.428  0.1118  0.2440  0.1291
10213W        W27060  17.408   8.635   2.447 -0.0534  0.1076  0.0098
10214W        W27061   9.294  18.227   4.660  0.2250  0.3540 -0.0934
10215W        W27062   3.143   8.231  14.320 -0.2895 -0.1134  0.0962
10216W        W27063   3.034  17.837   5.310  0.2416 -0.1258  0.2260
10217W        W27064  16.219   8.521  11.022  0.1814  0.0489 -0.2216
10218W        W27065   0.362   8.528  14.168  0.1698  0.0034  0.1022
10219W        W27066  18.052   3.341  10.219  0.0015 -0.1086  0.1005
10220W        W27067   5.528  16.216  13.058 -0.0297 -0.2607  0.0072
10221W        W27068   4.709  14.990  12.769  0.0156 -0.2284 -0.2319
10222W        W27069   2.816   5.660   2.740  0.0906 -0.3597  0.3798
10223W        W27070  18.638   7.774  12.309  0.3560 -0.1567  0.1879
10224W        W27071   2.481  13.872  11.224  0.0113 -0.2471  0.0086
10225W        W27072  12.838  19.274   2.955 -0.1899  0.0151  0.1824
10226W        W27073  16.641  16.087  12.199  0.0408  0.1619 -0.2968
10227W        W27074   8.438  19.135   3.617 -0.3029  0.0067 -0.0858
10228W        W27075  12.466  17.866   2.281 -0.1463  0.1114  0.1680
10229W        W27076  15.229   3.432   3.874  0.1199 -0.0130  0.1429
10230W        W27077  14.272   9.314   1.693  0.0450 -0.0199 -0.2771
10231W        W27078  17.142   7.678  10.806  0.0631 -0.0480  0.1771
10232W        W27079   0.649  15.869  13.551  0.0355  0.0542 -0.2576
10233W        W27080   6.527  13.800  11.013  0.0132  0.3326  0.1943
10234W        W27081   9.223   2.288  11.322  0.0801  0.0455 -0.3266
10235W        W27082   2.112   4.126  12.282 -0.0852  0.1660 -0.2512
10236W        W27083   5.507  12.106  11.831 -0.1480 -0.0004  0.0311
10237W        W27084  16.198  12.620  14.020  0.1523  0.0548 -0.2028
10238W        W27085  16.353  16.959  10.540  0.0504 -0.0134 -0.2922
10239W        W27086   1.651   2.138   1.248 -0.4634 -0.0145 -0.3654
10240W        W27087   3.354   4.353   4.547  0.1394 -0.0061 -0.0223
10241W        W27088  15.826   0.412  14.483 -0.2788 -0.0659  0.0211
10242W        W27089  14.211   9.595   3.532 -0.0182 -0.0902 -0.1731
10243W        W27090   4.399   2.487   1.632  0.2854 -0.1588 -0.0158
10244W        W27091   3.854   4.458   0.572 -0.0233 -0.0231 -0.1776
10245W        W27092   3.390  16.579  14.518 -0.1305  0.2077  0.0723
10246W        W27093  15.299   9.592  10.618 -0.2383 -0.0236  0.1879
10247W        W27094   1.206  18.947  12.489 -0.1433 -0.0666 -0.3301
10248W        W27095   0.887   8.231   3.800  0.0765  0.0038 -0.1321
10249W        W27096  12.312  17.334  12.806  0.1288  0.1425  0.1287
10250W        W27097  18.605   9.482   0.065 -0.0230  0.1943  0.1628
10251W        W27098  16.639   6.788  11.672 -0.1035 -0.3406 -0.1596
10252W        W27099   7.621  12.744  12.074  0.0111 -0.2302  0.4439
10253W        W27100  16.279   4.904  13.365  0.0531  0.0996  0.0068
10254W        W27101   1.294  10.418  10.975 -0.0642  0.0315  0.0479
10255W        W27102   9.500  14.979   1.877 -0.2380 -0.2340  0.2568
10256W        W27103  17.486  16.390   4.258 -0.2448  0.0758  0.1550
10257W        W27104  14.567   9.094  11.420 -0.1629 -0.1469 -0.2198
10258W        W27105   8.359   7.752  13.057 -0.2993 -0.0527 -0.1007
10259W        W27106   5.592  18.915  12.533 -0.3599  0.1564 -0.0019
10260W        W27107   5.639   2.104  14.152 -0.0470 -0.1067 -0.1039
10261W        W27108  10.494  14.473  14.230  0.0492  0.1484 -0.2644
10262W        W27109  16.558   8.668  10.184 -0.2992 -0.2657  0.0179
10263W        W27110  11.967  13.370  13.488 -0.1450 -0.0049 -0.0394
10264W        W27111  14.584   4.741   2.123 -0.2685 -0.0185 -0.1950
10265W        W27112  16.311  15.580   0.986  0.1140  0.1480 -0.0636
10266W        W27113  19.232  14.880   2.485 -0.2722 -0.2535  0.0072
10267W        W27114  16.414   9.926   4.414  0.1378 -0.0749 -0.1025
10268W        W27115   7.404   2.464   5.637  0.0571  0.0607  0.1150
10269W        W27116   3.996  19.014  13.371 -0.1814 -0.3015 -0.0920
10270W        W27117  15.123   5.113   1.562 -0.2391  0.2793  0.1612
10271W        W27118  18.770  19.264   1.640 -0.0285  0.0549 -0.0842
10272W        W27119   6.506  18.872  11.070 -0.1858 -0.1428 -0.1100
10273W        W27120  14.288  11.299  11.089  0.0857 -0.1925 -0.2593
10274W        W27121   0.604   0.627   1.144  0.2629 -0.0171  0.1602
10275W        W27122  18.182  14.234   1.190 -0.1850 -0.0366  0.1233
10276W        W27123   1.797  10.368  13.421  0.0084  0.0758  0.0963
10277W        W27124   0.116   4.535  11.608  0.1473 -0.0262 -0.3675
10278W        W27125  11.883   1.881  12.839  0.1390 -0.6785  0.0322
10279W        W27126  14.852   1.233  14.487 -0.4863 -0.0330 -0.0413
10280W        W27127   6.294  16.622  10.878  0.3907  0.0364  0.0227
10281W        W27128   1.647   1.989   0.724  0.1463  0.0362 -0.0585
10282W        W27129  16.904   9.963   5.174  0.0423  0.2231  0.1264
10283W        W27130  13.324  14.911   3.601 -0.1244  0.1793 -0.2179
10284W        W27131   8.608  13.328  13.237 -0.1185 -0.4089 -0.0847
10285W        W27132   9.013  13.140   3.315 -0.4108  0.1374 -0.2214
10286W        W27133  14.435   5.185  14.245 -0.2198 -0.0467 -0.2393
10287W        W27134  14.944   0.131   4.561 -0.2560  0.1356 -0.2133
10288W        W27135  17.183  16.040  10.034 -0.1887  0.1106 -0.0100
10289W        W27136  16.135  10.098   1.183 -0.2482  0.3972 -0.1954
10290W        W27137   2.932  17.155   4.513 -0.0141  0.2932  0.0265
10291W        W27138   8.794  12.369   1.487 -0.0035  0.0166  0.4780
10292W        W27139   6.041   4.823   0.870  0.0523 -0.0634  0.1573
10293W        W27140   2.103   6.356  13.563 -0.0596  0.0332  0.0357
10294W        W27141  11.465  10.341  12.168  0.5571  0.1994  0.2035
10295W        W27142  12.465  19.165   3.681  0.3057  0.0495 -0.2174
10296W        W27143  13.690  14.154   1.733 -0.2065 -0.0682 -0.0494
10297W        W27144  15.867  18.060   4.101  0.0368 -0.1182  0.1872
10298W        W27145   8.204   2.312  12.285  0.0828  0.2382 -0.1069
10299W        W27146   4.766  12.818   3.122 -0.0893 -0.0402  0.2440
10300W        W27147  11.113   5.841  12.697 -0.0286  0.2597 -0.1171
10301W        W27148  13.456   2.738  12.832  0.1247 -0.2919  0.0422
10302W        W27149   2.308  17.492   2.874 -0.3318  0.2142 -0.0948
10303W        W27150  11.910   7.272  12.620  0.2617  0.0295 -0.1027
10304W        W27151  10.266  15.620   3.014  0.0222 -0.0454 -0.2977
10305W        W27152  11.166  19.470  13.394  0.0650  0.1549 -0.1127
10306W        W27153  10.928   0.657   9.819  0.3163 -0.2609  0.0781
10307W        W27154  10.475  12.132   3.363 -0.0892 -0.2672 -0.1481
10308W        W27155   0.138   8.959  11.511 -0.1704  0.2289  0.1064
10309W        W27156   4.898  17.217   1.100 -0.1771  0.0670  0.1253
10310W        W27157  18.934  16.936   1.214 -0.3598 -0.0848 -0.2637
10311W        W27158  17.384  12.753   2.190  0.0049  0.1861 -0.2432
10312W        W27159  18.421   2.290   4.673  0.1582  0.2818  0.0799
10313W        W27160   6.499  14.109   4.130 -0.3634  0.0621 -0.1196
10314W        W27161  15.696  11.526  14.585  0.0664  0.0612 -0.0872
10315W        W27162   4.478   3.008   9.684  0.0028  0.0336  0.4062
10316W        W27163  11.930   8.329   9.841 -0.1710 -0.2021  0.2099
10317W        W27164  13.847  10.656  13.700 -0.2966 -0.1161  0.1348
10318W        W27165   8.428  12.145  14.014  0.0024 -0.1411 -0.2071
10319W        W27166   5.927  13.316   3.802  0.1693  0.0559 -0.0561
10320W        W27167  18.831  17.524   3.531  0.2308  0.2305  0.2454
10321W        W27168  16.195  18.457   1.857  0.0046  0.0541  0.0394
10322W        W27169  10.677  18.224  14.536 -0.0189  0.2870 -0.0413
10323W        W27170  11.177   1.452  10.668  0.2560  0.3891  0.0762
10324W        W27171  14.656  15.632  13.854 -0.1205  0.2335 -0.0378
10325W        W27172   3.422  13.873   2.854  0.1344 -0.0309 -0.1145
10326W        W27173   8.731   7.475  11.877 -0.1609  0.0318  0.3528
10327W        W27174  13.172  11.812  11.910 -0.1315 -0.2568  0.2563
10328W        W27175  16.404  14.838   2.171 -0.0411 -0.0009  0.2527
10329W        W27176   3.860   1.860   1.391  0.0295 -0.1852  0.0824
10330W        W27177  15.701   0.387   3.048  0.0173  0.0384 -0.2695
10331W        W27178   3.149  11.429  13.345 -0.0540  0.2117  0.1628
10332W        W27179   8.508  10.785  10.587 -0.0923  0.1351  0.1904
10333W        W27180  19.237   1.720   4.909 -0.2919 -0.0036 -0.1703
10334W        W27181   4.628   1.195   5.321 -0.0281 -0.0935  0.1705
10335W        W27182  14.134   7.001  12.990 -0.1224  0.5263  0.2129
10336W        W27183   5.901   4.366   1.877  0.0658 -0.0025 -0.1146
10337W        W27184   6.911   3.490   2.400 -0.2273  0.0064 -0.0245
10338W        W27185   8.008   8.527   0.682 -0.2537  0.0292  0.0055
10339W        W27186   2.259  12.472   3.430  0.0846  0.0759 -0.0778
10340W        W27187   0.434   4.217  14.572 -0.0500  0.2215  0.0903
10341W        W27188  18.400   9.376   9.430  0.0917 -0.3746  0.0296
10342W        W27189  18.045   7.998   1.307 -0.1232 -0.2254  0.2615
10343W        W27190   0.039  10.554   2.768  0.2300  0.0645 -0.0078
10344W        W27191  13.226  18.870  12.413 -0.0500  0.1788 -0.0785
10345W        W27192  15.105   1.319   1.428 -0.0910 -0.1566 -0.0223
10346W        W27193   6.990   3.460  14.581  0.1998 -0.2070  0.0271
10347W        W27194   9.950  11.151  11.381 -0.0910  0.0334 -0.2253
10348W        W27195   4.007   4.686   4.874  0.2300  0.3946 -0.1239
10349W        W27196  12.701  15.557  12.514 -0.0860  0.2807 -0.0110
10350W        W27197   1.346   5.890   0.322  0.0690  0.2926  0.1628
10351W        W27198   2.491  10.866   5.394 -0.2679 -0.1529  0.0508
10352W        W27199   4.731  10.998  14.124 -0.0531 -0.0873 -0.1233
10353W        W27200   9.287  13.306   5.228 -0.2657 -0.1649 -0.0483
10354W        W27201  11.887   8.519   1.108  0.3052  0.0461 -0.2483
10355W        W27202  12.820   1.929   0.380  0.0947 -0.2293  0.1497
10356W        W27203   0.814   7.696  14.301 -0.1058  0.0036  0.1755
10357W        W27204  11.070  18.849   4.946 -0.1956  0.1845  0.2257
10358W        W27205   8.281   3.989   0.797  0.1518  0.0510 -0.0899
10359W        W27206  12.449   8.993  14.097 -0.3027  0.2592 -0.2891
10360W        W27207  12.746   5.397   1.650  0.1059  0.3322  0.0224
10361W        W27208   8.724   3.760   4.022 -0.0914  0.0858  0.1544
10362W        W27209  13.319   2.670  12.384 -0.1744  0.1674 -0.2042
10363W        W27210  16.028   0.578   0.841  0.1880 -0.0808 -0.1497
10364W        W27211  18.043  17.427   1.376  0.1940 -0.1173  0.2309
10365W        W27212  13.721   3.080  10.312 -0.2473 -0.0776 -0.0603
10366W        W27213  10.333   5.221  10.974 -0.0184  0.0842  0.0492
10367W        W27214  10.621  15.140   1.317 -0.1486  0.1073  0.2244
10368W        W27215   1.952   5.503   2.942 -0.1477 -0.1126 -0.0805
10369W        W27216  10.230  17.933  12.346  0.0200  0.1335 -0.2098
10370W        W27217  10.774   9.142  11.370  0.0473 -0.0401  0.0493
10371W        W27218  11.321   3.360   4.918  0.3733  0.1508 -0.1432
10372W        W27219   7.162   0.284   0.425 -0.2372 -0.2008  0.2157
10373W        W27220  13.931   9.923   4.440 -0.0099 -0.1129  0.1589
10374W        W27221  11.681  12.878   3.863  0.1661  0.0745  0.0451
10375W        W27222  17.178  17.019   2.692 -0.2629 -0.0992  0.1431
10376W        W27223  14.820   4.500  13.610  0.1030  0.0502  0.0643
10377W        W27224  15.621   0.873   0.724  0.0408 -0.1265 -0.3797
10378W        W27225   7.367   5.030  11.325  0.0264  0.4571  0.0222
10379W        W27226   2.157  13.876  13.633 -0.0920 -0.0713 -0.2658
10380W        W27227  14.315  16.139  12.423  0.0280  0.1036 -0.0068
10381W        W27228   5.814   9.686  11.443  0.0899  0.0716 -0.0417
10382W        W27229  15.635   2.613   0.012  0.3782  0.2586  0.2066
10383W        W27230  17.406  12.749  11.438  0.1216 -0.0206  0.2884
10384W        W27231  18.300  12.449   9.898  0.2154 -0.0366  0.1162
10385W        W27232  19.234  17.621  13.246 -0.0139  0.1121 -0.3631
10386W        W27233   0.034   0.781   4.812 -0.0964  0.0499 -0.2571
10387W        W27234   3.946   3.655  11.690 -0.0872 -0.1831  0.3684
10388W        W27235   1.641  14.841  10.739 -0.0897 -0.0676 -0.1158
10389W        W27236   8.959  17.783   2.800  0.1110 -0.1624  0.0063
10390W        W27237  17.704  14.314   0.871  0.3522  0.0563 -0.0010
10391W        W27238  11.006  15.076  13.320  0.1886 -0.3755 -0.0019
10392W        W27239   6.787  10.029  12.261  0.1033  0.0466 -0.1949
10393W        W27240  12.296   0.010   3.447  0.0131  0.0402  0.0241
10394W        W27241  13.175  17.152  14.414 -0.4931 -0.2351  0.0908
10395W        W27242  15.314   7.278  10.912  0.1814  0.0328  0.3309
10396W        W27243   7.735  11.007  14.354 -0.0255  0.3598  0.4862
10397W        W27244  19.261  16.014  13.366 -0.4750 -0.1380 -0.1630
10398W        W27245  18.719  15.499  14.022 -0.2419  0.2115  0.0429
10399W        W27246  17.818  15.360   2.087 -0.5125  0.1604 -0.1514
10400W        W27247  14.324  17.754  11.341 -0.0110 -0.1501  0.3070
10401W        W27248   1.539   4.139   3.984 -0.1976  0.2486  0.0187
10402W        W27249  15.960   5.464   0.476  0.1190 -0.0866 -0.0898
10403W        W27250   3.448   8.177   4.117  0.1333  0.1557  0.1236
10404W        W27251  12.867   1.200   4.603 -0.1272 -0.0479  0.0742
10405W        W27252   1.481   1.537  11.251 -0.1142 -0.0956  0.2369
10406W        W27253  19.237  12.008   0.357  0.3268  0.0436 -0.0560
10407W        W27254   5.349   4.391   1.147  0.1976  0.0057 -0.1505
10408W        W27255   6.276   9.222   5.177 -0.1846  0.1617 -0.2140
10409W        W27256  13.545   6.366  12.100  0.0168  0.0768  0.0059
10410W        W27257  18.203  15.947   2.745  0.1027  0.1151  0.2135
10411W        W27258   3.022   9.348   0.096 -0.1751  0.4845  0.0256
10412W        W27259  14.523   1.619  10.770  0.2163 -0.2447 -0.0552
10413W        W27260   7.053  17.273  13.282  0.0054 -0.0311 -0.0148
10414W        W27261  16.433   3.408  14.412 -0.1434  0.1393 -0.0071
10415W        W27262  10.824  15.323   3.066 -0.1522 -0.0616 -0.0720
10416W        W27263   1.491   7.434   3.794 -0.1232 -0.1004  0.0904
10417W        W27264  15.667   6.907  10.696  0.0977  0.0269  0.1963
10418W        W27265   1.678  16.298  11.263 -0.2590  0.0039  0.2689
10419W        W27266  16.133  18.066  14.224  0.0696  0.4251 -0.1413
10420W        W27267  17.052   8.493  13.987  0.2811  0.2181 -0.2676
10421W        W27268  11.659   2.406  12.653 -0.3501  0.0896 -0.1169
10422W        W27269   8.491  12.842   1.281  0.0046  0.4269  0.1396
10423W        W27270   9.723   9.826  11.236 -0.2740  0.2321  0.1464
10424W        W27271  17.083   2.941   4.028  0.1049 -0.3667  0.1016
10425W        W27272  13.381   1.012   1.296 -0.1163 -0.0009 -0.3373
10426W        W27273  10.565   0.493  10.606  0.1696 -0.3127  0.4619
10427W        W27274   3.682   6.215  11.300 -0.0903 -0.1888 -0.1475
10428W        W27275  10.001   2.945  11.484 -0.1694 -0.0833  0.2805
10429W        W27276  19.381  19.095  10.900 -0.2792  0.0104 -0.0788
10430W        W27277  11.617   0.296  11.282  0.0057 -0.0720 -0.1208
10431W        W27278   3.724   4.498  13.744  0.0366  0.1369  0.3663
10432W        W27279  11.483  18.647   1.082 -0.3285  0.0198 -0.3791
10433W        W27280   4.975  15.876   0.785  0.1870 -0.0454 -0.3663
10434W        W27281   0.091  10.151   1.387 -0.1174 -0.0125 -0.0690
10435W        W27282  14.938   0.178   1.688 -0.0487 -0.0986 -0.1591
10436W        W27283   3.382   1.400  14.033  0.1332  0.1554  0.0273
10437W        W27284   1.829  13.022   2.186  0.4817  0.0615 -0.0173
10438W        W27285   0.608   1.432   4.663  0.2299  0.1783  0.0900
10439W        W27286  12.879  10.738   2.446 -0.0473 -0.1041  0.1088
10440W        W27287   7.345   3.512   0.799 -0.0114  0.2324  0.1680
10441W        W27288   9.038  16.892   3.923 -0.1791  0.0685  0.1852
10442W        W27289  15.179  16.201  13.599  0.1950 -0.1320 -0.1948
10443W        W27290  16.015  15.081   1.977  0.1559 -0.2251 -0.2238
10444W        W27291  10.768   5.773  10.252  0.0988 -0.1106 -0.0898
10445W        W27292   2.767  16.071   0.291 -0.1030  0.0686 -0.4823
10446W        W27293  14.957  10.092  12.354 -0.1928  0.2749  0.2122
10447W        W27294  14.353   5.303  13.374 -0.2178  0.1341  0.2489
10448W        W27295   0.095  16.743   2.365  0.0881 -0.1205  0.1089
10449W        W27296   3.564  14.722   0.529 -0.0988 -0.2870  0.2940
10450W        W27297  15.617  10.201   4.944 -0.1450 -0.2783 -0.3664
10451W        W27298   6.906   0.062  11.502 -0.2786  0.2821 -0.1187
10452W        W27299   3.437  11.643   3.606  0.1922  0.0671  0.2689
10453W        W27300  17.272  17.278  11.954 -0.0227 -0.0522 -0.1120
10454W        W27301   3.863   0.797   9.967 -0.2070 -0.1584  0.1716
10455W        W27302   2.355   4.755  12.543 -0.1412  0.1751 -0.2488
10456W        W27303   9.754  10.461  10.757  0.2208 -0.1476  0.0239
10457W        W27304   0.617  11.179  11.152  0.1791  0.0608 -0.1135
10458W        W27305   0.544  18.588   2.404 -0.3498 -0.0316 -0.1504
10459W        W27306   1.321   3.051  13.531  0.1031  0.2853  0.0679
10460W        W27307  18.385  12.552   3.133  0.1826  0.0082  0.0864
10461W        W27308   5.883  13.352   0.428  0.1633 -0.0354 -0.1048
10462W        W27309  10.841  18.738  11.516 -0.0166  0.1657 -0.0230
10463W        W27310   8.526  17.304  12.976  0.0682 -0.0984  0.3709
10464W        W27311  11.463   9.054   4.353  0.1116 -0.3079 -0.1952
10465W        W27312  16.323  13.020  10.616  0.2266 -0.0093 -0.0740
10466W        W27313  14.010  13.138   3.047 -0.1372 -0.1870  0.1633
10467W        W27314   7.863  10.698   0.097 -0.0292  0.2197  0.0216
10468W        W27315  15.925  10.639   4.714 -0.2053  0.0715 -0.3019
10469W        W27316  12.834  14.403   4.263 -0.1216 -0.0283  0.1531
10470W        W27317  18.505  19.549  10.505  0.2964 -0.1044 -0.1352
10471W        W27318  10.323  11.110  10.931 -0.1692 -0.0078 -0.1732
10472W        W27319   9.382   3.152   0.080  0.0205  0.0438 -0.3262
10473W        W27320   4.349   0.321   2.168 -0.0533 -0.1419 -0.0028
10474W        W27321   6.600   3.460   4.190  0.3797 -0.4099 -0.0802
10475W        W27322   3.165   3.717   2.208  0.3394  0.1543 -0.2160
10476W        W27323  10.457  15.912   2.087  0.2642 -0.0809  0.1179
10477W        W27324   3.922   2.196  13.928  0.2947 -0.0443  0.1328
10478W        W27325   0.047   7.410   0.924 -0.0557 -0.2105 -0.3579
10479W        W27326   4.166   9.839  14.476 -0.0235  0.0275 -0.0881
10480W        W27327   7.131  12.947  11.124  0.0631  0.1634 -0.0759
10481W        W27328   3.970   9.600  10.698 -0.0858 -0.0008  0.2283
10482W        W27329  14.901   1.989   5.043 -0.2096 -0.1383  0.0837
10483W        W27330   5.716  11.219  14.144 -0.0878  0.0706 -0.0871
10484W        W27331   7.933  19.508  13.034  0.3762  0.0837 -0.0444
10485W        W27332  14.996  15.070  12.728  0.0581 -0.0041  0.2756
10486W        W27333  10.666   5.787   2.977  0.0627 -0.1714  0.0954
10487W        W27334   6.566   1.692  14.070 -0.1633 -0.0482  0.3201
10488W        W27335   0.254  17.376   4.066 -0.1070  0.0880  0.1708
10489W        W27336   8.216   2.551  12.737  0.1154 -0.0844 -0.0735
10490W        W27337   2.094  10.920  12.763  0.1119  0.1792 -0.4815
10491W        W27338  13.428   0.809  14.002 -0.1266  0.1022  0.1040
10492W        W27339  14.487   6.797   1.010  0.1043  0.1478  0.1696
10493W        W27340   3.881  11.775  11.795 -0.0290 -0.1270  0.0672
10494W        W27341  12.876   5.267  13.125 -0.0509  0.0135  0.0277
10495W        W27342   2.134  13.235   0.607 -0.0321  0.1123 -0.3031
10496W        W27343  11.390  10.362  11.330 -0.0486 -0.3254  0.1090
10497W        W27344  12.857  18.957   3.331  0.0599 -0.1702 -0.0879
10498W        W27345  11.040  18.238   3.210  0.0582  0.1124 -0.0821
10499W        W27346  12.949  17.229   2.346  0.1733  0.0539 -0.0182
10500W        W27347   6.788   5.934   2.931 -0.2209  0.0771 -0.0153
10501W        W27348   9.652  10.971  12.410 -0.2969  0.2471  0.2813
10502W        W27349   5.257   7.647   2.842 -0.0975  0.2536  0.2088
10503W        W27350   3.158   4.567   3.741  0.3247 -0.1135 -0.0106
10504W        W27351  13.796  13.333   1.931  0.2981 -0.3656  0.1274
10505W        W27352  18.878  11.617   0.580  0.0768 -0.0912 -0.3773
10506W        W27353   6.961   1.585  10.585 -0.0431 -0.1397 -0.1227
10507W        W27354  19.520  15.499  12.132 -0.3499  0.1261 -0.2028
10508W        W27355   1.159  19.048  13.462 -0.2318 -0.1577  0.3097
10509W        W27356  19.356   2.659  12.060  0.1935  0.0717  0.0216
10510W        W27357   0.802   5.614   0.788  0.1173  0.4473 -0.0885
10511W        W27358   1.813  13.931   5.107  0.0731 -0.0324  0.0366
10512W        W27359   5.185   2.494   0.992 -0.0358 -0.2108  0.1828
10513W        W27360  18.094  19.366  12.934 -0.0389  0.1325  0.2880
10514W        W27361   0.637  13.411  13.921 -0.1957  0.1638  0.1979
10515W        W27362  11.463   1.648  11.055 -0.0974 -0.0693 -0.3743
10516W        W27363   7.605   1.636   4.645  0.2026 -0.2841 -0.1636
10517W        W27364  17.018   6.638   4.666 -0.0025  0.0564  0.1296
10518W        W27365  14.934  14.433  13.458  0.1250 -0.1480  0.1222
10519W        W27366   7.820   0.371  14.520  0.2706 -0.0189  0.0104
10520W        W27367  17.339  18.544  13.766 -0.0017  0.2336 -0.2102
10521W        W27368  16.357  16.570   4.199  0.1514 -0.0138 -0.4839
10522W        W27369   5.127  16.901  11.457 -0.0059 -0.1845 -0.0205
10523W        W27370  13.733  16.548   1.064 -0.1380  0.1350 -0.1619
10524W        W27371  15.410  12.414  14.556  0.1994  0.1601  0.1614
10525W        W27372   1.701   6.536   1.481 -0.2855 -0.1497 -0.0818
10526W        W27373  18.765  18.535   3.698  0.0839  0.1210 -0.1384
10527W        W27374  15.612   2.233  10.832 -0.0692  0.3267  0.1368
10528W        W27375  14.579   8.158  11.973 -0.1968 -0.1292 -0.0229
10529W        W27376   2.080   2.054   0.040 -0.0425 -0.0004  0.0006
10530W        W27377  16.785  18.437  11.956 -0.0340  0.2987  0.0415
10531W        W27378  15.603  14.919   3.885 -0.0068  0.1382  0.0870
10532W        W27379   3.574  10.838   3.940  0.0144 -0.2311 -0.3526
10533W        W27380  18.442  12.798  14.420 -0.1748  0.3046 -0.0193
10534W        W27381   1.516   8.044   9.476  0.1507 -0.1689 -0.0513
10535W        W27382   7.832   7.356  14.601  0.0096  0.0971 -0.4630
10536W        W27383  16.457  15.807   2.411  0.1287 -0.0262  0.0976
10537W        W27384   6.409   0.644   2.600 -0.0730 -0.0269 -0.1811
10538W        W27385   1.002  10.048  13.706  0.0185 -0.3481 -0.2198
10539W        W27386  15.759   7.959   2.231 -0.1050  0.0303 -0.0880
10540W        W27387  11.424   7.426   0.120 -0.0342  0.1003 -0.3071
10541W        W27388   7.838  14.474  10.783 -0.1486  0.3126 -0.1507
10542W        W27389   7.597   6.588   3.829 -0.0036  0.1052  0.0764
10543W        W27390   2.025   7.706  13.730  0.3259 -0.2929  0.2265
10544W        W27391  13.785   5.557   5.191  0.0779 -0.1124 -0.2422
10545W        W27392  18.864   8.504   4.239 -0.2063 -0.0651  0.0623
10546W        W27393   9.078  17.972  10.084  0.5493 -0.0373  0.0440
10547W        W27394   2.270   6.911  13.567  0.1838 -0.3334  0.0771
10548W        W27395   2.962   5.941   4.272  0.2040  0.1615 -0.1524
10549W        W27396   7.312   7.741  12.048 -0.0081  0.0794  0.2637
10550W        W27397  16.504   2.011  11.522  0.0369 -0.0416  0.3690
10551W        W27398  12.998  13.936   4.742 -0.1906 -0.0103  0.2647
10552W        W27399  19.205  15.186   1.631  0.2715 -0.1568  0.0018
10553W        W27400   7.282   0.385  11.415  0.2501 -0.2161  0.3445
10554W        W27401   3.400   5.781  10.728  0.1427  0.0210 -0.1686
10555W        W27402   7.201   5.008   3.271  0.2276  0.0110 -0.1935
10556W        W27403  11.509  18.849   1.620 -0.0991 -0.3237 -0.0671
10557W        W27404   7.984  19.027  12.616  0.0772  0.2545 -0.4845
10558W        W27405  11.962  18.088   2.375  0.1116 -0.2750  0.1365
10559W        W27406  10.653  14.303   2.714 -0.0067 -0.2393  0.0030
10560W        W27407   0.638   1.562   1.272  0.3937 -0.1582 -0.0635
10561W        W27408  13.623   2.360   4.076  0.0853 -0.1555 -0.1443
10562W        W27409   0.605   2.814  14.096  0.0012 -0.2870 -0.1704
10563W        W27410  11.787  18.545  12.941  0.1913 -0.2844 -0.2050
10564W        W27411   2.080   3.562  13.629 -0.2333  0.1869  0.0375
10565W        W27412   5.222  18.475   1.828 -0.0374 -0.1495 -0.0416
10566W        W27413  11.464  12.390  12.722 -0.0884 -0.1864  0.3804
10567W        W27414   5.233   2.083  14.456  0.1017 -0.0128 -0.1872
10568W        W27415   1.674   2.807  10.959  0.0301  0.0825  0.1152
10569W        W27416  14.865   6.443   4.103 -0.0495 -0.0769 -0.2771
10570W        W27417  14.093  18.454  12.207  0.0495 -0.1728 -0.2297
10571W        W27418   2.217  18.789  13.793 -0.0738 -0.0134  0.0947
10572W        W27419  19.132   7.651  14.354  0.0151 -0.1938 -0.1889
10573W        W27420   6.137   1.478   1.243 -0.0347  0.0433  0.0704
10574W        W27421  16.263  10.890   4.364 -0.0893 -0.2669  0.1963
10575W        W27422   6.853  18.123   1.880  0.0966 -0.1247  0.2760
10576W        W27423  11.113   4.710  13.549  0.1244  0.1319  0.1473
10577W        W27424  14.960  19.087   2.861 -0.0498  0.0547 -0.1869
10578W        W27425   6.393  19.292   2.097 -0.3327  0.2045  0.0165
10579W        W27426  18.958   8.303   0.326  0.2411 -0.1836  0.2619
10580W        W27427   2.341  13.419  11.390  0.1428  0.0603  0.1934
10581W        W27428  11.228  15.593   0.473 -0.2906 -0.1072 -0.0332
10582W        W27429   3.334   7.536  10.947 -0.0060  0.0100  0.0869
10583W        W27430   7.969   0.272  10.855  0.2277  0.2242 -0.1437
10584W        W27431   9.854   7.207  10.688 -0.0993  0.0556 -0.0750
10585W        W27432   1.523  16.789   1.851 -0.1074 -0.0986  0.2700
10586W        W27433  15.846   6.338  12.019 -0.1208  0.0906  0.1001
10587W        W27434  14.703  16.423   0.996  0.0756  0.1428  0.2867
10588W        W27435  10.871  16.361  11.028 -0.0544 -0.0999 -0.0012
10589W        W27436  13.500   5.691   1.990  0.3612  0.0144 -0.0117
10590W        W27437  15.466  18.896  12.792 -0.2374  0.1285  0.0405
10591W        W27438   9.793   8.742   2.881  0.0162  0.0135  0.1702
10592W        W27439   6.049   5.498  13.961  0.1461 -0.1927  0.0717
10593W        W27440   5.800   3.166  14.141  0.3101 -0.0226 -0.0690
10594W        W27441   0.297   0.655  11.054  0.1131 -0.1892 -0.2474
10595W        W27442   5.379   9.109   5.052 -0.1787 -0.1028  0.0555
10596W        W27443  11.837  16.456   1.681 -0.2085 -0.3832 -0.3121
10597W        W27444   7.603  11.962   4.257 -0.0977 -0.0782 -0.0054
10598W        W27445  12.824   2.145   4.687  0.1498  0.1698 -0.0823
10599W        W27446   3.022  18.591   4.899 -0.0187 -0.2364 -0.2980
10600W        W27447  13.732  12.953   1.007  0.2823  0.0431 -0.0161
10601W        W27448  13.216   5.666   3.001  0.0807 -0.0434  0.0671
10602W        W27449   6.005   2.408   3.097 -0.0630 -0.3975  0.0449
10603W        W27450   7.458  15.526   4.723 -0.1730  0.0946 -0.1036
10604W        W27451   5.286  16.431   3.966  0.0167 -0.0602  0.1922
10605W        W27452  14.330   2.221  11.205  0.2015 -0.2061  0.3050
10606W        W27453   6.011   7.919   0.742  0.1456  0.1213  0.3445
10607W        W27454   3.876  11.053   4.733  0.2095  0.1177  0.0301
10608W        W27455  18.118   8.411  13.223  0.1170  0.3184 -0.1695
10609W        W27456  19.219   0.588  12.865 -0.0610  0.2280  0.1936
10610W        W27457  14.490   4.314   0.574 -0.1208  0.1325 -0.3054
10611W        W27458  11.252   1.221   1.099 -0.0531 -0.0235 -0.0219
10612W        W27459   7.505  10.081   4.295 -0.0069  0.0632 -0.2166
10613W        W27460   4.662   0.484   3.752  0.1494  0.0906  0.1106
10614W        W27461  10.181  15.673  12.107  0.1160 -0.1329 -0.0432
10615W        W27462  16.565   0.279   9.867 -0.3277 -0.3601 -0.0014
10616W        W27463   7.758  11.110   0.919  0.1008  0.1615 -0.0242
10617W        W27464  13.201   2.947   1.469 -0.1646 -0.1260 -0.1181
10618W        W27465  18.126   8.293   5.522  0.0075 -0.1110 -0.0115
10619W        W27466  10.204   6.935  12.152  0.1872  0.6213  0.1727
10620W        W27467  11.838   3.749  10.993  0.1365  0.0045  0.0148
10621W        W27468   7.646  15.494  13.070 -0.1232 -0.2659  0.0594
10622W        W27469   4.672  17.288  14.442  0.1112 -0.0454 -0.2056
10623W        W27470   1.701   6.316  11.917  0.3609  0.0648  0.1211
10624W        W27471   2.135  14.377   1.058  0.0747  0.1549  0.1308
10625W        W27472   3.997  19.087  13.984  0.5984 -0.3380 -0.3530
10626W        W27473   1.115   7.833  13.810  0.2626 -0.2226  0.0030
10627W        W27474   6.676  10.477   3.163 -0.2759  0.1336 -0.0470
10628W        W27475   6.570  11.776  14.169 -0.0123  0.1359 -0.1429
10629W        W27476  18.033  12.781   8.976  0.1150 -0.1703  0.0786
10630W        W27477   0.718   8.713   2.892  0.0774 -0.1628 -0.2632
10631W        W27478  14.957   5.913   5.087 -0.0029 -0.2266 -0.0890
10632W        W27479   6.064   2.390  13.869 -0.0507 -0.1590 -0.1471
10633W        W27480   4.324   6.040   0.797 -0.3445  0.0603  0.1575
10634W        W27481   6.882  10.053   3.531  0.2518 -0.1625 -0.4574
10635W        W27482  11.692   7.583  10.545 -0.0439 -0.1957  0.0012
10636W        W27483  18.285   3.145  13.548 -0.1574  0.2274  0.0409
10637W        W27484   8.675   6.319   2.031 -0.1868 -0.1106  0.4183
10638W        W27485   3.694   4.241  10.867  0.0919 -0.0247  0.0306
10639W        W27486  19.572   7.844   4.009 -0.0522 -0.2820  0.2577
10640W        W27487   9.168  16.038   4.385 -0.1699 -0.1866  0.1300
10641W        W27488  11.965   3.010   1.685  0.3892 -0.0006 -0.0559
10642W        W27489   8.220  15.031   4.625 -0.0355  0.2857  0.3532
10643W        W27490   1.281   6.191   9.077  0.0010  0.0894 -0.2606
10644W        W27491  16.762   2.169   4.274 -0.0043  0.0664 -0.0473
10645W        W27492   4.305   5.706  13.130 -0.3405  0.1527  0.0585
10646W        W27493   7.847   2.155  10.759 -0.1486 -0.1530 -0.0490
10647W        W27494   3.067   3.150   4.412  0.0660  0.3540 -0.2198
10648W        W27495  13.142   9.980  10.963  0.1920  0.1336 -0.0798
10649W        W27496   1.268   1.350   4.068 -0.0310 -0.1469 -0.3733
10650W        W27497  11.081  14.117  11.663 -0.2237  0.1553  0.0068
10651W        W27498  11.176   1.573   3.658  0.2071  0.1374 -0.2465
10652W        W27499  11.970   0.323  14.109  0.0978 -0.0067 -0.1447
10653W        W27500   8.457   5.742   0.872 -0.0136 -0.1469 -0.2423
10654W        W27501  13.468   4.763   1.977  0.0974  0.0612 -0.0190
10655W        W27502   0.359  15.395   5.444 -0.4034  0.0464  0.1135
10656W        W27503   4.868   4.256   3.061 -0.0741 -0.3598 -0.1866
10657W        W27504   6.000   5.186   1.234 -0.1663  0.0453 -0.1812
10658W        W27505   5.193   0.544  14.370 -0.0469  0.3542 -0.2371
10659W        W27506  15.999  14.241  13.036  0.3037 -0.4111 -0.2494
10660W        W27507  15.377  16.198   3.217  0.0401 -0.0671 -0.1982
10661W        W27508  17.830  11.757  12.582 -0.0337  0.1622 -0.0675
10662W        W27509   2.150  16.342  14.020  0.1504 -0.1831  0.1777
10663W        W27510  14.199  11.050  10.154  0.1154  0.0619 -0.0958
10664W        W27511  15.003   8.711   2.956 -0.2871 -0.0855 -0.0426
10665W        W27512   5.547   7.027   3.847 -0.1208 -0.0068  0.1823
10666W        W27513   2.916  16.892  12.791  0.2927 -0.1292 -0.0101
10667W        W27514  18.591  18.332  14.355 -0.3139  0.1386  0.1950
10668W        W27515   8.187   2.876   2.915 -0.0299 -0.3801  0.0779
10669W        W27516  12.050   8.481  13.953 -0.4208  0.0735 -0.3912
10670W        W27517  17.321  11.694   0.951  0.1399 -0.2052  0.1469
10671W        W27518  12.248  14.436   4.301 -0.1363 -0.2674 -0.5324
10672W        W27519  15.811   8.918  12.678  0.0301  0.1781  0.1352
10673W        W27520   8.455   1.608   0.086  0.1693  0.2591  0.3483
10674W        W27521  12.039   3.559   0.787  0.0457  0.0113 -0.0276
10675W        W27522  16.027  17.888   1.047 -0.2670  0.0934 -0.1227
10676W        W27523   5.353  16.142   0.539 -0.2944 -0.2273 -0.1334
10677W        W27524   2.195   4.603   3.355  0.1412  0.6965  0.0576
10678W        W27525  15.493   5.075  14.247  0.2460 -0.1271 -0.0250
10679W        W27526  13.419  18.112   2.303  0.1459 -0.1193  0.2697
10680W        W27527   2.469   7.283   4.118 -0.2392 -0.0070  0.1486
10681W        W27528   8.608   3.102   3.541  0.1811 -0.1828 -0.2909
10682W        W27529  14.912  11.256   0.382 -0.0977  0.1175 -0.1833
10683W        W27530   6.286  17.585  13.787  0.1293 -0.0281 -0.1189
10684W        W27531   0.139   2.252   2.182 -0.1994  0.0701  0.1680
10685W        W27532  13.287   1.557   4.351  0.0727  0.1007  0.1763
10686W        W27533  11.262   2.295  11.803 -0.1031  0.2323  0.1938
10687W        W27534   4.979   4.028  12.614  0.0929  0.0528 -0.2859
10688W        W27535   1.849   6.977   2.285 -0.0487 -0.0306  0.0655
10689W        W27536   6.826   7.382  10.313 -0.5276  0.1076  0.1486
10690W        W27537   5.688  12.920   0.261  0.2061 -0.2252 -0.3128
10691W        W27538  17.800   3.831  12.954 -0.0736  0.1802 -0.6059
10692W        W27539   4.221  11.497   5.497 -0.4501  0.0580  0.0657
10693W        W27540  12.609   2.518  10.242 -0.1832  0.0267  0.0532
10694W        W27541  17.187  18.757  14.270 -0.1539 -0.3136 -0.0262
10695W        W27542  16.808  11.734   4.326 -0.1719  0.1290 -0.0367
10696W        W27543  11.233  10.793   4.168  0.0580  0.1363  0.2134
10697W        W27544   5.976  14.726   2.110  0.0593 -0.1154 -0.0185
10698W        W27545   4.813  16.882  10.708  0.3386 -0.1367 -0.2018
10699W        W27546  19.017  18.150  10.393 -0.2324  0.0778 -0.2362
10700W        W27547   0.869  13.818   2.323 -0.0654 -0.1063 -0.2673
10701W        W27548   8.421   0.513  11.634  0.3017  0.0033  0.4934
10702W        W27549   5.744   3.858   2.918  0.0393  0.2391 -0.1745
10703W        W27550   5.172  12.600   4.499  0.1140  0.1251  0.1004
10704W        W27551  13.368  18.287  10.452 -0.0346 -0.0752 -0.4037
10705W        W27552   2.099   8.852   2.193  0.2399  0.0375 -0.0991
10706W        W27553   6.789   2.898  11.871 -0.0696 -0.0422  0.3553
10707W        W27554   0.065   0.032   3.473 -0.3499  0.1392  0.0627
10708W        W27555   4.723  18.550   1.439 -0.2840  0.1146  0.1157
10709W        W27556   3.032  15.609   2.291 -0.0504  0.0884  0.0070
10710W        W27557  19.297   5.710  12.008  0.0430 -0.3789  0.0442
10711W        W27558   0.240   7.417   3.032 -0.1292  0.1282 -0.1379
10712W        W27559   9.339  11.322  11.661 -0.0102 -0.0414  0.2538
10713W        W27560   5.562  19.380  10.098  0.0917  0.2096  0.1830
10714W        W27561   4.600  18.146  11.791 -0.0944 -0.0980  0.0696
10715W        W27562   2.822  18.335   2.098  0.3419  0.2757 -0.0502
10716W        W27563   5.076  11.871   4.441 -0.0613  0.0929  0.0344
10717W        W27564   9.346  11.641  10.293 -0.2322 -0.0581  0.0851
10718W        W27565  18.006  11.269  11.580  0.0130 -0.2288 -0.2558
10719W        W27566   9.581  15.946  13.971  0.1332 -0.0817  0.0910
10720W        W27567   2.988   4.495  12.019 -0.2695 -0.0197 -0.2105
10721W        W27568   8.362   2.373   0.225 -0.0415 -0.1415 -0.0157
10722W        W27569  13.404   3.315   2.659  0.0503  0.2987  0.1012
10723W        W27570  15.916  16.083   2.555 -0.0728 -0.1011  0.1485
10724W        W27571  16.516   2.437  11.177  0.3377  0.4679  0.0357
10725W        W27572  16.920  14.986   1.007 -0.3973 -0.0312 -0.0188
10726W        W27573   1.823   5.810   3.294 -0.4037  0.1615  0.1905
10727W        W27574   8.556  10.179  14.154 -0.3012 -0.1023  0.0383
10728W        W27575   7.633   0.042  10.606 -0.1689 -0.2292 -0.0397
10729W        W27576  17.367  16.352   2.232  0.1279  0.1042  0.0597
10730W        W27577  14.098  12.665  13.228 -0.1754  0.1718 -0.1985
10731W        W27578  13.618   3.195   9.816  0.0156 -0.2403  0.1029
10732W        W27579  16.089  13.317   2.387  0.0743 -0.1129  0.3170
10733W        W27580  10.137  16.567  13.985  0.2346  0.1220  0.1565
10734W        W27581   5.207   2.972  11.183  0.1813  0.2555 -0.0170
10735W        W27582   7.157  17.040  12.848  0.0982 -0.1756 -0.1067
10736W        W27583  15.453  16.523   0.397 -0.0757  0.0111  0.3442
10737W        W27584   3.052  18.572  11.238 -0.0001 -0.0984  0.1673
10738W        W27585   0.531  11.367   3.778 -0.0995  0.0880  0.1101
10739W        W27586  11.337  19.426  14.017 -0.1079 -0.1942 -0.2423
10740W        W27587  17.218  13.369   4.703  0.2126  0.1774  0.1553
10741W        W27588  12.674  17.056   1.816 -0.2020 -0.0414  0.0495
10742W        W27589  17.176  18.079  12.898  0.0822 -0.0454  0.3346
10743W        W27590   6.314   8.861  11.701 -0.0593  0.0325  0.1140
10744W        W27591   9.426  10.118  10.956  0.0144  0.0004 -0.0583
10745W        W27592  10.994   3.358  11.070 -0.0261  0.3030  0.0907
10746W        W27593   0.935  18.350   4.951 -0.0713  0.0227 -0.4053
10747W        W27594  17.989   0.901   0.492 -0.0174 -0.1485  0.1783
10748W        W27595  14.089  17.902   1.200 -0.3350 -0.1233  0.1789
10749W        W27596   1.042   0.591  12.405  0.1074 -0.1215  0.0416
10750W        W27597   0.615   7.129  13.458 -0.1446 -0.2193  0.3628
10751W        W27598   6.241   3.146  14.027 -0.1249 -0.4258 -0.2963
10752W        W27599   4.216   4.597   2.327  0.2317  0.0595 -0.0878
10753W        W27600   5.751   4.186  12.008 -0.1730  0.0669 -0.3430
10754W        W27601   8.928  17.283  12.379 -0.3848  0.2075 -0.0006
10755W        W27602   0.009  10.712  10.896  0.0176 -0.3235  0.0177
10756W        W27603   3.015   9.381   3.395 -0.2930  0.0052 -0.0182
10757W        W27604   5.401   9.411  11.303 -0.0056 -0.1551 -0.2003
10758W        W27605   4.340   7.548   1.036  0.1053  0.1567 -0.2278
10759W        W27606  19.219   4.281  13.012  0.0721 -0.2005 -0.1440
10760W        W27607   2.970   5.059   4.252 -0.0413 -0.1347 -0.1813
10761W        W27608  19.403  17.050   4.809 -0.1990  0.1789 -0.3055
10762W        W27609   5.432   8.680   1.519 -0.3712 -0.0463 -0.1198
10763W        W27610  18.165  10.989   0.429 -0.3503  0.0454  0.0084
10764W        W27611   6.616   9.100  13.395 -0.1297 -0.0735  0.0044
10765W        W27612   4.784   1.413   3.241  0.0950 -0.1756  0.0344
10766W        W27613  16.081  19.349   1.185  0.5180  0.3094 -0.0687
10767W        W27614   1.201  10.872  13.354  0.3188  0.2649  0.1650
10768W        W27615   8.201  14.815  10.611 -0.0681  0.0743 -0.0788
10769W        W27616   7.097   1.724   0.986  0.0030  0.0035 -0.1184
10770W        W27617   1.109   5.423   2.887 -0.3964 -0.2807  0.1207
10771W        W27618   1.962   9.889   0.950  0.0946 -0.0062 -0.0297
10772W        W27619  12.988   3.650  13.221 -0.0352  0.0031  0.1814
10773W        W27620  10.910  16.657  14.449  0.2589 -0.0263 -0.1808
10774W        W27621   2.506   5.300   0.374 -0.5025  0.0191  0.0346
10775W        W27622   8.756   4.205   3.262  0.1959 -0.1771 -0.0045
10776W        W27623  16.260   6.419  12.297  0.3445  0.5066 -0.1457
10777W        W27624   4.231  10.117   1.221  0.3119  0.0798 -0.1783
10778W        W27625   9.985  12.798   9.927 -0.0245 -0.0060 -0.0657
10779W        W27626   1.622  11.765   4.904 -0.4767  0.2572 -0.2066
10780W        W27627   3.611  14.929  12.885  0.0921 -0.2297  0.2617
10781W        W27628   0.810  17.348   9.909 -0.2529 -0.1494 -0.3371
10782W        W27629   0.611   3.578   1.197 -0.4826 -0.1310  0.1502
10783W        W27630  10.905  13.191   1.361 -0.0274  0.0219 -0.1222
10784W        W27631  17.412  19.405  14.043  0.1078  0.1784 -0.0004
10785W        W27632  19.149   4.342  11.001 -0.0369  0.0953  0.2019
10786W        W27633   0.808   2.913   3.123 -0.1447 -0.1376 -0.3950
10787W        W27634  14.450  14.081   2.002 -0.1571  0.3267  0.0898
10788W        W27635  13.502   9.144   0.979 -0.0267 -0.1899 -0.0166
10789W        W27636  18.531   3.953   2.490  0.0163 -0.0616 -0.2934
10790W        W27637   7.259   5.326   0.041 -0.2042  0.1252 -0.1619
10791W        W27638   9.705  15.547   3.042  0.1244  0.0304  0.1290
10792W        W27639   0.912   2.434  12.437  0.1510  0.2769 -0.2746
10793W        W27640   8.747   2.931  11.921  0.2765 -0.1682  0.1508
10794W        W27641   8.426  19.046   1.215 -0.0192  0.5835  0.2073
10795W        W27642   2.888  16.601  13.421  0.1879  0.3348 -0.1779
10796W        W27643   9.992  19.267  13.681  0.1829  0.0470  0.1019
10797W        W27644  16.281  10.865  10.765  0.0297  0.1746 -0.3031
10798W        W27645  14.333   4.424   9.540 -0.0134 -0.2627  0.0155
10799W        W27646  15.303  16.141   2.243 -0.0158 -0.2479 -0.1619
10800W        W27647   4.466   8.164   3.657  0.3966  0.2005  0.0152
10801W        W27648   8.467  12.567  11.029  0.3128  0.3610 -0.2635
10802W        W27649   2.315   1.620  13.094  0.0236  0.0884  0.1018
10803W        W27650   3.827  14.354  11.078  0.0765 -0.0950  0.0189
10804W        W27651   3.612   8.910   3.424  0.3114  0.1604 -0.1169
10805W        W27652   4.920   9.844   1.415  0.2251  0.3795 -0.2248
10806W        W27653   6.960   5.617  13.062  0.1092 -0.0414  0.1871
10807W        W27654  13.225   9.645  13.570 -0.0501  0.1707 -0.3581
10808W        W27655  15.107  18.276   0.799  0.0883 -0.1289  0.1183
10809W        W27656   2.402  16.664   0.900  0.2163 -0.0900 -0.2446
10810W        W27657   9.707  13.450  13.784  0.1943 -0.1983 -0.0622
10811W        W27658  13.486  18.205   3.896  0.0770 -0.1292 -0.0023
10812W        W27659   5.317   0.119  10.485 -0.1498  0.0725 -0.2936
10813W        W27660   3.461  11.534  11.632 -0.0362  0.5262 -0.5754
10814W        W27661  17.591   1.344   4.273  0.1001 -0.0677  0.0942
10815W        W27662   6.824   2.347  10.747  0.2485 -0.0066  0.1986
10816W        W27663  13.036   3.565  11.800 -0.0194 -0.0077  0.0717
10817W        W27664  15.370  18.420  10.407 -0.1539 -0.3368 -0.2800
10818W        W27665   7.601  15.296   2.447  0.1222  0.2047 -0.2500
10819W        W27666  10.129  14.156   2.978  0.2789 -0.2289  0.0333
10820W        W27667  13.215  12.110  12.340  0.2929 -0.2742  0.2240
10821W        W27668   9.816   5.589   1.445  0.0724 -0.1131 -0.0554
10822W        W27669  13.260  15.455  13.810  0.2111  0.1188  0.1033
10823W        W27670  11.727  19.383   3.799  0.1035  0.1340  0.0291
10824W        W27671   0.923  12.741  12.959  0.1384 -0.0782  0.3001
10825W        W27672   9.653   7.535  11.581  0.2439  0.0544  0.2709
10826W        W27673  17.034  17.803   4.529  0.2145  0.0343 -0.0466
10827W        W27674   9.388  15.245   3.239 -0.3106 -0.0276 -0.1254
10828W        W27675   3.288   7.101  11.580 -0.3362 -0.1265 -0.1090
10829W        W27676   4.956  17.535   4.516  0.4448 -0.2073 -0.2058
10830W        W27677  17.848  17.025  10.229  0.0567 -0.0509 -0.1689
10831W        W27678  16.930   1.865   3.900 -0.0402  0.0098 -0.1528
10832W        W27679   8.054  13.684  13.754  0.4010  0.0841  0.2815
10833W        W27680   7.379   9.670  13.729 -0.2336 -0.1815 -0.1114
10834W        W27681   9.665  17.943   1.994 -0.0272  0.1283  0.0422
10835W        W27682  12.102  14.909  10.103 -0.2556  0.2765  0.3462
10836W        W27683  12.209   9.421   1.474  0.0487 -0.5684  0.4403
10837W        W27684  11.448   8.511  14.410  0.2232  0.0819  0.0483
10838W        W27685  13.849  15.661   3.757 -0.0272  0.3132 -0.4033
10839W        W27686  18.787  13.311  13.267 -0.0448 -0.0875 -0.1342
10840W        W27687  12.685  13.145   4.010  0.0697  0.0533  0.2671
10841W        W27688   9.328   3.804   4.735  0.0533 -0.3032 -0.1677
10842W        W27689   3.340   6.745  11.892 -0.1157 -0.1579 -0.1521
10843W        W27690  18.682  10.458   3.260 -0.2849  0.0001 -0.2605
10844W        W27691   6.419   2.475  14.454  0.0945  0.1771  0.1495
10845W        W27692  16.301   8.550   3.957  0.0924 -0.5028 -0.0520
10846W        W27693   5.292   3.896   1.494 -0.0332  0.0837 -0.0958
10847W        W27694  19.423   9.283  13.694 -0.2312  0.1362 -0.2396
10848W        W27695  17.572   6.872  11.094 -0.2169  0.2450 -0.3542
10849W        W27696   1.286   1.359   1.308  0.1182  0.0123 -0.2042
10850W        W27697   3.924   8.190  11.507 -0.0557 -0.0712 -0.0848
10851W        W27698   4.387   9.580  14.087 -0.1002 -0.1814  0.1758
10852W        W27699  14.305   9.638  10.407  0.2124 -0.6198  0.2141
10853W        W27700  12.524   8.749  12.484  0.1118  0.0263  0.1996
10854W        W27701  17.348  19.243  11.628  0.0245  0.1258 -0.1032
10855W        W27702   1.854   6.022   0.179 -0.1172  0.4071  0.0686
10856W        W27703   9.959   0.883   0.864 -0.0210 -0.0510  0.0692
10857W        W27704   8.137  10.269   2.262 -0.1759 -0.2383 -0.0343
10858W        W27705   1.895   1.648  14.431  0.3028 -0.2314  0.1671
10859W        W27706   5.545  10.042   1.427 -0.1197  0.0501  0.0728
10860W        W27707   5.596  11.059   0.105  0.1409 -0.1175  0.1502
10861W        W27708   6.304   8.994   1.071  0.1216 -0.3572 -0.3767
10862W        W27709  10.600  14.411  12.102  0.0368 -0.0675 -0.0697
10863W        W27710  15.584  13.297   2.501 -0.2685 -0.1527 -0.0373
10864W        W27711  15.416  12.848   2.730 -0.0725  0.1799  0.0065
10865W        W27712   4.960   2.845  11.884  0.0691  0.2927  0.1587
10866W        W27713   2.906  12.319  11.921  0.0299  0.0587 -0.0086
10867W        W27714   7.733  18.659   3.391 -0.1723 -0.0601 -0.0287
10868W        W27715  10.860  14.977  12.829 -0.0036 -0.3288  0.1670
10869W        W27716  12.043  18.433  13.698  0.0274  0.0769 -0.2305
10870W        W27717  12.313   2.431   1.069  0.3333 -0.0863 -0.1233
10871W        W27718  17.295  14.530   1.871  0.0505 -0.2936  0.0094
10872W        W27719  18.019  18.962   4.143 -0.4172  0.2321 -0.2092
10873W        W27720   3.465   8.566   2.665 -0.1002 -0.0092  0.3069
10874W        W27721   7.235   1.378   4.426 -0.1497 -0.1889 -0.2954
10875W        W27722   0.702   0.286   5.089  0.0264  0.0071  0.1041
10876W        W27723  17.206   3.313   0.914  0.1282 -0.1839 -0.2773
10877W        W27724  13.260  16.348   1.396 -0.0087  0.0442 -0.2116
10878W        W27725  17.493   1.805   0.433  0.1767 -0.0153  0.0531
10879W        W27726  11.579   1.992  14.515 -0.2245  0.3101  0.2843
10880W        W27727  16.870  15.549  12.065  0.1299  0.4038  0.2608
10881W        W27728  19.123   4.758  10.740 -0.1894  0.0361  0.0829
10882W        W27729  14.124   5.846   2.574  0.5694  0.1051 -0.6104
10883W        W27730   4.522  14.128   0.628  0.1655 -0.0027 -0.3054
10884W        W27731   0.201   2.567  11.670  0.0178 -0.0542 -0.2906
10885W        W27732   1.690  19.146   0.607 -0.0857 -0.0562  0.0701
10886W        W27733  11.146  14.825  11.107  0.1128  0.3086  0.2889
10887W        W27734  17.493   4.050   0.937  0.0506  0.1191 -0.0829
10888W        W27735   2.246   5.792  14.335  0.0161  0.0900  0.1637
10889W        W27736  18.046   9.410  13.664  0.0671  0.3746  0.1337
10890W        W27737   2.712  13.685  10.606 -0.2716 -0.2417 -0.2830
10891W        W27738  15.371   3.917   4.458 -0.0778 -0.2785  0.0113
10892W        W27739   5.339   5.416  14.154  0.1795 -0.2208  0.2265
10893W        W27740   1.470   9.462   2.358  0.0844 -0.1944  0.1161
10894W        W27741   5.112  12.769  10.586 -0.0338 -0.0547 -0.1683
10895W        W27742  19.161   4.826   2.972  0.0386 -0.1654  0.2265
10896W        W27743   1.945   6.059   2.140  0.1073 -0.1158  0.0070
10897W        W27744   2.533  17.894   0.720  0.3488  0.0135  0.1195
10898W        W27745  10.375   6.518   2.361 -0.1548 -0.2052  0.0218
10899W        W27746  18.124  11.065  12.871 -0.4660  0.0346 -0.0458
10900W        W27747  14.401  17.443  12.428 -0.1562  0.0765 -0.0332
10901W        W27748   2.382   8.227  14.513 -0.0700  0.3844 -0.3196
10902W        W27749  15.811  17.510  12.079 -0.1325  0.0601 -0.0677
10903W        W27750  11.318  11.581  11.365 -0.3204  0.3225  0.1126
10904W        W27751  16.366  12.971   2.646 -0.5324 -0.2135 -0.2130
10905W        W27752   5.705  17.698  12.314 -0.1069  0.2880 -0.1733
10906W        W27753  19.623  16.354  13.463 -0.3445  0.1136  0.2123
10907W        W27754   9.934  19.190  12.715  0.1389 -0.1569 -0.0711
10908W        W27755  13.577  12.700   0.559 -0.1269  0.1857 -0.0177
10909W        W27756  17.697   4.529   3.920 -0.0463 -0.1192  0.0079
10910W        W27757   2.449  11.913   1.667 -0.0498  0.0448 -0.3984
10911W        W27758   7.618  15.759   1.154 -0.3845  0.2660  0.3524
10912W        W27759   3.736  10.057  14.371 -0.0240 -0.1488  0.1065
10913W        W27760   0.130   6.496  13.987  0.2379 -0.0524  0.0468
10914W        W27761   8.293   1.063  13.888 -0.0654 -0.0613 -0.1561
10915W        W27762   4.831  11.027  14.612  0.0521 -0.0812  0.0224
10916W        W27763  18.499  11.619  10.426 -0.1783  0.2954 -0.2744
10917W        W27764   8.298   0.606  13.016 -0.1830 -0.0597 -0.1550
10918W        W27765   1.766  19.593  10.387  0.1580 -0.3116 -0.0659
10919W        W27766   4.416  16.737   1.565  0.2044  0.1372 -0.1399
10920W        W27767   3.196   4.700  11.614  0.1035  0.0758 -0.0685
10921W        W27768   7.711  13.672  11.509 -0.2853  0.0017  0.3141
10922W        W27769  15.463   3.086  14.464 -0.1696  0.0255  0.1007
10923W        W27770  19.288  17.265   1.960  0.0250 -0.4633 -0.0672
10924W        W27771   3.481   8.549   1.684 -0.2995  0.0151 -0.1555
10925W        W27772  16.441   2.022   2.490 -0.0483 -0.0246 -0.1594
10926W        W27773  12.543   3.504   1.796  0.1086 -0.4627  0.0708
10927W        W27774  14.531  11.118   2.052  0.0082  0.1415 -0.2056
10928W        W27775   0.171  10.675   3.239  0.2963 -0.1043 -0.1327
10929W        W27776  17.322  16.283  13.857 -0.0251  0.2658 -0.1594
10930W        W27777  15.695  11.295   3.571 -0.3754  0.2130  0.5150
10931W        W27778   3.554  10.405   5.313  0.0174  0.1009 -0.1692
10932W        W27779  12.891  13.239  13.275  0.0347  0.0747  0.0554
10933W        W27780   4.294   9.226   4.814 -0.0643  0.1389  0.0378
10934W        W27781   3.386  14.639   9.007 -0.1508  0.4225  0.3154
10935W        W27782  18.651   8.562   2.254 -0.0728  0.0158 -0.3999
10936W        W27783  16.172   3.219  13.997  0.1505 -0.0233 -0.0274
10937W        W27784  17.539  12.347   2.411  0.2411  0.1372  0.1921
10938W        W27785   8.806   0.878   0.616  0.2713  0.0963 -0.2248
10939W        W27786  16.907  17.974   2.089 -0.1311  0.1717  0.1507
10940W        W27787  18.759  17.840  13.074 -0.2009 -0.3383  0.2623
10941W        W27788  12.839  12.305   3.469 -0.2027  0.0599 -0.0189
10942W        W27789  12.426  16.344   3.002 -0.1687  0.3438  0.0381
10943W        W27790   5.430  16.323   9.061  0.1262 -0.0245 -0.1388
10944W        W27791   1.495   8.315  13.508  0.1266 -0.0901  0.0206
10945W        W27792   4.731  17.143  12.610  0.0153 -0.0057  0.0250
10946W        W27793  15.706  11.823  13.235  0.0375 -0.1802 -0.0389
10947W        W27794  11.779  12.176   4.408 -0.1530  0.2364  0.0268
10948W        W27795   1.081   6.837   3.886 -0.2370  0.0743  0.4721
10949W        W27796   4.530   0.239  12.205 -0.1557  0.1046 -0.2092
10950W        W27797   5.542   9.852   0.505  0.0591 -0.0330 -0.0629
10951W        W27798   2.012   7.489   1.497  0.1100  0.0490 -0.1714
10952W        W27799  11.321  18.190  14.546 -0.1643  0.0171  0.0463
10953W        W27800  15.444  17.516  13.698 -0.0336 -0.1959 -0.1356
10954W        W27801   8.136   9.148   2.765 -0.0425 -0.0888 -0.3317
10955W        W27802   3.827  13.921  12.372 -0.1617 -0.0004  0.3976
10956W        W27803  18.543   4.494   1.248  0.1190 -0.0205 -0.1613
10957W        W27804  11.529  11.362   3.441  0.0011 -0.0110  0.0317
10958W        W27805   4.608  18.170   0.051  0.0066  0.0448  0.0518
10959W        W27806  19.150   7.328  10.008 -0.2075 -0.0149  0.0445
10960W        W27807   0.666   6.429   2.029 -0.0919  0.2437  0.1042
10961W        W27808  10.150   0.828  12.612  0.1292 -0.0832 -0.4086
10962W        W27809  14.869  11.134  12.005  0.0514 -0.4264  0.2142
10963W        W27810   4.596   2.916  12.196 -0.4079  0.3333  0.3672
10964W        W27811   2.081   5.018   3.088  0.0943 -0.1515  0.0190
10965W        W27812   9.189   1.067   0.019  0.2217 -0.2017 -0.0638
10966W        W27813   8.913   2.166  13.375  0.0099 -0.1041 -0.1505
10967W        W27814  18.020  11.788   3.578  0.2536 -0.0457 -0.0583
10968W        W27815  17.768  13.471  12.043  0.1161  0.1072 -0.1069
10969W        W27816   1.092  10.783  11.538 -0.1513 -0.2098 -0.0353
10970W        W27817   7.479  14.314   3.628 -0.0994 -0.0898 -0.2118
10971W        W27818   6.459   5.002   3.160 -0.0606 -0.0926  0.0011
10972W        W27819  15.861   0.952   4.310 -0.0457  0.0213 -0.0808
10973W        W27820   0.284  12.259  10.504 -0.1629 -0.2460  0.0200
10974W        W27821  17.415  17.904   0.110  0.0457 -0.1678  0.0229
10975W        W27822   1.941   5.957  11.661 -0.2680  0.2973 -0.0021
10976W        W27823   4.050  12.644  10.754  0.0920  0.1376 -0.0485
10977W        W27824   2.794  16.953  13.896  0.1554  0.1794  0.0481
10978W        W27825   8.417   3.398   5.530 -0.2424  0.2356  0.2777
10979W        W27826   0.234   7.897   1.784 -0.3250 -0.3328  0.2116
10980W        W27827  13.703  18.230  12.126  0.1421  0.2007  0.1603
10981W        W27828   1.361  18.598   2.226 -0.2414  0.2195  0.0401
10982W        W27829  13.663   9.928  14.554  0.0052  0.2694  0.0130
10983W        W27830   7.146   7.804   2.012  0.2306  0.1774  0.2767
10984W        W27831   6.130   5.624   4.706  0.0940 -0.0196 -0.1772
10985W        W27832  16.469  17.745  13.338  0.1228  0.1021 -0.1453
10986W        W27833   1.408  13.512  11.481 -0.0783  0.1566 -0.0209
10987W        W27834   9.554  19.341  10.864 -0.2915 -0.4747  0.2585
10988W        W27835   2.392  18.319  12.003 -0.2745  0.2769 -0.1766
10989W        W27836  12.256   0.184  10.731 -0.0013  0.2582  0.1847
10990W        W27837   9.198  11.505   1.126  0.0832  0.0057 -0.0148
10991W        W27838  16.018   4.866  12.457 -0.0038 -0.1059  0.1397
10992W        W27839   4.129  11.484   4.855  0.0252  0.0592 -0.1704
10993W        W27840   3.215   0.517   4.274  0.3338  0.1629  0.0212
10994W        W27841   9.540   2.853   4.490  0.0103 -0.1381 -0.0168
10995W        W27842  11.171   2.587   3.195 -0.1650  0.3329  0.0071
10996W        W27843   9.295   1.770   2.848 -0.0724 -0.0777  0.0829
10997W        W27844   3.219   3.806   4.510  0.2791 -0.0798 -0.1589
10998W        W27845   4.880  11.993  10.051  0.0566 -0.2799 -0.1580
10999W        W27846  16.765   8.225   3.915  0.1301 -0.2121 -0.0925
11000W        W27847   6.158   3.104   0.207 -0.0320  0.1673 -0.0674
11001W        W27848  14.446   5.408   5.577  0.0296 -0.0528 -0.1509
11002W        W27849  11.100   8.982   0.228 -0.1168 -0.1607 -0.3002
11003W        W27850   7.655   2.003   4.272  0.2733  0.1344 -0.0801
11004W        W27851  14.771  17.489  11.678 -0.0980  0.1141  0.1994
11005W        W27852   5.909  13.793  10.223  0.0704 -0.3557  0.2335
11006W        W27853  19.176   2.299   0.461 -0.0654 -0.0305 -0.4686
11007W        W27854  12.820  18.035   1.216  0.2725  0.1721 -0.0632
11008W        W27855   7.569  14.297  14.164  0.1476  0.2205  0.0952
11009W        W27856  12.574   7.671   1.479  0.2043 -0.2838  0.0971
11010W        W27857  16.604   0.765   0.418  0.0156 -0.0515 -0.2775
11011W        W27858   3.011   2.316   0.733  0.3428 -0.0505  0.0101
11012W        W27859  13.325   7.781  12.463  0.0903  0.1349  0.0310
11013W        W27860   7.922  12.182   1.348 -0.2150 -0.1337  0.0460
11014W        W27861   9.051   7.443  12.400  0.2668  0.2237  0.3220
11015W        W27862   4.621   8.859   9.357  0.3221  0.0358  0.0720
11016W        W27863   0.122  19.429  11.655  0.2045 -0.3422  0.1309
11017W        W27864  19.133  17.398  11.077  0.0664  0.1516 -0.2704
11018W        W27865   9.457   1.140  12.070 -0.0691 -0.1249 -0.1144
11019W        W27866   2.796   3.579  12.863 -0.2917 -0.1277 -0.1267
11020W        W27867   8.446  18.099  11.350  0.1748  0.1736  0.1132
11021W        W27868  15.328   9.495   2.665  0.0675  0.0322 -0.2066
11022W        W27869  19.084  12.798  10.376 -0.2040 -0.2589  0.0027
11023W        W27870   1.897  18.514  13.530  0.2328  0.0465 -0.0612
11024W        W27871   7.151   1.837   4.213 -0.2030  0.3015  0.1751
11025W        W27872   7.662  14.641  12.775  0.2303 -0.2437  0.1652
11026W        W27873   7.422   0.266   0.895  0.1601 -0.0179  0.4538
11027W        W27874   0.181  17.337  10.439 -0.0466  0.0116 -0.0879
11028W        W27875   0.249   8.564  12.406  0.1069 -0.1109 -0.1018
11029W        W27876   7.235   0.897   9.221  0.3652 -0.0501  0.0548
11030W        W27877  19.146   6.915  11.472  0.3952 -0.1443  0.1473
11031W        W27878  18.752  14.213   0.135  0.2041 -0.0526 -0.0824
11032W        W27879  10.861   9.625  12.699  0.0554  0.1321  0.0149
11033W        W27880  17.583   7.590  13.503  0.0030  0.3384 -0.0972
11034W        W27881  18.148  15.246   3.921  0.0122 -0.0746 -0.3021
11035W        W27882   0.192   5.089   0.454 -0.1767 -0.0068 -0.0723
11036W        W27883   5.470   6.218  12.211  0.0132 -0.0285  0.0402
11037W        W27884   5.816  17.934  11.074  0.1011 -0.1291 -0.2725
11038W        W27885  13.821  12.313   4.257 -0.2098  0.0275  0.2575
11039W        W27886  12.943  10.029  12.429 -0.0648 -0.3125  0.3266
11040W        W27887  14.169  18.935   2.052 -0.1232 -0.1096 -0.2507
11041W        W27888  18.445  16.652   3.382  0.0322 -0.0050  0.1549
11042W        W27889   6.060   5.381  11.448 -0.1924  0.0682 -0.1455
11043W        W27890  12.552   8.137  10.761  0.1526 -0.0259  0.1742
11044W        W27891   6.765  12.481  10.981  0.1910 -0.0290 -0.0276
11045W        W27892  18.516  10.820   0.740  0.2228 -0.2069  0.2163
11046W        W27893   3.265  14.862   3.962 -0.0555 -0.1819  0.2067
11047W        W27894   4.301  11.095  14.336 -0.0798  0.1082 -0.1086
11048W        W27895  14.971  14.099   8.780  0.1687  0.2587 -0.2233
11049W        W27896  13.108   7.927   4.366 -0.0436  0.1700  0.1014
11050W        W27897  11.904   6.085  13.153 -0.0498 -0.2362 -0.1016
11051W        W27898  13.645  12.730  14.392  0.1837 -0.1831 -0.4075
11052W        W27899   4.713  13.673  11.636  0.1403 -0.3410 -0.1018
11053W        W27900   1.164  14.814   4.356 -0.0556  0.0953  0.1886
11054W        W27901   0.310  10.225   3.284  0.1715  0.1823 -0.2568
11055W        W27902   4.153   8.753   9.401  0.0121  0.1446  0.0335
11056W        W27903   8.225  19.025  13.217  0.0019  0.0512 -0.5197
11057W        W27904  10.094   2.179   1.441  0.3946  0.3343  0.1681
11058W        W27905   4.399  17.109  13.571 -0.0370  0.2822 -0.2471
11059W        W27906  11.078  13.316   4.823 -0.1322 -0.0016  0.1865
11060W        W27907  12.799  17.245  11.505 -0.0991  0.0708  0.2811
11061W        W27908   4.161  10.096  11.234  0.1478  0.0398 -0.1902
11062W        W27909  16.299   0.176   2.324  0.0549  0.3179  0.1037
11063W        W27910   4.564  19.571   3.848  0.1369  0.1015  0.0398
11064W        W27911  18.202   2.543   2.020  0.2246  0.1306  0.1490
11065W        W27912  15.248  11.416  10.794  0.0754 -0.5122 -0.1265
11066W        W27913  16.151  10.873  12.732 -0.0825  0.0543 -0.1889
11067W        W27914   8.130  15.213  12.932  0.0344  0.2002  0.1464
11068W        W27915  18.646   0.642   1.924  0.2429 -0.2246  0.3129
11069W        W27916   3.097   4.474   2.399 -0.0496 -0.3351 -0.2242
11070W        W27917  16.599   2.801   4.902  0.2815  0.0964 -0.1190
11071W        W27918   2.799  12.171   1.446 -0.0884  0.1931 -0.1336
11072W        W27919   9.706  18.121  14.331 -0.4386  0.2017  0.0126
11073W        W27920   9.049  13.880  11.204 -0.1253 -0.0467 -0.0123
11074W        W27921   5.362   3.808   4.471  0.1415  0.2939 -0.1096
11075W        W27922   8.257  14.731  13.674 -0.1616 -0.1602  0.0451
11076W        W27923  11.575   5.619   2.083 -0.1018  0.2403 -0.1831
11077W        W27924   7.925  12.950   4.785  0.1050  0.1456 -0.0429
11078W        W27925   2.197   1.395  12.677  0.0274  0.1778  0.2096
11079W        W27926  17.533   5.376   2.872 -0.3523 -0.3349  0.1582
11080W        W27927   4.633   1.142  10.715  0.3681  0.1499 -0.0765
11081W        W27928  10.432   0.345   1.355  0.1693 -0.1881  0.0139
11082W        W27929   4.750  13.427  12.076 -0.0580  0.0899 -0.2582
11083W        W27930  10.021   0.896   3.112 -0.1139  0.0798  0.3703
11084W        W27931   2.848  17.453  13.657 -0.0983  0.1117  0.1873
11085W        W27932   0.934  17.408   3.472  0.1393 -0.0979  0.1114
11086W        W27933   2.491  15.593  12.353 -0.0809  0.1352 -0.1512
11087W        W27934   6.618  17.109   1.089 -0.2141  0.0087 -0.0673
11088W        W27935   1.526   9.819  13.351 -0.0640  0.2273 -0.2419
11089W        W27936  15.677   8.265  10.755  0.3307 -0.3001  0.0767
11090W        W27937  11.620   8.381  11.025  0.3806  0.5394 -0.1706
11091W        W27938   0.191  16.755  13.189 -0.0959  0.1708  0.0413
11092W        W27939  15.046   3.733   9.445 -0.0883  0.3917  0.1703
11093W        W27940  16.953  10.033   2.953  0.1607 -0.3424  0.0491
11094W        W27941  14.077  12.870   1.364 -0.1624 -0.2128  0.0366
11095W        W27942   6.123  18.999  13.655 -0.2020 -0.0531 -0.0127
11096W        W27943   0.575   3.057   2.594 -0.0206  0.2408  0.0182
11097W        W27944  12.726  18.915  11.192 -0.1491  0.0751  0.0913
11098W        W27945  10.327   3.518   1.063 -0.3169  0.0212 -0.1962
11099W        W27946   3.496  16.497   4.048 -0.3259  0.3487 -0.0134
11100W        W27947  16.842  13.386   1.650 -0.2258  0.1851  0.0229
11101W        W27948   2.071  15.963  11.508  0.1569 -0.0220 -0.1684
11102W        W27949  12.478   1.756  13.541  0.1441  0.2449 -0.2415
11103W        W27950   1.824  10.293  11.202  0.0535 -0.0951 -0.1131
11104W        W27951  11.957   4.207  11.846  0.2360  0.2615  0.0405
11105W        W27952   1.472  19.528  12.314 -0.0963 -0.2723  0.1008
11106W        W27953  18.874   3.828  11.792  0.3218 -0.0158  0.0049
11107W        W27954   7.470  15.193  12.072 -0.1596  0.2022 -0.0264
11108W        W27955  11.040  15.930  14.129  0.0747 -0.1324 -0.0091
11109W        W27956   8.979  15.699  10.548 -0.1468 -0.1545 -0.0110
11110W        W27957  11.071   6.571   1.735 -0.2478 -0.0302  0.0234
11111W        W27958  18.808   5.662  11.032  0.1778 -0.2173 -0.0936
11112W        W27959   5.642   0.870  14.060 -0.3331  0.1578 -0.1348
11113W        W27960   4.445   4.479   3.291  0.2472 -0.0539 -0.2132
11114W        W27961  10.739  10.173   4.863  0.1865 -0.0330  0.0402
11115W        W27962   7.175  19.315   3.989 -0.1950 -0.1529 -0.1344
11116W        W27963   2.549   2.211   1.838  0.1057 -0.0419  0.0457
11117W        W27964  10.227  12.872  12.967 -0.0921 -0.0110  0.0523
11118W        W27965  13.117   5.651  12.185 -0.0302  0.1232 -0.1945
11119W        W27966   5.779  11.462   2.819 -0.1633 -0.0801  0.1332
11120W        W27967   1.858   0.443  13.952 -0.2033  0.0457 -0.2262
11121W        W27968  14.976   1.735   1.624  0.0367 -0.3631 -0.0988
11122W        W27969  18.497  11.173   4.436  0.1588 -0.0574  0.0291
11123W        W27970  10.613   3.803   1.943  0.2222 -0.1299 -0.4503
11124W        W27971  14.090   6.691  10.230 -0.0436  0.2306 -0.1001
11125W        W27972  18.373   3.419   4.705  0.0044  0.0213  0.0192
11126W        W27973   8.271  14.487  14.139 -0.2733 -0.4308  0.1765
11127W        W27974   0.711  13.556  12.828  0.1349 -0.0899  0.1230
11128W        W27975  11.158   4.874  12.911 -0.0430  0.0595 -0.1278
11129W        W27976   8.888  18.347   0.012 -0.1643 -0.1974 -0.2591
11130W        W27977  17.447   1.231  12.128 -0.1193 -0.3418 -0.0021
11131W        W27978  13.018  18.924   3.828  0.1152  0.0597  0.1483
11132W        W27979   8.926   7.819  10.236  0.1302 -0.0796 -0.1880
11133W        W27980  10.755   3.234   0.893 -0.1002 -0.0073 -0.3238
11134W        W27981  15.339   7.981   4.659  0.1267 -0.4901  0.0285
11135W        W27982   3.463  15.530  10.763  0.0824  0.0694  0.0456
11136W        W27983  18.299  10.029   5.154  0.2361 -0.2737 -0.2670
11137W        W27984  18.285   8.427   2.625 -0.2645  0.0777 -0.0549
11138W        W27985   5.814   9.047   1.938 -0.0684  0.0224 -0.1057
11139W        W27986   8.303   5.311   4.888  0.0467  0.1118 -0.0546
11140W        W27987  18.425  12.871  12.720  0.0570 -0.0894  0.1705
11141W        W27988   3.204  12.718  14.233 -0.2154  0.2023 -0.0458
11142W        W27989   6.355  17.780  12.849 -0.4542  0.0949 -0.3018
11143W        W27990  13.151  15.677  11.001 -0.0530 -0.3043  0.3164
11144W        W27991  13.754   0.384  12.262  0.5198 -0.0117  0.0646
11145W        W27992   7.501  16.484  10.906 -0.0933  0.0188  0.0326
11146W        W27993   6.919   7.734   4.030  0.3803  0.0875  0.2123
11147W        W27994   1.985  12.710  10.517 -0.0510 -0.0720  0.1164
11148W        W27995  17.555  16.608  12.557  0.1883 -0.2993  0.2083
11149W        W27996  13.021   6.363  10.080 -0.0216  0.1163 -0.1587
11150W        W27997   2.361   6.993   1.177 -0.4277 -0.1363 -0.0748
11151W        W27998   2.442   6.061  13.387  0.0036  0.3850  0.3318
11152W        W27999   8.062   2.995  14.066 -0.3223  0.2388 -0.0609
11153W        W28000  16.302   9.900  12.030 -0.0219  0.2713  0.1665
11154W        W28001   0.874  19.398  12.459 -0.0366  0.0041 -0.3041
11155W        W28002  16.046   4.536   0.862 -0.0724  0.1614 -0.0316
11156W        W28003  14.944  17.095  10.187  0.0212  0.2364 -0.2533
11157W        W28004  15.787  13.583  13.865 -0.0047  0.0754 -0.0639
11158W        W28005   4.122   3.575   2.874 -0.1133 -0.2704  0.1227
11159W        W28006   9.575  17.504   9.804  0.2968  0.0655 -0.1903
11160W        W28007   1.456   4.737   1.369  0.1235 -0.1579 -0.1647
11161W        W28008  13.446   7.534  11.957 -0.3072 -0.0142 -0.2380
11162W        W28009   9.996   5.007   5.182 -0.1714  0.0845 -0.0185
11163W        W28010   6.929   8.374  10.444 -0.5003  0.1644 -0.2531
11164W        W28011   5.037  18.599   4.168  0.1442 -0.3699 -0.3079
11165W        W28012   3.447   5.826  11.654 -0.2041 -0.2051  0.1984
11166W        W28013   1.930   4.801  12.885 -0.1186  0.0811  0.2843
11167W        W28014  17.802  17.038  11.772  0.0397  0.2552 -0.2327
11168W        W28015   7.788   3.263   1.102  0.2268 -0.0358  0.0579
11169W        W28016  11.213   6.673  12.923 -0.0181 -0.1045 -0.1053
11170W        W28017   5.608  11.225  13.642 -0.1923  0.3528 -0.0227
11171W        W28018   1.757   5.995  12.618  0.0198  0.0927 -0.1538
11172W        W28019  14.474   5.598   4.160 -0.2377  0.0911  0.1760
11173W        W28020  10.890   0.819  10.973 -0.0876 -0.1209 -0.3349
11174W        W28021  17.463   6.070  13.758 -0.3959 -0.0010 -0.0947
11175W        W28022   6.493   2.376  11.731  0.0939  0.1095 -0.0944
11176W        W28023  12.720  10.322   0.259 -0.4622 -0.3418  0.0296
11177W        W28024  17.356   0.050  13.577  0.1173  0.1539  0.0331
11178W        W28025   4.017   1.077   1.787 -0.0544 -0.1644 -0.1069
11179W        W28026  19.418  17.886  10.233 -0.0781  0.3445 -0.0974
11180W        W28027  16.818   2.341  14.095  0.0782  0.0437 -0.3651
11181W        W28028  16.673   1.607   2.680  0.1049  0.0124  0.3099
11182W        W28029  14.967  10.363  10.475  0.1255 -0.3079 -0.3184
11183W        W28030  15.977   7.860  13.361 -0.1701  0.1003  0.2788
11184W        W28031   7.669   0.541   4.382 -0.0992  0.3293 -0.1991
11185W        W28032  16.224  18.390   0.978  0.0511  0.2818 -0.1542
11186W        W28033   4.232   6.128   5.222 -0.0805  0.2611 -0.4296
11187W        W28034  16.770   6.240   3.242  0.3197  0.2497  0.2798
11188W        W28035  12.675   3.389   5.244 -0.0486 -0.0800  0.0565
11189W        W28036   4.310  11.628  14.116 -0.1791  0.0283 -0.1416
11190W        W28037  18.893  15.867  14.339  0.1035 -0.2973 -0.1231
11191W        W28038  10.921  16.101   1.369 -0.0770  0.1543 -0.2106
11192W        W28039   0.195  17.370   0.939  0.2967 -0.2090 -0.1586
11193W        W28040   9.379  14.866   1.028  0.1035 -0.1263  0.1294
11194W        W28041   4.224  10.066  11.706  0.1072  0.0364  0.1512
11195W        W28042  15.239  17.438   3.613  0.0879 -0.0372  0.1272
11196W        W28043   5.966  15.454  10.284  0.0031  0.0813  0.2486
11197W        W28044  12.874   7.435   3.602 -0.0633 -0.1479  0.1319
11198W        W28045  15.367  18.705  11.134 -0.1739  0.3480 -0.0307
11199W        W28046  16.786   1.066   4.467  0.2147  0.0677  0.0703
11200W        W28047  15.200   4.025   3.257  0.0348  0.0902 -0.1172
11201W        W28048   8.491   7.524  10.398  0.0394  0.0304  0.2202
11202W        W28049  11.477   3.778  14.103 -0.0509  0.1103 -0.0610
11203W        W28050   1.687   1.241   0.500  0.0341 -0.0612 -0.1092
11204W        W28051  17.420   4.577   0.994  0.3788  0.2556 -0.0854
11205W        W28052  10.693  14.715  11.106  0.0797 -0.1138  0.0399
11206W        W28053  10.577   3.701   0.535  0.1602 -0.0388  0.2482
11207W        W28054   7.111  18.316  11.245  0.2601  0.0358  0.1077
11208W        W28055   9.151  10.674   4.027 -0.1775  0.1632 -0.2829
11209W        W28056   6.288  10.883  12.096  0.0291 -0.0238 -0.0298
11210W        W28057   3.734   3.521  14.480  0.0001  0.0701 -0.1040
11211W        W28058   4.797  11.508  14.277 -0.2624 -0.2747  0.0122
11212W        W28059  12.329  13.076   0.485 -0.1454  0.0382 -0.2462
11213W        W28060  12.119   2.103  13.332 -0.1639 -0.0499 -0.0654
11214W        W28061  12.306  16.541   4.186  0.1883  0.1095 -0.1873
11215W        W28062  11.495  15.441  11.801 -0.4584  0.0750  0.0635
11216W        W28063   7.605  15.392   3.282  0.0189 -0.0688 -0.0351
11217W        W28064  14.971  12.866   9.522 -0.2839 -0.1431  0.0437
11218W        W28065  16.222   2.439   1.644 -0.0073 -0.1356  0.0914
11219W        W28066   8.208   3.647  12.888  0.2437  0.3537 -0.0470
11220W        W28067  16.329   7.409   3.070  0.1718 -0.0925  0.1471
11221W        W28068   6.889   0.613   0.708 -0.2603  0.0653  0.2233
11222W        W28069   1.265  18.554  13.652  0.2540  0.2387 -0.2120
11223W        W28070   7.467   3.248  10.317 -0.1115  0.3056  0.0903
11224W        W28071  11.954  18.141   3.573 -0.3793  0.3877  0.3544
11225W        W28072  15.472  14.206   2.797 -0.3356 -0.1932  0.2060
11226W        W28073  14.806   4.665  13.045  0.0858  0.1851  0.0473
11227W        W28074   7.385  16.264   0.095  0.1114  0.1618 -0.0015
11228W        W28075  11.216   5.416  12.335  0.5110 -0.1890 -0.0786
11229W        W28076  14.166  15.940  11.411 -0.0955  0.2498  0.0068
11230W        W28077  18.311  10.787   3.516 -0.2200  0.0162 -0.2660
11231W        W28078   6.110   4.032  13.468 -0.1234 -0.1484 -0.0640
11232W        W28079   8.380  11.207  14.113  0.0159  0.1548 -0.2032
11233W        W28080  17.217   9.768   1.912 -0.0368 -0.0809  0.3066
11234W        W28081   3.453   1.583  11.108 -0.0642  0.1491 -0.0366
11235W        W28082   0.604   6.606  14.283 -0.3330 -0.0721 -0.0929
11236W        W28083   7.111  16.375  11.702  0.0524  0.2615 -0.5040
11237W        W28084  14.507   8.432   9.738  0.0453 -0.0368  0.0640
11238W        W28085   5.272  13.543   4.608 -0.0957 -0.1884  0.0002
11239W        W28086  12.668   9.127   4.356  0.0290  0.0024 -0.3958
11240W        W28087  12.868  18.713   1.125 -0.0236 -0.0400  0.0368
11241W        W28088  15.208  13.490   1.682  0.1697 -0.1239 -0.0525
11242W        W28089  17.219  18.189  13.372 -0.0202  0.0709  0.2062
11243W        W28090   2.830  10.381   1.178  0.2044 -0.1374 -0.3422
11244W        W28091   8.635   4.768  13.613 -0.3135 -0.1701 -0.0088
11245W        W28092   7.440  10.864   1.281  0.1152  0.0085 -0.2509
11246W        W28093   4.015  12.957  14.082  0.0004  0.1775  0.0608
11247W        W28094   7.809   3.748   0.936 -0.0248 -0.1594  0.1028
11248W        W28095  18.999  15.710  10.414 -0.1519 -0.0243  0.3747
11249W        W28096   2.327   8.005  11.648 -0.0125 -0.0403 -0.2382
11250W        W28097   4.287  16.462   0.194  0.3525 -0.0203  0.3225
11251W        W28098   1.746   7.117   3.409  0.0096  0.2249  0.3484
11252W        W28099  12.078   4.864  13.379  0.1036 -0.0065  0.5318
11253W        W28100  10.156  10.900   1.941  0.1382  0.2361  0.1911
11254W        W28101   9.859   3.672   1.597  0.0947  0.2805 -0.2396
11255W        W28102  14.081   1.152   0.024  0.0001 -0.0885  0.1318
11256W        W28103  12.838   8.986   2.054 -0.2249 -0.1970  0.4456
11257W        W28104  15.172   5.524  12.767  0.1099 -0.0181 -0.1762
11258W        W28105   7.678  14.137  12.447  0.2060 -0.0140 -0.0831
11259W        W28106   4.930  12.830   4.058 -0.0915 -0.0142  0.0118
11260W        W28107   7.816  11.820   3.740 -0.0241 -0.1003  0.1133
11261W        W28108  13.839  18.596  11.660  0.1122 -0.0198 -0.0773
11262W        W28109   4.058   2.455   0.763 -0.0611 -0.0186 -0.1662
11263W        W28110   0.987   6.120   0.682  0.1359 -0.2060 -0.1431
11264W        W28111   7.269  14.563   4.153 -0.0487 -0.1711 -0.2179
11265W        W28112   4.269  17.724   3.902  0.5560  0.0166 -0.3707
11266W        W28113   7.904  11.496   1.993 -0.0648 -0.0304 -0.1923
11267W        W28114  11.433   3.056  11.220  0.0094  0.0201 -0.4483
11268W        W28115  19.458   3.865  10.079 -0.3453 -0.0205  0.0151
11269W        W28116   3.519   5.279  11.005 -0.2335  0.1306  0.2494
11270W        W28117   7.889  16.337  13.940 -0.1085  0.0969  0.0423
11271W        W28118   9.646  13.068   4.303 -0.1530 -0.1395 -0.0395
11272W        W28119  11.211   2.129  12.686  0.2988 -0.0532 -0.2891
11273W        W28120  10.642  15.882  12.333  0.0315  0.1855 -0.1548
11274W        W28121   3.856  14.841   2.133  0.0004  0.1805 -0.1512
11275W        W28122  13.094   0.193   4.238 -0.0715 -0.1238  0.1815
11276W        W28123   4.666   5.769   4.451 -0.2304  0.0450 -0.1401
11277W        W28124  19.388   9.200   1.653 -0.3156 -0.0607  0.1930
11278W        W28125   1.747   9.188   0.561  0.0894 -0.1954 -0.4323
11279W        W28126  12.017   5.517  14.565 -0.0084  0.1096 -0.1534
11280W        W28127  17.804   9.220   5.398  0.2763  0.3034 -0.0542
11281W        W28128   2.553  15.586  10.178  0.0341 -0.2258  0.1427
11282W        W28129   6.674  12.402   1.940 -0.0337  0.1681  0.1433
11283W        W28130  13.762  19.411   2.908  0.0594  0.1966  0.3657
11284W        W28131  18.719  14.684   9.978 -0.0581  0.0093  0.0350
11285W        W28132   9.193   7.980   3.265 -0.0172 -0.1338 -0.3843
11286W        W28133   6.589  19.504  11.782 -0.0136  0.0086  0.1972
11287W        W28134   4.174   8.088  14.130 -0.0770 -0.2676  0.1528
11288W        W28135   2.575   8.147  11.062  0.0060  0.2085 -0.4144
11289W        W28136   3.239   4.836  12.918 -0.1684 -0.2135  0.6621
11290W        W28137   7.151   6.004   2.386  0.0709 -0.0742 -0.2729
11291W        W28138   3.984   9.946   9.964 -0.0323 -0.1600  0.0460
11292W        W28139   3.967   4.786  10.989  0.1933  0.0175 -0.2789
11293W        W28140   6.907   4.747   5.127 -0.1087 -0.3386 -0.0676
11294W        W28141  16.164   7.540   3.507  0.1691 -0.1945 -0.1259
11295W        W28142   5.383  17.488  10.341 -0.1340 -0.1717 -0.3685
11296W        W28143  14.717  10.310  14.117  0.1142 -0.1650  0.4250
11297W        W28144  15.486   7.929  14.168  0.1439  0.1586  0.0196
11298W        W28145   5.468   1.850   5.327  0.1676 -0.0282 -0.0381
11299W        W28146   3.164  18.803  12.868  0.0673  0.1456  0.3812
11300W        W28147  15.835   1.166  12.501 -0.2748  0.0727 -0.1133
11301W        W28148   2.774  13.417   4.280 -0.2404  0.3768 -0.0083
11302W        W28149   8.156   8.468   1.198 -0.2939 -0.0223  0.0017
11303W        W28150   7.736   6.776   2.054  0.1508 -0.0542  0.0049
11304W        W28151   6.178   3.974   5.567  0.1850  0.0783  0.2558
11305W        W28152   6.653  17.965   1.399 -0.0208  0.0747 -0.1137
11306W        W28153  19.173   0.767   4.475  0.1382 -0.1134  0.0986
11307W        W28154   1.672   9.858   3.764  0.2538  0.0173  0.2175
11308W        W28155   0.130   2.517   1.322 -0.0953 -0.2578  0.2120
11309W        W28156  10.678   8.687   2.400 -0.0830  0.0586 -0.2957
11310W        W28157  12.353   1.699   0.416 -0.2314 -0.0239  0.1128
11311W        W28158  13.075  17.657   5.088 -0.0407  0.1138 -0.0824
11312W        W28159   3.628  16.592   2.324 -0.0236 -0.0338  0.0965
11313W        W28160   0.075   4.323  13.141  0.2541 -0.0764 -0.0363
11314W        W28161  18.594  18.916  11.056 -0.1176 -0.2891  0.1366
11315W        W28162  13.339  14.801   0.464  0.3503 -0.1382 -0.0820
11316W        W28163   8.483   2.787  13.141 -0.2867  0.1694  0.0435
11317W        W28164   9.998  11.581   0.398  0.1648  0.0360  0.0320
11318W        W28165  14.112  11.607  13.044  0.0365  0.1518 -0.2445
11319W        W28166  11.873  13.514  12.302 -0.0251  0.0905  0.2878
11320W        W28167   2.794   3.823  14.311  0.1423 -0.5730  0.0284
11321W        W28168   4.305   4.036  14.015  0.3485  0.0561  0.1073
11322W        W28169   3.400  13.904   1.115 -0.0542 -0.1039 -0.1612
11323W        W28170   5.539  19.573   0.792  0.0683 -0.0770 -0.1850
11324W        W28171  11.761  11.773   5.741 -0.2654  0.1113 -0.0861
11325W        W28172   1.365  17.750   3.407  0.2459  0.0104  0.0690
11326W        W28173   2.125   1.271   1.107  0.1244  0.1108 -0.1404
11327W        W28174   2.980   0.876  14.310 -0.1648  0.0757 -0.1999
11328W        W28175  17.425   6.289  10.578 -0.2491  0.0277 -0.0293
11329W        W28176   2.512   2.310   4.787 -0.0363 -0.0374  0.1577
11330W        W28177  16.140  15.334   0.588  0.3029  0.0158  0.0954
11331W        W28178  14.705   6.796   0.508 -0.1398  0.1154 -0.1593
11332W        W28179   7.212  13.305   1.892 -0.2667 -0.0240  0.3508
11333W        W28180   4.686   9.499   9.956 -0.0637 -0.4156  0.1464
11334W        W28181  18.896  17.486   0.428  0.0326  0.2596  0.0390
11335W        W28182   4.628   7.803  11.766  0.1960 -0.0145 -0.0392
11336W        W28183  17.606  13.117  11.163  0.0464 -0.1146  0.0231
11337W        W28184   1.616   9.301   5.251 -0.0640 -0.0817 -0.3191
11338W        W28185  18.681   8.247  13.131  0.2546  0.0525 -0.0645
11339W        W28186   3.854  13.851   1.354  0.3533  0.3336  0.2694
11340W        W28187  11.755  14.481   0.167  0.2101 -0.1507 -0.1671
11341W        W28188   3.554   5.782   4.365  0.1077  0.1844 -0.1863
11342W        W28189  16.734   7.123  12.549  0.1149  0.0426 -0.2961
11343W        W28190   4.472  14.227   4.292  0.1912  0.0643  0.2988
11344W        W28191   6.547  13.364  13.054  0.1696  0.2331  0.3261
11345W        W28192   2.872   0.139  11.050 -0.1751  0.2786  0.1700
11346W        W28193  14.828   8.490   0.801  0.2882  0.2302 -0.4089
11347W        W28194   1.784   7.806   3.969 -0.0375 -0.2638 -0.2519
11348W        W28195   0.182   2.646  10.452 -0.2380  0.0288  0.0117
11349W        W28196   7.754  13.320   4.030 -0.0841  0.0341  0.1608
11350W        W28197   2.939   5.628  11.549 -0.1038 -0.3240 -0.0919
11351W        W28198   0.346   5.454   1.190 -0.1644  0.7050 -0.3479
11352W        W28199   2.917  17.136  14.409  0.2484  0.3454  0.0190
11353W        W28200   9.498   4.819  13.456 -0.1635  0.0707 -0.3350
11354W        W28201  14.022  14.381   2.059  0.1014  0.2513 -0.3029
11355W        W28202  17.752  14.371  12.374  0.3005  0.0135  0.1741
11356W        W28203  13.345  13.697  13.114 -0.6892 -0.1049 -0.0483
11357W        W28204  13.858   4.922   3.957 -0.0934 -0.1827 -0.0689
11358W        W28205   6.974  17.070  12.368  0.1954 -0.1767  0.0866
11359W        W28206   4.475  19.526  13.378 -0.2995  0.2577  0.1568
11360W        W28207  14.034   9.837  14.090  0.0994  0.0793 -0.1489
11361W        W28208   5.261   9.601   3.412  0.1412  0.2024 -0.4078
11362W        W28209  18.414  17.145   2.679  0.3268 -0.3067 -0.0471
11363W        W28210  15.912   0.789   1.259 -0.2246  0.0862 -0.1856
11364W        W28211  12.131  15.671   1.394 -0.2511  0.0304 -0.2539
11365W        W28212  16.147  12.410   1.452  0.1016  0.0043  0.0034
11366W        W28213  16.391  12.891   0.338  0.0898  0.3689 -0.4913
11367W        W28214   7.343  15.199   9.950  0.3813  0.1281 -0.0985
11368W        W28215   3.932  13.927   3.049 -0.3444  0.2250  0.1768
11369W        W28216   8.186  12.866   0.905  0.0391  0.1132 -0.0710
11370W        W28217  12.968  13.491  12.762 -0.1862 -0.2540  0.0605
11371W        W28218  16.318  17.410   4.683  0.2262  0.0087  0.2116
11372W        W28219   6.505   4.310   0.986 -0.0038  0.3265  0.0661
11373W        W28220   0.979   7.001  12.490 -0.0258 -0.1459 -0.1927
11374W        W28221  17.499   2.647   1.944  0.1759  0.3315 -0.0585
11375W        W28222   4.370  16.474  14.176 -0.0340  0.2245  0.0244
11376W        W28223  17.793  16.016  10.017 -0.1548 -0.1544 -0.3966
11377W        W28224  19.303   1.273   3.376 -0.0865 -0.0573 -0.0953
11378W        W28225   9.218   6.638   0.468 -0.2164 -0.2912  0.1271
11379W        W28226  18.745   9.141  14.257 -0.2071 -0.1074 -0.1141
11380W        W28227   4.247  11.973   2.248 -0.3385 -0.0014 -0.0935
11381W        W28228   4.311  16.501   0.715 -0.0086  0.0837  0.3377
11382W        W28229  16.704  17.411   2.494 -0.3147  0.3707  0.1187
11383W        W28230   0.642   4.308   3.470 -0.2591  0.3286 -0.0448
11384W        W28231  17.439  19.453   0.659 -0.0117  0.0799 -0.2118
11385W        W28232   5.110   8.958   0.682 -0.0547 -0.1501  0.0437
11386W        W28233  12.513  15.432  11.110  0.2449 -0.0743 -0.0917
11387W        W28234  12.341   4.132  14.043 -0.1374 -0.2147 -0.1114
11388W        W28235   2.570   0.056  12.889 -0.0563 -0.0918 -0.0088
11389W        W28236   9.802  12.029  14.422 -0.0103 -0.1028 -0.1149
11390W        W28237   6.625   0.827   3.941  0.0717  0.0562 -0.3396
11391W        W28238   2.576  12.519   2.742  0.1552  0.3333 -0.2143
11392W        W28239   9.048   1.034  10.557 -0.4172  0.0238  0.0058
11393W        W28240  13.932   6.795   4.428  0.4161  0.1303  0.1098
11394W        W28241  14.508  13.200  12.563 -0.2529  0.0747  0.0611
11395W        W28242   6.822   7.461  11.219 -0.0746 -0.0329 -0.0274
11396W        W28243  18.846   1.458   3.519 -0.1229  0.0414 -0.3726
11397W        W28244  11.710  17.673   4.745  0.0095  0.1668  0.0979
11398W        W28245  14.246  18.773   0.994 -0.3824 -0.1177  0.3115
11399W        W28246   8.502  16.547   4.407  0.0144 -0.1991  0.1059
11400W        W28247   6.045   9.231   3.230  0.0772 -0.0588  0.1400
11401W        W28248   1.135   5.921   2.630  0.2316  0.0022 -0.0512
11402W        W28249  18.973   5.693   2.742 -0.2609 -0.0770 -0.0281
11403W        W28250   9.029   4.853   5.440 -0.2467 -0.0981  0.0998
11404W        W28251  19.355  15.728   3.585 -0.2692  0.0510  0.0576
11405W        W28252   4.941   9.303  11.372 -0.2041  0.0252 -0.4175
11406W        W28253   4.530   4.572  12.667 -0.0005 -0.2066 -0.2530
11407W        W28254   6.932   8.039  11.350 -0.2875  0.0988 -0.1196
11408W        W28255   1.579   6.543   0.821 -0.0010  0.1134  0.1566
11409W        W28256   7.128  16.686   0.063 -0.2390 -0.1025 -0.2597
11410W        W28257   3.219   2.595   1.068 -0.1240 -0.2288  0.0862
11411W        W28258  15.536   7.304   1.605 -0.1647  0.1609  0.0951
11412W        W28259   9.665  15.208  10.106  0.1956 -0.4085  0.1965
11413W        W28260  14.189  18.237   3.190 -0.0707  0.1441 -0.0472
11414W        W28261   6.638   1.719   9.504  0.1010 -0.1005 -0.0620
11415W        W28262  16.595   1.740   4.390  0.0249 -0.1988  0.1448
11416W        W28263  16.038  13.232   4.238  0.0571 -0.1657  0.0016
11417W        W28264  16.425   1.878  13.486  0.0124 -0.1977  0.2761
11418W        W28265   4.365   3.352  14.483 -0.1873 -0.0721 -0.1080
11419W        W28266   6.937   2.125   0.782  0.0409 -0.2091 -0.0639
11420W        W28267  14.658   6.949  10.810  0.1099 -0.2148 -0.1553
11421W        W28268   0.810  10.288  12.761  0.0791 -0.1006  0.1355
11422W        W28269  14.067  14.908  11.296 -0.1251  0.2059 -0.0381
11423W        W28270  17.833   7.637   3.730 -0.1277 -0.4157 -0.1020
11424W        W28271  19.112   9.999  10.218 -0.2238 -0.1560 -0.2934
11425W        W28272   2.169   5.886   3.714  0.1986 -0.0276  0.0754
11426W        W28273  15.436  10.771  14.336 -0.3413  0.2441  0.0041
11427W        W28274  10.905   4.017   2.270 -0.0281 -0.0135 -0.1305
11428W        W28275   1.575  11.281   4.708 -0.0702 -0.2258  0.3461
11429W        W28276  14.545  12.801   1.213  0.1191 -0.1144 -0.0523
11430W        W28277   5.304   0.517   3.454  0.1695 -0.1085  0.1659
11431W        W28278  13.713  15.378  12.153  0.4617  0.1023 -0.0233
11432W        W28279  18.718   0.707  10.842 -0.2621  0.0104  0.1686
11433W        W28280  17.321   6.630  13.814 -0.2328 -0.2537 -0.3302
11434W        W28281   9.565  17.584   0.565 -0.2656  0.3477 -0.1790
11435W        W28282  14.498   3.319  12.998 -0.2328  0.2183  0.2125
11436W        W28283  15.466  14.942  13.854 -0.2073 -0.1066 -0.1058
11437W        W28284  12.936  10.042  11.816  0.1053 -0.5365 -0.2704
11438W        W28285  17.707   9.873  11.558 -0.0003  0.1621  0.0549
11439W        W28286   6.360   7.455  12.929 -0.1694  0.0095 -0.2987
11440W        W28287   1.886   3.133   0.735  0.1548  0.2286  0.3011
11441W        W28288  16.797  13.260   3.329  0.0722  0.1607 -0.0628
11442W        W28289   1.515  18.267   1.407  0.1291  0.0275  0.2672
11443W        W28290   8.740   5.744  14.171  0.2948  0.1059  0.0680
11444W        W28291   0.378   0.039  10.422  0.2166  0.1232  0.1842
11445W        W28292  11.922  13.800  12.963  0.2907 -0.0406  0.0510
11446W        W28293   4.849   2.450  14.424 -0.0655 -0.2526  0.5736
11447W        W28294   7.406   2.421   3.509 -0.2385 -0.1520 -0.3429
11448W        W28295   9.109   0.943   2.449  0.0245 -0.2667  0.2631
11449W        W28296  16.896   7.692   1.137  0.1360 -0.1681 -0.0596
11450W        W28297   2.227   2.827   9.260  0.2537 -0.3871 -0.1407
11451W        W28298  12.511  11.187   4.839  0.1332 -0.2046 -0.2960
11452W        W28299  14.749  10.683   2.049  0.0985 -0.1229 -0.1421
11453W        W28300   1.867   4.502   4.174  0.0910  0.1281 -0.1129
11454W        W28301  14.491   6.098  10.831  0.0962 -0.0223 -0.0350
11455W        W28302   6.612  15.262  12.336  0.1018 -0.2820  0.0190
11456W        W28303  17.549  12.463   1.088 -0.1581 -0.3042 -0.1010
11457W        W28304  12.572   3.708  13.944  0.2432 -0.1115  0.0220
11458W        W28305   2.107  17.427  11.311  0.0225  0.0992  0.1759
11459W        W28306  17.929   0.951  13.997 -0.0116  0.0061 -0.1245
11460W        W28307  16.827  16.298   3.102 -0.0954 -0.1205 -0.0172
11461W        W28308   3.250   5.890   0.267 -0.1131  0.1674  0.1284
11462W        W28309   6.968  18.621  14.036  0.0011 -0.1641 -0.0453
11463W        W28310  18.440   0.672   3.829  0.1400 -0.1943  0.1814
11464W        W28311   1.013  17.549   1.122  0.0178  0.2223 -0.1661
11465W        W28312   4.435  14.363  12.219 -0.1198 -0.2345 -0.1029
11466W        W28313  16.623  17.016   4.335 -0.5141 -0.0822  0.0642
11467W        W28314   2.065   9.026   2.681 -0.0551  0.0380  0.2012
11468W        W28315  16.539   0.029  13.797 -0.0468 -0.1492  0.1301
11469W        W28316   9.907   2.300   0.021 -0.4361 -0.0160 -0.5131
11470W        W28317   7.381  12.063   3.677  0.0010 -0.0796  0.2045
11471W        W28318  17.751  16.317  14.145  0.4941 -0.1405  0.1913
11472W        W28319   4.405  17.757   0.880  0.2396 -0.1031  0.1554
11473W        W28320  15.718  18.286  10.730  0.0003 -0.0994 -0.0457
11474W        W28321   0.393   6.851  12.052 -0.0712  0.0772  0.0314
11475W        W28322  10.064  18.693   3.257 -0.0270  0.5734 -0.0555
11476W        W28323   8.275  10.342   0.002  0.2373  0.2287  0.1561
11477W        W28324  14.532   2.723   0.894  0.1749 -0.1726 -0.1237
11478W        W28325   4.084   2.830  12.009  0.0454  0.0062  0.0563
11479W        W28326   1.549   7.795   4.448  0.0900  0.1059  0.0209
11480W        W28327  14.780  17.076  11.330  0.1957  0.0425 -0.2108
11481W        W28328   6.209  18.487   3.700  0.2959 -0.2055  0.1577
11482W        W28329  18.725  12.153  14.512  0.1955 -0.1219 -0.2253
11483W        W28330   2.543  16.103   3.172  0.0476  0.0810 -0.0826
11484W        W28331  18.402  13.053   3.184 -0.3130 -0.1235  0.0492
11485W        W28332  15.840   5.531   2.176  0.0015 -0.0397  0.0217
11486W        W28333  18.640  17.556  11.186 -0.0615 -0.0449 -0.1250
11487W        W28334  18.230   0.626   0.102  0.0328 -0.1739  0.2350
11488W        W28335  17.618  10.848  13.859 -0.0902  0.1000 -0.1375
11489W        W28336   2.923  17.644  12.370  0.0083  0.1345 -0.1434
11490W        W28337   1.546   7.850   2.737 -0.1249  0.1616 -0.3339
11491W        W28338  14.470  18.985  12.992  0.0084 -0.1553 -0.3058
11492W        W28339  19.526  19.127  11.384 -0.1055  0.2249  0.0126
11493W        W28340  11.539   0.368  12.601  0.1068  0.3793 -0.1627
11494W        W28341  15.033  16.976   4.278  0.0574  0.1060  0.0598
11495W        W28342  17.506   7.987  10.985  0.1163 -0.0155  0.1506
11496W        W28343   3.027  18.777   2.287  0.3514  0.1239 -0.2884
11497W        W28344   2.560   3.290  10.893  0.0983  0.1683 -0.2205
11498W        W28345   4.055  13.249  14.448  0.2564  0.1496 -0.1480
11499W        W28346  12.565  14.551  12.055  0.1777 -0.1949  0.2112
11500W        W28347  12.335  19.503  14.134  0.1952 -0.0660  0.0158
11501W        W28348   9.872   3.362  14.417  0.2153 -0.0303  0.1674
11502W        W28349  11.351   8.215   9.791  0.0832  0.1577 -0.0164
11503W        W28350  10.123   9.089   0.074  0.4069  0.0111 -0.0619
11504W        W28351  14.537   9.466   3.001  0.2037 -0.0100  0.0818
11505W        W28352  17.998   7.742  11.532 -0.1797 -0.1448  0.0270
11506W        W28353   3.646   9.353   4.229  0.0881 -0.2169  0.2726
11507W        W28354  16.332   5.155   4.910 -0.0090  0.1743 -0.4212
11508W        W28355  14.444   3.809  12.347  0.2591  0.2036  0.2334
11509W        W28356   1.774  15.181  14.103 -0.0670 -0.4104 -0.4195
11510W        W28357  11.277  12.101   2.774 -0.1903 -0.1559  0.1434
11511W        W28358   4.585  19.023  10.689 -0.0206  0.0093  0.1157
11512W        W28359  10.230  16.668   1.166  0.0418 -0.0248  0.0031
11513W        W28360   9.709  11.709  12.652  0.2686  0.2673 -0.1198
11514W        W28361   8.936  16.951   9.509  0.3948 -0.1386 -0.2141
11515W        W28362  12.191  19.084  11.921 -0.1398  0.1937  0.0374
11516W        W28363   7.993  15.885  10.932  0.2267  0.0879  0.0513
11517W        W28364  18.132  18.229  13.261  0.1699  0.3560  0.1117
11518W        W28365  13.035  10.246   9.215 -0.2732 -0.1781 -0.0553
11519W        W28366   5.860   9.288   3.654 -0.1991  0.1925  0.0971
11520W        W28367  18.539   9.947   0.823  0.0755 -0.0699  0.1692
11521W        W28368   8.707  14.903   1.297  0.1393  0.0349  0.0766
11522W        W28369  10.620  10.987   3.319  0.1923  0.1588 -0.1471
11523W        W28370  10.401   7.592  14.326 -0.1925  0.0783  0.3188
11524W        W28371  18.128   5.974   4.846  0.1962 -0.1501  0.3105
11525W        W28372   7.679   8.945  12.325 -0.2110  0.2886 -0.1045
11526W        W28373   7.119  17.700   5.184  0.1413 -0.1094  0.0835
11527W        W28374  17.697   1.408   0.665  0.0606 -0.0307 -0.1510
11528W        W28375   0.270  16.007  14.256 -0.0176 -0.0753  0.0111
11529W        W28376   2.247  12.419  12.842  0.0768 -0.2799 -0.4491
11530W        W28377   8.649  13.570  11.480  0.0931  0.1864  0.1565
11531W        W28378   4.622   7.230  14.078  0.2276  0.0693 -0.0094
11532W        W28379  16.983  18.464   2.129 -0.2314 -0.1366 -0.0715
11533W        W28380  11.508  19.438   9.089 -0.3588  0.1769 -0.1073
11534W        W28381  10.971  14.421   4.023 -0.1079  0.1446 -0.0703
11535W        W28382   7.182  13.661  13.391  0.3091  0.0323 -0.0385
11536W        W28383   8.771  14.122   3.575  0.2127  0.0687  0.1195
11537W        W28384  15.145  10.560   2.253  0.1125  0.2303 -0.1899
11538W        W28385   0.746   5.048   2.064 -0.3877 -0.0837  0.0644
11539W        W28386  19.014  14.416   0.531  0.0932  0.0524 -0.0660
11540W        W28387  11.397  11.621   2.465  0.1722 -0.3565 -0.0588
11541W        W28388   0.396  14.524  14.225 -0.1542  0.4279  0.1394
11542W        W28389   1.095   6.486  14.406  0.3438 -0.1627  0.2630
11543W        W28390  14.960   3.094  10.520 -0.0815  0.0915 -0.0479
11544W        W28391  14.102  19.062   4.872 -0.0812  0.0353 -0.3820
11545W        W28392   4.351   3.472   0.705 -0.0816 -0.2736  0.3232
11546W        W28393  15.404  16.706   1.703 -0.0656  0.1244  0.0456
11547W        W28394   3.957   8.580   1.525 -0.0101 -0.2792 -0.0756
11548W        W28395  17.751   5.242  11.520 -0.2745 -0.1725  0.0687
11549W        W28396  19.446   2.132   4.808 -0.2169  0.0607  0.2168
11550W        W28397   1.753   8.123   0.695 -0.2777 -0.0466  0.1048
11551W        W28398  10.463   9.893  14.557  0.1605  0.1903 -0.0553
11552W        W28399   8.614   5.234   0.241 -0.1000 -0.2076  0.0551
11553W        W28400   6.278   4.955  13.241 -0.0351 -0.4977  0.1958
11554W        W28401   1.110   8.653  11.456  0.1169 -0.0985 -0.2823
11555W        W28402  14.051   9.420  12.687  0.2732  0.5812 -0.1093
11556W        W28403  18.312  15.681   2.037 -0.2504 -0.1058  0.1759
11557W        W28404  13.407  10.067  10.437 -0.1183 -0.0375 -0.0132
11558W        W28405   2.689  18.785   1.303 -0.2670 -0.0725 -0.1374
11559W        W28406  10.375   0.248  11.826 -0.0916  0.0775  0.0067
11560W        W28407  10.722   3.161  12.853  0.0981  0.0732  0.1140
11561W        W28408  11.955  16.954  11.750  0.1908 -0.0397 -0.0496
11562W        W28409   4.442  13.754   2.789  0.2941  0.3076  0.0830
11563W        W28410  14.688   5.659  12.544  0.2894 -0.0562 -0.0722
11564W        W28411   3.987  13.362   1.087  0.1701  0.2183  0.0311
11565W        W28412   7.517   2.678   4.498  0.0218 -0.0033  0.0760
11566W        W28413   4.175  11.319   0.868 -0.1854  0.2723  0.0344
11567W        W28414   9.098   3.384  11.117  0.0670  0.1455 -0.1043
11568W        W28415   4.763  15.409   2.021  0.1740 -0.0555 -0.1135
11569W        W28416  11.256  12.121   1.792 -0.0559  0.2606  0.1108
11570W        W28417   6.312  18.654  10.698 -0.2918  0.0141 -0.0412
11571W        W28418   3.626  12.622  12.715  0.0191  0.1390 -0.0961
11572W        W28419   3.414  10.785  12.715 -0.1035  0.0223  0.0639
11573W        W28420  17.659  17.801  12.347  0.1052 -0.0798  0.3591
11574W        W28421  13.323  11.911  10.126  0.0793 -0.0131  0.0089
11575W        W28422  12.120  16.593  13.456 -0.3051 -0.4166 -0.4309
11576W        W28423  12.986   2.655   4.607 -0.1371  0.2170 -0.0693
11577W        W28424  16.048  14.021  10.409  0.0431 -0.1147 -0.1317
11578W        W28425  12.812  14.540   1.033  0.2898 -0.2002 -0.0871
11579W        W28426   4.786  10.096   4.391  0.2769 -0.0851  0.0644
11580W        W28427  10.543   8.739  14.032  0.2466 -0.2696  0.0832
11581W        W28428  12.762   1.782   2.033 -0.0345 -0.1261 -0.0167
11582W        W28429   9.282  15.890  11.477  0.2853  0.0509 -0.0559
11583W        W28430   5.642   7.981   2.684 -0.0261  0.0760  0.0225
11584W        W28431   0.868   3.917   0.770 -0.2008  0.0780  0.1587
11585W        W28432   0.424  19.001  11.510 -0.4102 -0.4411 -0.0395
11586W        W28433   1.641  17.129  11.099  0.0812 -0.0197  0.0334
11587W        W28434   0.353   9.068   4.567  0.0182  0.0212 -0.1078
11588W        W28435   1.484  18.110  12.534  0.0005  0.0227 -0.0316
11589W        W28436  14.334  15.144  11.759 -0.2512  0.2911  0.0936
11590W        W28437  19.249   2.798   3.698  0.0241 -0.0162 -0.4515
11591W        W28438   2.387   1.699   1.988 -0.0632 -0.2970 -0.4161
11592W        W28439   5.579  19.051   8.858 -0.2084 -0.0623 -0.0868
11593W        W28440   8.751   9.313   4.665 -0.1046 -0.1872 -0.0242
11594W        W28441  11.731   4.147   4.714 -0.2283  0.1254 -0.0645
11595W        W28442  15.213   2.442  14.383  0.1268 -0.0483 -0.0566
11596W        W28443   3.691   2.238   4.104  0.0643 -0.1111 -0.1862
11597W        W28444  16.326   6.853   2.552  0.0647 -0.0898  0.0665
11598W        W28445  13.757   7.360   2.781 -0.1933 -0.1655  0.1534
11599W        W28446   1.742  12.646  12.786  0.1631  0.1242 -0.1177
11600W        W28447   6.722   1.239  14.098 -0.0987  0.2721  0.3865
11601W        W28448   4.272   5.521  11.792 -0.2705 -0.2768 -0.1080
11602W        W28449  11.965  17.093   0.427  0.1736 -0.2888  0.0186
11603W        W28450   0.288   2.655   2.907  0.0197  0.0935  0.3680
11604W        W28451  14.496  18.831  12.119 -0.1121  0.3437  0.0657
11605W        W28452   4.948  14.201  10.444  0.0123  0.1917  0.0677
11606W        W28453   8.179  10.152   1.759  0.2248 -0.0767  0.2350
11607W        W28454  16.517   9.887   1.523  0.1194 -0.4767 -0.2552
11608W        W28455  15.955   0.418   4.457 -0.1563  0.2195  0.2266
11609W        W28456   0.323  13.777   4.382 -0.0311 -0.2044  0.1229
11610W        W28457   9.111   3.346  14.190  0.0940  0.3930  0.0310
11611W        W28458   2.209  17.513   4.246 -0.1567 -0.1267  0.0065
11612W        W28459   5.893  12.119   3.956  0.3310 -0.1235 -0.0548
11613W        W28460   0.214   6.245  14.460  0.2298 -0.0539 -0.0224
11614W        W28461   7.402   6.152   1.262  0.2858 -0.0248  0.1257
11615W        W28462   7.818   9.153   5.347 -0.0585  0.0235  0.2319
11616W        W28463   7.648   2.783   2.600  0.0391 -0.0334 -0.0953
11617W        W28464   6.455   0.309   0.818 -0.3434  0.2127 -0.1885
11618W        W28465  16.590   6.987   0.380  0.0960 -0.1372  0.2781
11619W        W28466   5.371   1.310  11.765  0.1664  0.1335  0.0247
11620W        W28467  17.625  14.306   3.225  0.0652  0.0396 -0.3756
11621W        W28468  16.311   3.015  12.751 -0.2965 -0.0456 -0.0289
11622W        W28469   9.130   5.582  11.574  0.3581  0.1014 -0.1393
11623W        W28470   4.050   3.755  12.255  0.1384  0.0156 -0.0547
11624W        W28471  10.248  13.576   3.844  0.2305  0.2889 -0.1204
11625W        W28472  13.434   7.030   0.491 -0.2535  0.0099 -0.0141
11626W        W28473   1.260   8.624   2.158 -0.0092  0.1354 -0.0698
11627W        W28474  10.584   8.992  13.585  0.1210 -0.0881  0.2051
11628W        W28475  19.323   4.799   2.508 -0.0739  0.0291  0.0561
11629W        W28476   0.226   4.888  12.515  0.1942  0.0197 -0.1719
11630W        W28477  10.246   1.818   1.738  0.1482 -0.1209  0.0662
11631W        W28478   8.258   7.999   3.542 -0.0721 -0.1015 -0.3663
11632W        W28479  14.842  14.232   2.228 -0.1530  0.1501  0.3737
11633W        W28480   7.139   2.120  10.416 -0.1019  0.2201 -0.2192
11634W        W28481  15.852   3.947   5.184  0.0803 -0.1003  0.0074
11635W        W28482  17.732  12.938  10.629 -0.0228 -0.2078 -0.0612
11636W        W28483  11.786  15.940   1.738  0.0944 -0.4413  0.1143
11637W        W28484  10.290   9.384   1.271 -0.1437 -0.0953 -0.3454
11638W        W28485   9.159   9.146   3.349 -0.2831  0.2704 -0.1527
11639W        W28486  17.323   5.181   0.261 -0.1912 -0.2245  0.3706
11640W        W28487  18.319   0.477   0.596 -0.2405  0.0266 -0.1177
11641W        W28488   1.514   6.808   3.074  0.0411 -0.1541  0.1959
11642W        W28489  12.353  12.191   0.196  0.0460  0.0934  0.1516
11643W        W28490   6.341  16.816   3.158 -0.0996 -0.1272 -0.0721
11644W        W28491  13.587   4.497  14.206 -0.0276 -0.0613 -0.0105
11645W        W28492  12.776   7.728   2.984  0.1677 -0.1269 -0.3234
11646W        W28493  15.331  11.908  14.403 -0.0018 -0.0683 -0.0870
11647W        W28494  10.964  18.007   3.932  0.0712 -0.2532 -0.2062
11648W        W28495   1.139  10.596   2.817 -0.0711  0.2828 -0.1489
11649W        W28496  18.810  11.480  12.355  0.0430 -0.0490 -0.0427
11650W        W28497  16.693  16.429  14.589  0.2729  0.0944  0.0161
11651W        W28498   6.091  19.397   2.773 -0.1069 -0.4813  0.1996
11652W        W28499   4.552  16.159   8.963 -0.0558 -0.5439  0.2144
11653W        W28500  10.266  14.536  10.816 -0.1600  0.2051  0.1024
11654W        W28501   3.389  15.236   0.614 -0.0093 -0.0236  0.2040
11655W        W28502   5.712   9.598   1.580 -0.4040 -0.0047 -0.1485
11656W        W28503  15.702   1.584  14.542  0.0410 -0.1725  0.3752
11657W        W28504   8.869  11.389   4.598  0.0296  0.4109  0.1075
11658W        W28505  12.969  17.960  10.554 -0.0390  0.0336  0.1182
11659W        W28506  14.248  17.983   1.747 -0.1396 -0.0194  0.1755
11660W        W28507   8.157   7.608   0.842 -0.0472 -0.0418 -0.0872
11661W        W28508  16.852   1.719  12.181 -0.2106  0.3977 -0.1080
11662W        W28509  11.356  10.363  14.430 -0.4570 -0.0459  0.1063
11663W        W28510   0.159   9.654  11.665  0.0477 -0.1405  0.0936
11664W        W28511  16.347   7.880   2.851  0.0194 -0.0176 -0.0783
11665W        W28512   6.689   2.740   2.247  0.0749 -0.1125 -0.0459
11666W        W28513   8.030  15.941   2.771  0.0708 -0.0943  0.0191
11667W        W28514   5.420  16.031  12.534 -0.0468  0.1099 -0.1755
11668W        W28515  18.592   1.828   9.379 -0.2185  0.2771 -0.0692
11669W        W28516   9.089   9.130  10.812  0.1156  0.1487 -0.2621
11670W        W28517   7.135   2.003  10.955  0.1913  0.1640 -0.2546
11671W        W28518  12.645   0.638   0.335 -0.1429  0.1932 -0.0173
11672W        W28519  14.317  16.572  10.656  0.2221  0.0132 -0.0108
11673W        W28520  15.108  11.026   1.111  0.1993 -0.0866  0.1002
11674W        W28521   1.114   4.744  13.757  0.0454  0.0910  0.0924
11675W        W28522  11.552  18.954   9.791  0.0129  0.0227  0.0872
11676W        W28523   4.142   9.470   0.434 -0.0929 -0.1905  0.2146
11677W        W28524  16.574   9.548   3.432  0.2655  0.2052 -0.1074
11678W        W28525   3.141   1.711  13.732  0.0931  0.1110  0.0817
11679W        W28526   3.392   2.362  11.065 -0.2543 -0.0503 -0.1444
11680W        W28527   9.770   3.984  11.788 -0.1795 -0.1940  0.1409
11681W        W28528   8.486  19.462   0.795 -0.0682 -0.0661  0.1291
11682W        W28529   4.514   5.733   2.225  0.1810  0.0271  0.0855
11683W        W28530  15.619  19.436  12.822  0.0351 -0.1037 -0.0764
11684W        W28531  13.626  13.805  14.525  0.1289 -0.2069 -0.1813
11685W        W28532  16.022   1.545   1.265 -0.1351 -0.1064 -0.0418
11686W        W28533   3.493   2.587  13.615  0.2174  0.0614  0.1110
11687W        W28534  12.085  17.248  13.427  0.1384  0.1481  0.4204
11688W        W28535   3.627   1.369   1.596  0.0974 -0.3004 -0.2599
11689W        W28536  17.661  18.824  14.149 -0.1154  0.1000  0.2905
11690W        W28537   3.658  12.354  11.428 -0.1784 -0.2261  0.0256
11691W        W28538   8.990   7.838   1.900  0.4708  0.1126  0.0790
11692W        W28539   9.274  19.466   2.318  0.2742  0.2643 -0.1339
11693W        W28540   8.400  14.428  10.837 -0.3985 -0.4099  0.1400
11694W        W28541  17.766  18.172  12.838  0.0592  0.1726  0.5029
11695W        W28542   9.605  18.419   3.262  0.0108  0.2262  0.2122
11696W        W28543   6.967   1.132  11.161  0.0066  0.1221 -0.0785
11697W        W28544   1.964   2.409  13.514 -0.2592 -0.0069  0.1756
11698W        W28545   2.887  16.221   1.745  0.0814  0.0619 -0.1194
11699W        W28546  15.017   2.522  12.625  0.0013  0.1227  0.1223
11700W        W28547  11.974   3.929   3.645 -0.0727  0.3345 -0.0790
11701W        W28548  17.695   9.666  13.295 -0.2893 -0.0904  0.1678
11702W        W28549   0.482  17.669   3.563  0.0089  0.0069  0.2791
11703W        W28550   2.468  19.235  13.133  0.0715 -0.2037 -0.1696
11704W        W28551   8.399  10.716   5.301 -0.4711 -0.3552 -0.1762
11705W        W28552   1.833   4.000   3.521 -0.0767  0.0735 -0.0914
11706W        W28553  15.110  19.626  10.771  0.1981 -0.0659 -0.1187
11707W        W28554   1.136  14.034   0.291 -0.2745  0.0411 -0.1998
11708W        W28555  10.402   8.756   3.573 -0.1182  0.1275  0.1436
11709W        W28556  19.546  11.405  14.507 -0.3838  0.2109 -0.5496
11710W        W28557  10.633  13.157   0.215  0.1586 -0.3704  0.0379
11711W        W28558   3.574   2.975   3.541 -0.2020 -0.1615  0.0335
11712W        W28559   1.013   2.688   2.583 -0.1085  0.2246 -0.0056
11713W        W28560   5.334   3.622  13.136  0.1655  0.1695 -0.1111
11714W        W28561   3.101  12.011   3.680 -0.1304  0.0274 -0.0532
11715W        W28562   6.416   5.570   3.766 -0.1074  0.0305  0.2544
11716W        W28563  15.517   9.476  12.090 -0.0120  0.0466 -0.3164
11717W        W28564  12.526   1.176   1.175 -0.2898  0.1721  0.0115
11718W        W28565   2.674  15.754  14.556  0.3715 -0.2216  0.0631
11719W        W28566   3.881   7.786  12.106 -0.1622  0.1590  0.3184
11720W        W28567   7.910  16.568   3.639 -0.0083  0.0202  0.0371
11721W        W28568   9.402   4.955   1.968  0.0757  0.0305  0.1966
11722W        W28569  18.043  14.095   0.606  0.0792 -0.1952 -0.0225
11723W        W28570  10.281  14.144  12.436 -0.2972  0.1358 -0.0933
11724W        W28571   9.658  10.770   2.850  0.2011  0.2199  0.0350
11725W        W28572  14.946   2.001  13.705 -0.1084  0.0241  0.2664
11726W        W28573  12.646  12.853   2.613 -0.1426  0.0045 -0.4647
11727W        W28574  18.775  15.996  13.859  0.1744 -0.1128  0.2221
11728W        W28575   4.524  17.707  12.921  0.1942 -0.0881  0.0783
11729W        W28576   4.723  12.162   4.664  0.0597 -0.1707  0.0499
11730W        W28577   3.374  17.031   2.334  0.1042  0.2332  0.1389
11731W        W28578   1.142  18.867   0.672 -0.2261  0.2806  0.2653
11732W        W28579   0.846  12.283  12.733 -0.2290 -0.3572 -0.0529
11733W        W28580  11.806  14.999  12.312 -0.0035  0.0212 -0.0618
11734W        W28581   6.342  17.312  14.205  0.0808  0.2080 -0.2508
11735W        W28582   2.616   9.489  10.191 -0.4315  0.1760 -0.1146
11736W        W28583   4.561  14.441  12.724  0.0802  0.1433 -0.0311
11737W        W28584  16.914   7.392   0.725  0.1154  0.0585  0.0488
11738W        W28585  14.328   5.237   0.435 -0.1482 -0.0998  0.1570
11739W        W28586  14.653  11.235  12.919 -0.0727  0.2240  0.1134
11740W        W28587   8.184   6.274   4.898 -0.0279  0.1804 -0.0371
11741W        W28588   2.810   4.578   1.830 -0.2312 -0.0840 -0.1279
11742W        W28589  12.862  15.518   3.105  0.0519  0.3656  0.0755
11743W        W28590  14.966   4.213  13.031 -0.0303 -0.1491 -0.0541
11744W        W28591  15.453  16.971  10.187  0.0754  0.0439  0.0339
11745W        W28592   8.546   3.625  12.496 -0.0610  0.0871 -0.1953
11746W        W28593   7.915  17.317   4.677 -0.1981 -0.1211 -0.2366
11747W        W28594  19.482   0.663  11.308  0.0003 -0.0062  0.0325
11748W        W28595   4.840  18.502  12.574  0.2415  0.0879  0.4634
11749W        W28596  15.558  19.177   0.239 -0.1517  0.1933 -0.0011
11750W        W28597  18.637  12.408  13.734 -0.0180  0.1189  0.1601
11751W        W28598  15.597  11.885   4.670 -0.3468 -0.2525 -0.4906
11752W        W28599  15.330  12.956  12.242  0.0155  0.0766 -0.1904
11753W        W28600  13.715   9.270   0.488  0.1104  0.2409 -0.0656
11754W        W28601   9.356   2.925  10.983 -0.2583 -0.0490 -0.1648
11755W        W28602   1.293   5.563   2.270  0.0469 -0.0653  0.0710
11756W        W28603   8.973   0.429   1.505  0.3507 -0.0387  0.2291
11757W        W28604   4.641  17.360   0.621  0.1903  0.2473  0.1583
11758W        W28605  15.171   8.765   0.551  0.3432  0.1880 -0.1132
11759W        W28606  11.523  18.605   3.145 -0.1544  0.0031 -0.1104
11760W        W28607  12.439   6.561   0.551  0.0645  0.0947 -0.0022
11761W        W28608   8.695  12.539   0.581 -0.0467  0.1857  0.0751
11762W        W28609   2.537  12.420   0.028 -0.1377 -0.0419  0.0418
11763W        W28610  10.374   6.890   0.635  0.3062 -0.0515  0.0229
11764W        W28611   4.082  18.855   0.534 -0.0097  0.0239 -0.4177
11765W        W28612  14.267  13.447   2.152  0.1268  0.2016  0.1031
11766W        W28613  14.314  17.247  11.451 -0.0692 -0.0121 -0.0326
11767W        W28614   3.226  17.573  11.855 -0.0227 -0.2048 -0.5770
11768W        W28615   7.369   1.388   0.653  0.1864  0.0648 -0.1142
11769W        W28616   4.440   8.992   0.316 -0.2935 -0.5262  0.0705
11770W        W28617   5.199   8.989  12.487  0.2294  0.2986 -0.0664
11771W        W28618  11.639  12.499   3.404  0.0433 -0.1762  0.3303
11772W        W28619  10.110  15.907   4.086  0.1428  0.1329 -0.2306
11773W        W28620   4.701  13.686   3.707  0.1551 -0.0084 -0.0180
11774W        W28621   7.460   6.130   0.427 -0.2082  0.0866 -0.0734
11775W        W28622   2.962   7.196  12.769  0.1562  0.1253 -0.3018
11776W        W28623   9.784  18.810   2.303 -0.0226  0.0608  0.3609
11777W        W28624  18.873  14.356  11.419 -0.3107 -0.2914 -0.2272
11778W        W28625   6.000  14.953  11.405  0.3117  0.1087 -0.0124
11779W        W28626   4.381   0.878  13.615 -0.0455 -0.0229 -0.0559
11780W        W28627  16.759  10.597   2.751  0.0310 -0.2157 -0.1328
11781W        W28628  12.783  13.298  14.111  0.1587  0.0057 -0.0177
11782W        W28629   0.933   2.075   0.452 -0.1365  0.0109  0.1381
11783W        W28630   3.585   8.531  11.726 -0.2843 -0.0617 -0.0293
11784W        W28631   4.138   9.440   4.385 -0.0519  0.2019 -0.1141
11785W        W28632  14.459   0.905   2.602  0.1179  0.1830 -0.0522
11786W        W28633  10.591   7.220  12.269  0.0942 -0.1192  0.2069
11787W        W28634   3.525  18.781  12.247 -0.3791 -0.3351  0.0293
11788W        W28635   0.172   3.286  12.640  0.0445 -0.0581 -0.2381
11789W        W28636   8.637   6.400   9.586 -0.0935  0.1161 -0.0422
11790W        W28637  16.981  18.004   3.514  0.0135 -0.1364  0.0625
11791W        W28638  14.007   6.292  12.323 -0.2392  0.1213  0.3654
11792W        W28639  16.771  16.889  13.784  0.0555 -0.5438 -0.0502
11793W        W28640   5.263   5.098   3.408  0.0731  0.2351  0.1842
11794W        W28641  16.836   9.526   4.967 -0.2550  0.0574  0.0005
11795W        W28642  18.697  12.645   2.061  0.2970 -0.1243  0.3853
11796W        W28643   9.220   8.249   1.004  0.0497  0.3293  0.1254
11797W        W28644   5.618  11.524  14.537 -0.1398  0.2809  0.0866
11798W        W28645   9.005   9.716   4.914 -0.1442  0.0388 -0.0620
11799W        W28646   7.156  19.433  10.588  0.0917 -0.2960 -0.1007
11800W        W28647   7.999   5.101  12.534  0.2983 -0.0948 -0.1223
11801W        W28648  16.288  13.247  12.549  0.1066 -0.2345 -0.0269
11802W        W28649  19.508   0.488   0.715  0.1630  0.0072  0.2928
11803W        W28650   7.256  14.322  13.690 -0.1356  0.0368  0.4285
11804W        W28651  16.173  14.811   0.729  0.0493  0.0264  0.2140
11805W        W28652  12.482   2.831  10.655 -0.0259 -0.0647  0.4706
11806W        W28653  10.349   7.750   2.191 -0.0073  0.0203 -0.0526
11807W        W28654  12.119   4.413   3.543  0.0719  0.2734  0.2816
11808W        W28655   6.058   2.290  10.271 -0.0380  0.0222  0.2523
11809W        W28656  12.877  13.697  10.432  0.2467 -0.1891  0.0557
11810W        W28657  16.783   9.960   3.476 -0.4206  0.0966  0.0634
11811W        W28658   6.580  13.326   0.206 -0.0054  0.2037  0.1195
11812W        W28659   9.075   2.186  12.070 -0.3649 -0.0397 -0.0560
11813W        W28660  17.681   9.733  13.900  0.2255 -0.1249  0.1444
11814W        W28661   5.673   5.868   4.347 -0.0289  0.1823  0.1781
11815W        W28662   4.532   5.088  12.536  0.2443  0.2515  0.1127
11816W        W28663   4.503   3.999   3.398 -0.1229 -0.1706 -0.0111
11817W        W28664  16.900  13.456   2.130  0.1058  0.2906  0.2307
11818W        W28665  16.522  16.697   0.781  0.2166  0.0718  0.2441
11819W        W28666  18.970  19.175   0.647  0.0991  0.4647  0.0907
11820W        W28667  13.714  13.313  10.751  0.2800 -0.0085 -0.2330
11821W        W28668   0.514   9.352  13.186 -0.2847  0.0838  0.2320
11822W        W28669   0.459  10.481   0.166  0.0931 -0.0776 -0.3141
11823W        W28670  13.868   9.450  13.190 -0.1818  0.2112  0.0152
11824W        W28671  15.627   8.606   0.515  0.2612  0.4476  0.1290
11825W        W28672  11.922   2.473  14.546 -0.0551  0.1712  0.0568
11826W        W28673  10.347   1.565   2.179 -0.0628 -0.3352 -0.1736
11827W        W28674   8.092   7.538  12.075 -0.2841  0.0139 -0.4604
11828W        W28675   7.747  10.274   1.935 -0.0668 -0.1063 -0.5636
11829W        W28676   2.313  19.586   1.372  0.1100 -0.1986  0.1025
11830W        W28677   6.704   7.872  13.817 -0.1388  0.1835  0.6074
11831W        W28678   8.807  13.216  12.250  0.0225 -0.0014 -0.1232
11832W        W28679   3.707  18.380   4.538 -0.2104 -0.1390  0.2678
11833W        W28680  17.994   2.370   1.236 -0.0177  0.1300 -0.0765
11834W        W28681  17.783  18.193   3.940  0.1170 -0.1648  0.3448
11835W        W28682   6.149  16.089  12.720 -0.3429 -0.4458  0.1654
11836W        W28683   0.488  12.587  14.111  0.0499  0.2812 -0.0474
11837W        W28684   4.026  15.873   3.343  0.2477 -0.2254  0.3478
11838W        W28685   1.844   0.800   3.496  0.0887  0.2963  0.1587
11839W        W28686  15.106   7.543   1.519 -0.1789 -0.1076  0.2499
11840W        W28687  18.214   7.596  13.904  0.4602 -0.0665 -0.0684
11841W        W28688   7.861   2.126   3.396 -0.1323 -0.0722  0.2843
11842W        W28689   5.416   5.476   3.673  0.4301  0.2360  0.1479
11843W        W28690  18.819   5.096   4.384  0.0385 -0.1451 -0.1091
11844W        W28691  12.240   0.926  12.422 -0.2288 -0.2515 -0.1277
11845W        W28692  14.848   6.475   1.890  0.2035 -0.2530 -0.1218
11846W        W28693  15.516   4.258  13.235 -0.1858  0.1518 -0.0189
11847W        W28694  13.657  11.999  14.443 -0.4000 -0.1797 -0.1462
11848W        W28695   8.415  16.009   3.172  0.1969  0.0815  0.2430
11849W        W28696   5.915   7.080  14.301  0.0284 -0.1272 -0.4656
11850W        W28697   3.745  11.136   2.171 -0.1339  0.2180  0.1224
11851W        W28698   8.682  17.586   3.478 -0.1219  0.1838  0.1519
11852W        W28699   9.457   4.707  11.545  0.1672 -0.1392 -0.4641
11853W        W28700   9.318   0.350   2.374 -0.0080 -0.1265 -0.0271
11854W        W28701  11.544   2.443   3.830  0.0942 -0.0005 -0.0832
11855W        W28702  12.883   3.009  10.954  0.4528  0.2674 -0.0216
11856W        W28703   7.810  17.254   3.495 -0.3383  0.0930  0.0446
11857W        W28704   1.697  16.174  13.896  0.0876 -0.2328  0.0973
11858W        W28705  16.426   1.585   2.108 -0.0036  0.0084 -0.2331
11859W        W28706  14.830  19.507   2.644 -0.0159  0.0762 -0.2241
11860W        W28707   4.068   3.512   0.258  0.0920  0.2700 -0.1601
11861W        W28708  13.427   4.196   3.858  0.0953 -0.0781  0.1695
11862W        W28709   3.783  14.906   2.893  0.1730  0.1241 -0.2221
11863W        W28710  16.163  18.412  13.335  0.1130  0.1830  0.0894
11864W        W28711   7.682   8.408  11.564 -0.0494  0.0411 -0.0471
11865W        W28712   3.548  12.511   1.920 -0.1801  0.3013 -0.1078
11866W        W28713   5.723  19.213   3.768 -0.1294  0.0189 -0.1516
11867W        W28714  15.497   5.147   1.961 -0.1151 -0.0007  0.1004
11868W        W28715   8.958   0.338   4.926  0.0175 -0.0382 -0.0387
11869W        W28716  11.071  17.375   2.020 -0.0738 -0.0482  0.0984
11870W        W28717   1.240  12.942   4.315 -0.0953  0.0837  0.0768
11871W        W28718   2.356  11.215   4.392 -0.0148  0.3461 -0.1323
11872W        W28719  15.956  15.618   2.729  0.1022 -0.1685  0.0996
11873W        W28720   4.334   1.127   4.316  0.0393 -0.0256  0.0606
11874W        W28721   7.363   8.297  11.253 -0.3101  0.5533 -0.4318
11875W        W28722   4.881  13.709   4.365 -0.3446  0.3069 -0.4337
11876W        W28723  19.485  16.704   0.236 -0.0485  0.0576 -0.0771
11877W        W28724  15.008   7.773  11.150  0.1983 -0.1380 -0.0556
11878W        W28725  10.760   3.051   1.465 -0.0786  0.0130 -0.0255
11879W        W28726  17.412  10.042  12.938  0.0552 -0.3147  0.3396
11880W        W28727  11.130   5.589   1.213  0.0339  0.2764 -0.1320
11881W        W28728   6.582   1.378  10.929  0.0852  0.2642  0.0280
11882W        W28729  18.331  13.271   2.705 -0.2708  0.1543 -0.0046
11883W        W28730   6.928  15.231  13.605 -0.1715 -0.2523  0.0997
11884W        W28731  10.333  10.024  13.442 -0.0110  0.0858 -0.0479
11885W        W28732  19.256   7.522   1.237 -0.0599 -0.0646 -0.0660
11886W        W28733  17.057  16.490   3.990  0.3550  0.0582 -0.0071
11887W        W28734   5.183   7.551   3.354  0.1992 -0.2726 -0.1759
11888W        W28735   2.811  18.013  12.869  0.1413 -0.4456  0.0643
11889W        W28736  13.134   8.047  11.867 -0.3038  0.1016 -0.1843
11890W        W28737   1.774   6.825   5.121  0.0623  0.0122  0.1377
11891W        W28738   3.174   3.359   2.561 -0.0744 -0.3713 -0.0486
11892W        W28739   0.165   9.757   3.135 -0.1093 -0.2684  0.1386
11893W        W28740  17.871   5.749   1.997 -0.3606 -0.0651 -0.1335
11894W        W28741   4.635  10.456   1.353 -0.0153  0.2552  0.0526
11895W        W28742   1.211  10.386   1.612  0.0642  0.0668 -0.2192
11896W        W28743  12.244  17.926   0.088 -0.0117 -0.0644  0.1354
11897W        W28744   6.986  10.483   2.744  0.0554  0.0616  0.2647
11898W        W28745   2.084  11.672  14.276  0.2025 -0.0940  0.1468
11899W        W28746  19.061   7.626  11.022 -0.0853 -0.4816 -0.2460
11900W        W28747   5.285  11.936   1.994  0.1265 -0.2598  0.1430
11901W        W28748   6.095   2.996  10.674 -0.3208  0.0280 -0.0041
11902W        W28749   8.919  13.281  11.176  0.1197  0.3059  0.3264
11903W        W28750   2.728  10.487   0.334 -0.2658  0.0351  0.0678
11904W        W28751   1.270  15.649   1.444  0.3178 -0.1595 -0.0999
11905W        W28752  13.464  17.888  10.756 -0.1546  0.1194  0.0129
11906W        W28753   0.528   5.155   2.741 -0.0155 -0.2376  0.2043
11907W        W28754   8.095   4.062  10.758 -0.2337 -0.1735  0.4256
11908W        W28755   9.565   6.509  12.423  0.0259 -0.0003 -0.0650
11909W        W28756   6.680   6.921   3.143 -0.0528 -0.0655 -0.1598
11910W        W28757   2.483  12.821  13.899 -0.2080 -0.1484  0.1870
11911W        W28758  16.409   5.310   3.027  0.0379 -0.0549 -0.2809
11912W        W28759  15.175   0.026   3.949  0.2653 -0.0198 -0.1947
11913W        W28760   0.305   5.567   0.713  0.0894  0.2468 -0.0682
11914W        W28761  14.173   4.274   1.465  0.0585  0.2255 -0.0389
11915W        W28762  19.343  13.923   1.756 -0.0972 -0.1370 -0.1779
11916W        W28763   7.676  11.772  11.025 -0.0109  0.1273  0.0175
11917W        W28764  13.560   1.286   3.442  0.2682  0.0391 -0.2397
11918W        W28765   7.734  13.966  10.540 -0.2221 -0.1570 -0.2787
11919W        W28766  11.735   3.749  12.165 -0.1524 -0.3537  0.1749
11920W        W28767   8.477  10.201  12.505  0.0781 -0.1199  0.1695
11921W        W28768  15.330  17.094  10.673 -0.4931  0.0892 -0.2652
11922W        W28769  10.537   4.145   9.478 -0.0390  0.2066  0.2994
11923W        W28770  12.579   5.004  14.344  0.2061  0.2671  0.1567
11924W        W28771   1.607  10.734  11.226  0.2876 -0.1478 -0.0826
11925W        W28772  11.541  19.508  11.719  0.1927  0.1255 -0.2079
11926W        W28773  12.857  16.786  13.554  0.0024 -0.2978 -0.0026
11927W        W28774   0.887  10.056  12.340 -0.1105 -0.1281  0.1960
11928W        W28775  13.020   5.667   1.175  0.2237 -0.1116 -0.0122
11929W        W28776   1.464  17.292   3.184  0.1375 -0.0537  0.1815
11930W        W28777   5.125  18.144  11.732  0.1989  0.0062 -0.0587
11931W        W28778   6.865   3.198   1.530  0.0367 -0.1363 -0.2218
11932W        W28779   0.846  13.149  11.760 -0.1285 -0.0798  0.0610
11933W        W28780   1.347   6.817   2.066  0.2588 -0.0490 -0.0120
11934W        W28781  13.887   5.894   4.806  0.0201 -0.2082  0.1257
11935W        W28782  17.803  15.903  14.565 -0.2360 -0.1164 -0.0847
11936W        W28783  11.508  15.866   2.778  0.2896  0.0386 -0.0879
11937W        W28784   1.040   9.478   3.109 -0.1304  0.1005 -0.3118
11938W        W28785   8.735  10.962  14.581  0.0978 -0.2176 -0.0724
11939W        W28786  14.509   7.904   0.491  0.0121 -0.0648 -0.2085
11940W        W28787  14.552  19.171   9.917  0.1486 -0.0104  0.3687
11941W        W28788   6.473  13.963  10.435  0.0167 -0.2856 -0.1517
11942W        W28789  13.699   2.403  12.192 -0.3280 -0.1491 -0.0336
11943W        W28790  14.866   0.539  11.674  0.2586  0.0410 -0.0658
11944W        W28791   2.303  15.925  14.262 -0.0582  0.3125  0.0500
11945W        W28792   0.256   4.315  13.630 -0.4098 -0.3311 -0.0295
11946W        W28793   2.959   3.596   4.995 -0.1288 -0.5877  0.2298
11947W        W28794   4.137  16.574   1.195  0.2005 -0.1747 -0.0604
11948W        W28795  12.995  10.634   3.447 -0.2715  0.2055 -0.1334
11949W        W28796   5.387  10.382   1.818 -0.0902 -0.0116 -0.0956
11950W        W28797   1.632   1.313   3.665  0.0140  0.0498 -0.1554
11951W        W28798  10.194  18.212   4.023  0.2218 -0.4246  0.0989
11952W        W28799  19.530  13.392   0.477  0.2156 -0.2803  0.1697
11953W        W28800   7.697  12.808   2.454 -0.0686  0.0063 -0.1101
11954W        W28801   2.208   2.304   4.402  0.3768 -0.3413  0.0103
11955W        W28802  13.889  16.077   1.093 -0.2975 -0.3177 -0.1830
11956W        W28803  11.284   2.049  10.372 -0.2451  0.0182 -0.1908
11957W        W28804   3.745  17.588  10.575  0.0224 -0.2313 -0.2941
11958W        W28805   3.052   8.009   1.148 -0.1936 -0.1337 -0.3019
11959W        W28806   5.887  13.359  10.028 -0.4596  0.1031 -0.0091
11960W        W28807  16.367  14.403  10.942  0.1525 -0.1342 -0.0393
11961W        W28808   7.026  10.668   4.902  0.0907 -0.0964  0.1387
11962W        W28809  18.131  10.600  13.524 -0.0598  0.3021  0.1319
11963W        W28810  17.727   3.232   0.908 -0.0571 -0.1838  0.0729
11964W        W28811  18.306   4.483   3.932 -0.1600  0.1379  0.0035
11965W        W28812   5.450  17.592  10.910 -0.3171 -0.0632 -0.0766
11966W        W28813  10.209   2.813  13.597 -0.1807 -0.3844  0.0100
11967W        W28814  12.977   9.803  12.918 -0.0727  0.0436 -0.6289
11968W        W28815  16.270   6.223   3.149  0.0335  0.2342  0.0526
11969W        W28816   2.751   8.102   1.504  0.0012 -0.0912  0.1181
11970W        W28817  13.581   3.631   4.018  0.1600  0.0618  0.2943
11971W        W28818   4.014  17.798  10.140 -0.0627  0.0327 -0.0651
11972W        W28819  15.109   7.076   3.200  0.3795  0.0151  0.0240
11973W        W28820   2.645  13.077   0.533  0.5252  0.0778 -0.4093
11974W        W28821   6.958  12.536   3.555  0.0813 -0.1003 -0.0014
11975W        W28822   4.189   2.745   1.188  0.1261  0.1371 -0.0191
11976W        W28823   2.832   5.039  10.393 -0.2300 -0.1810 -0.0611
11977W        W28824  18.870   0.029  13.668 -0.0789 -0.0968 -0.2327
11978W        W28825  13.019  19.193   2.484 -0.2214 -0.0328 -0.0168
11979W        W28826   4.729   6.773  10.236 -0.1332 -0.1519  0.1464
11980W        W28827  10.009   7.120  13.470  0.2116 -0.2643  0.1313
11981W        W28828  12.149   8.782   9.978 -0.0274 -0.0595 -0.0284
11982W        W28829  19.014   1.159   2.016  0.2376  0.1248  0.1908
11983W        W28830   2.131   8.545   4.448  0.0108 -0.2669  0.2387
11984W        W28831  14.375  15.328   1.809  0.0770  0.1342  0.2127
11985W        W28832   3.046  17.198  12.403 -0.0185  0.2202  0.2476
11986W        W28833   9.201   8.636   4.280 -0.1714 -0.1819 -0.4575
11987W        W28834  14.250  19.387  13.743  0.0776 -0.1590  0.0217
11988W        W28835  17.761   5.314   1.087  0.0903  0.0691  0.2364
11989W        W28836  18.246   3.093   1.827  0.1611 -0.0703 -0.0979
11990W        W28837   9.715   9.728  11.830  0.1500 -0.0710  0.0475
11991W        W28838   9.559   2.042   5.160 -0.0434 -0.0093 -0.5843
11992W        W28839   6.766   6.472   4.259 -0.6210 -0.0033  0.1703
11993W        W28840  15.459   3.089   4.165 -0.0922  0.1042 -0.0523
11994W        W28841   2.792  10.168  11.441  0.3855 -0.1157 -0.2171
11995W        W28842   5.780  15.044   0.453 -0.3137 -0.1146 -0.3573
11996W        W28843   7.457   1.272  11.079  0.2049  0.0663  0.1375
11997W        W28844   0.094   7.661   4.684  0.0892 -0.1078  0.1907
11998W        W28845   2.404   9.039   1.872 -0.2056  0.1874 -0.1239
11999W        W28846  17.129  12.461  11.033 -0.3584  0.4220  0.0611
12000W        W28847  18.308  11.929  13.320 -0.0657  0.0544  0.0721
12001W        W28848  16.007   9.217   1.855 -0.0166  0.1446 -0.2333
12002W        W28849  13.134  11.966   3.017  0.2175  0.0041  0.2011
12003W        W28850  11.899   4.524  13.006  0.0513  0.0314 -0.1770
12004W        W28851  11.827  16.596   5.026  0.0913 -0.0249 -0.2450
12005W        W28852  19.189  10.743  13.486 -0.1270 -0.1171 -0.0962
12006W        W28853   5.682  12.686   4.290 -0.1820 -0.2953 -0.0787
12007W        W28854  15.904   1.534  13.092  0.0434 -0.0622  0.2659
12008W        W28855   0.936   8.952   1.879  0.0309 -0.2746  0.4142
12009W        W28856  10.883  10.932   1.388 -0.2689 -0.0097  0.0198
12010W        W28857  14.086  14.642  12.395 -0.2130 -0.1079  0.1147
12011W        W28858   4.433  10.715  10.663  0.2454 -0.1196  0.2341
12012W        W28859   5.604  13.883  11.703 -0.0695 -0.1492 -0.0616
12013W        W28860   5.508  17.204  12.154 -0.1542  0.3523 -0.1096
12014W        W28861  10.125  17.976   4.936  0.4009 -0.2112 -0.4291
12015W        W28862  16.185   8.334  13.217 -0.2030 -0.1376 -0.0873
12016W        W28863   9.551  12.811   0.188 -0.3350 -0.0711 -0.1217
12017W        W28864   7.366   5.589  13.897  0.1017 -0.0398 -0.1945
12018W        W28865  16.420  13.153  13.740 -0.0176  0.3998  0.0392
12019W        W28866   5.260  15.830  10.176  0.1960 -0.1447  0.1380
12020W        W28867   2.968  17.922   1.865 -0.3108  0.0338  0.0816
12021W        W28868   1.017   0.680   4.111 -0.1404 -0.2203  0.2009
12022W        W28869   2.501  16.182  11.706  0.5464  0.4684 -0.0993
12023W        W28870  10.889  11.694   2.536  0.2442  0.1157 -0.0845
12024W        W28871  11.034   8.361  12.307 -0.1865  0.0647  0.0360
12025W        W28872  16.254   9.114  12.465 -0.1562  0.0298  0.1033
12026W        W28873  12.521  12.488   0.701 -0.1423 -0.0326  0.0096
12027W        W28874  10.205  18.425  13.632 -0.1048  0.0992  0.4589
12028W        W28875  11.993   8.845  11.793  0.0358 -0.0610 -0.1490
12029W        W28876  19.064   7.378   5.152 -0.1487  0.3595 -0.2803
12030W        W28877   3.200  19.470   9.381 -0.0381 -0.2365  0.1335
12031W        W28878   0.880   8.735  13.926  0.0162  0.1279  0.0887
12032W        W28879   9.353  13.302   1.380  0.0335  0.0587  0.0161
12033W        W28880   5.413  17.736  14.338  0.1108  0.1214 -0.0888
12034W        W28881  12.327  12.378   3.637 -0.1648 -0.0714  0.2852
12035W        W28882   0.119   7.434   0.337 -0.1307 -0.1840 -0.1299
12036W        W28883   5.925  13.675  13.908  0.2157 -0.0720 -0.1618
12037W        W28884  18.641  12.736   5.003 -0.2773  0.3491 -0.2815
12038W        W28885   1.671   2.345  10.604  0.1174  0.0455 -0.0673
12039W        W28886  13.096   8.790   2.775  0.3845  0.0030 -0.3037
12040W        W28887  19.446  11.563   9.990  0.3151 -0.1425 -0.2317
12041W        W28888  16.977   8.455  10.344 -0.1620 -0.0174  0.1629
12042W        W28889   6.113   2.612   5.073 -0.1756 -0.0755 -0.4346
12043W        W28890  13.050   8.929  10.878  0.2533 -0.1249  0.0469
12044W        W28891   2.951  11.059   2.816  0.0182  0.0946  0.3602
12045W        W28892   5.639   2.453  12.699  0.0169  0.0066 -0.0802
12046W        W28893   5.114  15.553   1.670  0.2145  0.0188  0.0157
12047W        W28894   7.284   0.008   2.623  0.0914 -0.0801  0.2714
12048W        W28895  11.080   5.337  11.855  0.0685  0.1616  0.0848
12049W        W28896  11.154  11.897  12.671 -0.2689  0.1707 -0.2197
12050W        W28897   0.675   9.770   2.785 -0.0393 -0.0528  0.1387
12051W        W28898  15.606   1.814   1.423 -0.1218 -0.0356  0.0395
12052W        W28899   2.534   6.796  12.269 -0.1595 -0.0946  0.1943
12053W        W28900  15.635   5.092   0.523  0.2514  0.2450  0.0949
12054W        W28901   1.199   8.773   2.670  0.1921 -0.3993 -0.2903
12055W        W28902   8.966   1.178  12.139 -0.0089 -0.1253  0.0768
12056W        W28903   4.856  11.592  12.991  0.3013 -0.1067  0.0387
12057W        W28904  13.903   8.969  12.939  0.1330 -0.0547 -0.1123
12058W        W28905  12.539   3.231  14.606  0.0776 -0.0599 -0.0935
12059W        W28906  10.178  15.232   5.613  0.1391  0.1124  0.3635
12060W        W28907   2.366  13.070   4.949  0.1115  0.1369 -0.0140
12061W        W28908  17.342   5.458  10.591 -0.3809 -0.2248  0.0198
12062W        W28909  16.825   9.478  13.780  0.4076  0.0537  0.2064
12063W        W28910   4.797   0.838  10.325  0.2902 -0.0037  0.0293
12064W        W28911   6.210  12.255  11.052 -0.1643 -0.0530 -0.0117
12065W        W28912   3.671  13.399   3.923  0.1716  0.2685 -0.0134
12066W        W28913   4.033   4.489  10.606 -0.1556 -0.0862 -0.0942
12067W        W28914  18.531   5.902   1.130  0.1380 -0.1488  0.1082
12068W        W28915   6.853   4.451  10.890  0.0426 -0.2570  0.0892
12069W        W28916  11.836   3.345   3.612  0.1169 -0.2330  0.0254
12070W        W28917   6.282  11.571   2.984  0.2168 -0.2987 -0.0981
12071W        W28918  16.735   1.891   0.656 -0.0813 -0.1211 -0.2110
12072W        W28919  15.430  11.863   0.312 -0.0492 -0.1241  0.4053
12073W        W28920   7.962  18.503   2.073  0.0874 -0.1590 -0.0584
12074W        W28921   5.655  14.327   0.209 -0.0250 -0.5739  0.3156
12075W        W28922   6.726   3.974  13.757  0.1189 -0.1309  0.1251
12076W        W28923   5.533   3.633  13.648  0.0817 -0.5131 -0.1616
12077W        W28924  15.022   3.099   1.121 -0.1864 -0.3672 -0.2377
12078W        W28925   4.649  16.330  10.051  0.0089  0.0363 -0.4686
12079W        W28926  19.039   3.135  10.417  0.0308  0.3251  0.3050
12080W        W28927   7.951  17.851   0.460 -0.3205  0.2515  0.1707
12081W        W28928   5.776  11.271  11.102  0.3386 -0.1109  0.2621
12082W        W28929  10.591  11.873  11.703  0.0102 -0.0357  0.1586
12083W        W28930  13.592  10.737  10.186  0.2048  0.0160  0.1724
12084W        W28931  10.946  16.922  10.980  0.0190  0.2169 -0.0312
12085W        W28932   6.654  18.934   5.313 -0.0612  0.4066  0.1087
12086W        W28933   0.881   9.901   5.286  0.2479  0.0696  0.0460
12087W        W28934  17.820   5.711   9.726  0.1958 -0.1129 -0.0731
12088W        W28935   2.521   6.819  11.536 -0.0089 -0.2252 -0.3082
12089W        W28936  17.076  18.187  11.559  0.2922 -0.0709 -0.2081
12090W        W28937   8.815  12.414  14.340  0.2566  0.0516 -0.0053
12091W        W28938   8.828   6.829  11.143 -0.1260 -0.1191 -0.3286
12092W        W28939   9.201  13.268   4.152  0.2144 -0.0263  0.2872
12093W        W28940   3.763  17.880   2.999 -0.4831 -0.2034 -0.0815
12094W        W28941  13.311  12.443  11.462 -0.1082 -0.1713 -0.1081
12095W        W28942  18.599  16.355   1.186  0.1614  0.0882 -0.0919
12096W        W28943   0.993  17.847   0.623 -0.0306  0.2086  0.3846
12097W        W28944  13.234  11.965   5.788 -0.2167 -0.2172 -0.0148
12098W        W28945   7.804  17.993   1.867  0.1157 -0.2737  0.1314
12099W        W28946   6.170   1.774   3.857  0.0950  0.0793  0.1919
12100W        W28947  17.933   2.168   0.305  0.2796  0.0296 -0.0036
12101W        W28948   3.837   4.212   4.750  0.0595 -0.0456 -0.1392
12102W        W28949   1.019   1.850  11.303 -0.1288  0.0840 -0.3157
12103W        W28950   2.281  18.122   4.949  0.1260  0.3956 -0.0992
12104W        W28951  14.405  10.156  12.782  0.0609  0.0825 -0.0386
12105W        W28952   4.496   9.338  13.674 -0.4317 -0.0095  0.3233
12106W        W28953   1.197  18.582  14.232 -0.1596 -0.1727 -0.0043
12107W        W28954   8.690  12.445   3.773  0.1166  0.0638 -0.1268
12108W        W28955   1.438   1.841   1.621  0.2393  0.0163  0.4072
12109W        W28956  14.536  10.300  10.221  0.0938 -0.0352 -0.0614
12110W        W28957   3.311   8.674   0.211  0.1195  0.1470 -0.0427
12111W        W28958  11.490   2.907   3.021 -0.1839 -0.0683  0.0962
12112W        W28959   1.720  13.386   0.322 -0.2530  0.0430 -0.2416
12113W        W28960   9.687  18.831   4.928 -0.1813  0.0073  0.0040
12114W        W28961   8.933   4.848   2.202  0.0602  0.0093  0.0316
12115W        W28962  14.729  10.442   5.269 -0.0550  0.0998 -0.0008
12116W        W28963  18.979   3.203   3.878  0.0644  0.2234 -0.0350
12117W        W28964  10.880   9.710   4.567 -0.1270  0.2660  0.1627
12118W        W28965  12.829   1.468   0.211 -0.2562  0.0788 -0.1922
12119W        W28966   3.077  16.513  10.770 -0.1787 -0.0691 -0.0047
12120W        W28967   6.960  18.589  11.583 -0.2337  0.2434 -0.4187
12121W        W28968  12.277  11.885  10.602 -0.0688 -0.2593 -0.1020
12122W        W28969  15.166  12.591  13.645  0.3709  0.2224 -0.0143
12123W        W28970  11.909   0.887  11.395  0.2171 -0.2336 -0.0753
12124W        W28971  11.846  10.927  13.923  0.0667  0.2606 -0.0944
12125W        W28972  16.383   4.759  10.802 -0.1376 -0.0151 -0.2542
12126W        W28973   2.690  16.643  10.475  0.1437  0.1753  0.1715
12127W        W28974   4.458  18.618  13.883  0.1548  0.0589  0.1201
12128W        W28975   0.823  16.865  14.523  0.2367  0.0203  0.0134
12129W        W28976   6.124   9.879   0.735  0.1974 -0.3112  0.1545
12130W        W28977   4.771   5.825  13.274  0.1420  0.0829  0.1110
12131W        W28978  18.703   3.037   2.993 -0.0789 -0.1314 -0.0934
12132W        W28979   7.406   3.986   0.925  0.1582  0.0741  0.2127
12133W        W28980   0.099   3.337  10.117  0.0831  0.1718 -0.1216
12134W        W28981  15.239  13.852  10.893 -0.0206 -0.0823  0.1754
12135W        W28982   8.491  17.747   3.959  0.3563  0.0053 -0.1835
12136W        W28983  19.230  17.315  14.183 -0.0246  0.0816  0.1087
12137W        W28984   9.036   7.425   3.951 -0.2025  0.0871 -0.0334
12138W        W28985   2.573  15.460   2.486 -0.2273  0.2837 -0.1639
12139W        W28986   8.522  13.746  13.607 -0.2231  0.1785  0.2815
12140W        W28987  17.209  11.118   0.970 -0.0986 -0.0500  0.2456
12141W        W28988  17.046   5.770   3.705 -0.0268  0.0310 -0.1861
12142W        W28989  13.039   3.285  12.324  0.1870  0.2530 -0.1565
12143W        W28990  11.360   0.402   0.094 -0.2661 -0.1288  0.2889
12144W        W28991   9.492   3.569   0.718 -0.2062 -0.4807 -0.1448
12145W        W28992   5.441  11.291   4.307  0.1272 -0.2778 -0.0375
12146W        W28993  13.846   3.031  11.734 -0.4597  0.0725  0.1144
12147W        W28994  14.645   5.671  11.001 -0.3298  0.1689  0.1457
12148W        W28995   7.729   7.372   3.356  0.0214  0.4253  0.0961
12149W        W28996  10.527   2.459   2.448  0.1838 -0.0611 -0.1030
12150W        W28997   8.614   5.122   1.816  0.5017  0.2364 -0.0030
12151W        W28998  10.726   4.953   4.371 -0.0666 -0.3945 -0.4570
12152W        W28999   0.339  11.737  12.086 -0.0818 -0.0162  0.0677
12153W        W29000  14.247   0.543  14.263  0.2831 -0.1895 -0.0772
12154W        W29001  16.654  15.122   0.564  0.0496 -0.1413 -0.0044
12155W        W29002  16.880   5.469  13.296 -0.0449  0.0200  0.0667
12156W        W29003   1.544  18.296   9.822  0.0855  0.0308  0.0656
12157W        W29004  10.956  14.227  11.141 -0.0038 -0.2120  0.0838
12158W        W29005   0.337  12.188  11.860 -0.2270  0.1200  0.0998
12159W        W29006  18.843  12.338   2.960 -0.1591  0.0695  0.0320
12160W        W29007  11.976  18.713  14.104 -0.1547  0.1147 -0.0537
12161W        W29008   2.969   5.492   0.134 -0.0858 -0.1781  0.2809
12162W        W29009  14.440  18.080  12.551  0.2953  0.0673 -0.0190
12163W        W29010  15.624  17.842   3.660  0.1164 -0.1153 -0.0279
12164W        W29011   7.811   9.036   2.360  0.2919 -0.6375 -0.0489
12165W        W29012  18.480   9.129  11.645  0.1188  0.0137 -0.1144
12166W        W29013  17.997  10.568   0.681 -0.3658 -0.2477 -0.0225
12167W        W29014  14.935   0.138   9.240  0.1920  0.1575 -0.0924
12168W        W29015   1.036   9.476   1.446 -0.1982 -0.2088  0.1282
12169W        W29016  12.538  17.845   0.509  0.1194 -0.0097  0.1368
12170W        W29017   8.716   3.015  11.108 -0.0451  0.1280 -0.1403
12171W        W29018  14.982  17.941  13.725  0.0993 -0.2689  0.0824
12172W        W29019   3.640  19.433   1.699  0.2108  0.2057  0.2149
12173W        W29020  16.216   9.029  14.557 -0.3887  0.0926 -0.3406
12174W        W29021   4.072   0.401  13.668 -0.0313  0.3139 -0.0667
12175W        W29022   9.464  13.455   0.537  0.0043 -0.0917  0.2888
12176W        W29023  18.908   8.258  12.091  0.2730 -0.0748  0.2073
12177W        W29024   7.212   2.939   4.712  0.2040 -0.2283 -0.1023
12178W        W29025   3.786   6.728  14.028  0.0122  0.1287 -0.4229
12179W        W29026   5.050   6.633   0.623 -0.1886  0.0997 -0.1777
12180W        W29027  14.186  17.281   0.496 -0.0585  0.2470 -0.2445
12181W        W29028  18.813   6.172  11.049 -0.0195  0.1609 -0.0922
12182W        W29029  19.130   3.963   0.235 -0.0235  0.1326 -0.1224
12183W        W29030   6.927  12.671  10.518  0.0094 -0.1353 -0.2036
12184W        W29031  10.155  19.292   1.981  0.0490  0.0908  0.2662
12185W        W29032  10.988  19.260   2.839  0.0643  0.3514 -0.2125
12186W        W29033   5.848  16.266  12.296 -0.0256 -0.4551 -0.1806
12187W        W29034  16.960  16.315  11.078 -0.0731  0.0957 -0.2148
12188W        W29035   4.663  10.217   0.549  0.0518  0.0899 -0.1886
12189W        W29036   9.391   9.572   3.246 -0.1498 -0.3734 -0.1210
12190W        W29037   3.263   7.730  14.398  0.2128  0.1499 -0.2570
12191W        W29038   7.501   0.860  10.175 -0.1936  0.2171 -0.1329
12192W        W29039  12.434  16.793   0.492  0.5641  0.0257  0.2518
12193W        W29040  14.740   8.331   0.347 -0.1363 -0.1353 -0.3257
12194W        W29041   0.135   8.723   0.061 -0.1077  0.0566  0.1168
12195W        W29042   3.533  13.538   0.500 -0.1251 -0.0165  0.2508
12196W        W29043  19.586   9.738   1.727 -0.1435 -0.0293  0.0986
12197W        W29044  14.575  19.423   0.410 -0.2313 -0.1789  0.2383
12198W        W29045  15.073   4.063  11.665 -0.0407  0.0556  0.1792
12199W        W29046  12.967   9.957   1.650 -0.1034 -0.1418 -0.0589
12200W        W29047  10.899  17.618  10.296  0.3503  0.1992 -0.3128
12201W        W29048   0.896   6.488   4.774 -0.1800 -0.5403  0.0021
12202W        W29049   5.723  10.081  12.682  0.1939  0.0906 -0.2676
12203W        W29050   0.147   5.797  12.191  0.0504  0.0593  0.1079
12204W        W29051   2.972  11.483   3.724  0.0748  0.1995  0.0907
12205W        W29052  17.266   2.042  12.268 -0.0177 -0.0108 -0.1762
12206W        W29053   0.558  15.097  10.551  0.0899  0.2085 -0.2372
12207W        W29054  13.866  10.956   1.833  0.0931 -0.1016  0.1424
12208W        W29055   4.031  12.231   1.357  0.0774  0.3486 -0.1610
12209W        W29056  17.719  10.580  14.241 -0.0024  0.3185  0.0206
12210W        W29057  11.086   9.977  11.767 -0.3029  0.3766  0.0392
12211W        W29058  17.962  18.236  10.947 -0.1651  0.0893  0.0604
12212W        W29059  12.119   4.442   4.959 -0.1766 -0.0338 -0.0460
12213W        W29060  13.340   3.115  11.929  0.2406  0.0645  0.1112
12214W        W29061  18.090  14.022  13.714  0.1749  0.2751  0.3660
12215W        W29062   9.323  14.157   3.403  0.2551  0.0374 -0.5055
12216W        W29063   0.556   6.727   0.603  0.1661 -0.1707  0.2595
12217W        W29064  13.560   6.343  12.623 -0.3734  0.1196 -0.0657
12218W        W29065   9.172  16.989  11.987  0.0674  0.1254  0.1216
12219W        W29066  16.152  15.972   0.711 -0.2503  0.0255  0.2633
12220W        W29067   3.109  13.807   1.847  0.1791  0.0454  0.1348
12221W        W29068   6.913  10.740  11.341 -0.1237  0.0524 -0.0897
12222W        W29069  12.407   5.455  12.600  0.0848  0.0322 -0.0049
12223W        W29070  14.900  16.512   4.425 -0.1742  0.0238 -0.3796
12224W        W29071  15.333   5.082   2.824  0.0224 -0.1900  0.1885
12225W        W29072   2.386  18.250   2.443  0.0107 -0.1075  0.1310
12226W        W29073   4.750  16.849  11.817 -0.1623  0.3044 -0.1180
12227W        W29074   3.836  17.191   4.692  0.2036  0.0066 -0.0557
12228W        W29075   2.927   2.415   1.599 -0.0902 -0.0623 -0.2054
12229W        W29076  13.428   4.964   4.173 -0.1240 -0.1391 -0.3546
12230W        W29077   7.172  15.191   3.319 -0.1537  0.0541 -0.0184
12231W        W29078   2.251  16.621  12.940 -0.1383 -0.2212  0.1395
12232W        W29079   0.228  12.694   0.853  0.0859 -0.0518 -0.1286
12233W        W29080  18.081   3.660   1.980  0.2311 -0.0586 -0.0455
12234W        W29081   7.764   6.235   0.918 -0.0856 -0.1455  0.0152
12235W        W29082   1.240   2.647  10.799 -0.1528 -0.0510 -0.2824
12236W        W29083  15.848   8.597   4.123  0.1219 -0.0219  0.1245
12237W        W29084  16.342   1.648   4.766  0.2125  0.0206  0.1725
12238W        W29085   6.603  14.436  10.263  0.0070  0.0095  0.1011
12239W        W29086   2.127   1.047  11.837 -0.1864 -0.0548  0.2380
12240W        W29087  17.116  11.966  13.361 -0.1189 -0.1114  0.0687
12241W        W29088   4.265  11.911   4.624  0.1601  0.2735  0.1258
12242W        W29089  18.496   6.456   4.590  0.2127 -0.3112  0.2035
12243W        W29090  15.276   6.514   4.499 -0.0709  0.3849 -0.2452
12244W        W29091   9.206  17.641  11.504  0.2021 -0.1420 -0.0094
12245W        W29092  12.467  11.832   9.715  0.0225 -0.3378  0.4709
12246W        W29093  19.179   8.702  12.412  0.0518 -0.0394  0.1041
12247W        W29094  18.455   5.244  10.316 -0.2542  0.0074  0.2918
12248W        W29095   8.923  13.811   0.514  0.1574  0.2024 -0.4188
12249W        W29096   0.226  17.602  12.565  0.2075  0.0798 -0.1259
12250W        W29097   5.907   1.466   2.242  0.1759  0.0509 -0.1651
12251W        W29098  14.960   0.458  11.200  0.0257  0.1141  0.1268
12252W        W29099  12.250  17.067   3.761 -0.1644 -0.0740 -0.0517
12253W        W29100   6.223  11.945  13.512 -0.0170 -0.0610  0.0524
12254W        W29101   6.019   9.395   4.772 -0.0477  0.2104 -0.3838
12255W        W29102   0.611  11.035  10.586  0.0162  0.0574 -0.1060
12256W        W29103  14.009   1.426  11.009  0.0188  0.0166  0.0523
12257W        W29104   7.340  13.938  11.397 -0.0885  0.0377 -0.1703
12258W        W29105   2.718  15.185   2.041 -0.0940 -0.1425  0.2192
12259W        W29106   5.956   1.066  11.560  0.0302 -0.0330 -0.0744
12260W        W29107   8.433   4.492  14.001  0.2514 -0.1448 -0.2538
12261W        W29108   7.507   8.275   2.412 -0.0917 -0.1459  0.2232
12262W        W29109   7.184   9.420  14.085 -0.0894  0.3800  0.1666
12263W        W29110  18.306   1.007   4.266  0.0734  0.1294  0.1927
12264W        W29111   9.118  18.456  10.961  0.0046 -0.2290 -0.0491
12265W        W29112   7.814   7.225  12.772  0.0283  0.3741  0.2123
12266W        W29113   0.413   9.372   4.995  0.0678 -0.2909  0.0278
12267W        W29114  13.985   5.060  13.702 -0.1630  0.1218  0.0745
12268W        W29115  10.829  16.877   4.175  0.0069  0.4401  0.1995
12269W        W29116   9.345   9.922   2.796  0.1850 -0.2255 -0.0479
12270W        W29117   6.222   7.340  10.225  0.0698 -0.2144  0.0961
12271W        W29118  10.023   4.175   1.474  0.0314 -0.0552 -0.1215
12272W        W29119   7.790   4.727   1.923  0.0122  0.2881  0.1494
12273W        W29120  19.362   8.953  14.497  0.2129 -0.1318 -0.1080
12274W        W29121   5.008  17.632   3.900 -0.1281  0.0642  0.3228
12275W        W29122   8.531   4.213   4.278  0.1273  0.0457 -0.1784
12276W        W29123  18.619  17.130   0.045 -0.2098 -0.2769  0.4058
12277W        W29124   3.908   9.030  12.697  0.1934  0.1811 -0.1137
12278W        W29125   1.264   9.128   4.308 -0.0350  0.3417  0.0600
12279W        W29126  17.168   9.656   1.399  0.1594  0.2911 -0.1959
12280W        W29127  10.701   3.908   3.265 -0.0438 -0.1148  0.0781
12281W        W29128  15.625   7.249   0.747 -0.1292 -0.0502 -0.0917
12282W        W29129   6.326  18.140  13.294  0.1876 -0.0686  0.1436
12283W        W29130  10.213   7.180   3.565 -0.1538  0.2061 -0.0188
12284W        W29131   4.104  17.772   3.391  0.0196 -0.3209 -0.3808
12285W        W29132   3.632  18.160   0.093  0.2320  0.1827  0.0505
12286W        W29133  11.953  10.371  11.391  0.0997 -0.2552  0.0740
12287W        W29134  11.620   5.103   3.248  0.3228  0.2672  0.1178
12288W        W29135  10.919   0.897   2.577  0.1251  0.1412 -0.1380
12289W        W29136  13.390  15.018   2.656  0.0920 -0.1617  0.0473
12290W        W29137  18.256   5.501   1.790 -0.0944 -0.0822 -0.1118
12291W        W29138  10.941   5.853  14.454  0.2591  0.0538  0.0791
12292W        W29139   6.637  18.597   0.583  0.2944 -0.0878 -0.1917
12293W        W29140   6.262  19.603  12.180  0.0558  0.2954 -0.0927
12294W        W29141   0.483  10.983  13.919 -0.1268  0.3355 -0.2268
12295W        W29142  11.046  11.373   3.497  0.3104 -0.0617 -0.1396
12296W        W29143  12.000  14.776   5.163  0.0160  0.0877  0.2066
12297W        W29144  15.017  18.980   0.313 -0.1815 -0.2174 -0.0364
12298W        W29145   8.637  12.273   4.287 -0.1690  0.0576  0.0416
12299W        W29146  11.521   2.965  12.711 -0.1556  0.4196  0.2927
12300W        W29147  13.159  14.121  14.055 -0.1116  0.2060 -0.0173
12301W        W29148  12.681  14.055  12.137 -0.0279  0.0281 -0.0277
12302W        W29149  17.892  10.428   2.052  0.0420 -0.0222 -0.0108
12303W        W29150  10.315  10.909  11.590  0.2617 -0.3422 -0.0863
12304W        W29151  16.642   2.776   9.403 -0.0493 -0.2000  0.1114
12305W        W29152  17.280  10.202   3.310 -0.1373  0.1340  0.1564
12306W        W29153  11.401   5.128  13.918 -0.1131 -0.2937  0.2808
12307W        W29154   6.500   1.268  12.701 -0.0165  0.0055  0.2397
12308W        W29155  12.544   4.097  10.547  0.1366 -0.3372 -0.0693
12309W        W29156   0.801   1.065  14.598  0.1739  0.1030 -0.1753
12310W        W29157  17.830  15.196  12.359  0.0635  0.1453  0.3819
12311W        W29158   9.602   2.645  11.326  0.0778 -0.1142  0.0394
12312W        W29159   6.264  11.221  11.683 -0.0884 -0.1228 -0.1245
12313W        W29160   2.778   6.547  11.909  0.0597  0.1965  0.1144
12314W        W29161   2.955  11.686  12.939  0.1335 -0.2876 -0.1739
12315W        W29162   8.780  17.363  11.444 -0.2361 -0.1969 -0.2340
12316W        W29163   7.395   4.850   0.835  0.0783 -0.2303 -0.1739
12317W        W29164  17.930   9.630   0.061 -0.0620 -0.3013 -0.0155
12318W        W29165   7.594   8.512   4.787 -0.0911  0.0697 -0.0237
12319W        W29166  14.367   2.289   1.199  0.0047  0.1063 -0.2864
12320W        W29167  17.791  17.802  11.302 -0.3250 -0.1155 -0.0067
12321W        W29168   8.970  11.599   2.621  0.1872 -0.1772 -0.0578
12322W        W29169   1.556  18.063  11.314 -0.3694 -0.0973 -0.1528
12323W        W29170  15.470  18.670   0.353  0.1731  0.0011  0.0092
12324W        W29171  17.619   6.557  12.515 -0.3833 -0.0595 -0.0334
12325W        W29172   2.584   6.121  12.866  0.2657 -0.4033 -0.2659
12326W        W29173  10.573  17.963   0.323 -0.0518 -0.2247  0.1845
12327W        W29174  16.950  14.475  10.705 -0.3765 -0.0572 -0.0178
12328W        W29175   1.372   6.179   1.583  0.0263 -0.1743 -0.0945
12329W        W29176   3.953  18.619  13.737 -0.0655 -0.0943  0.2086
12330W        W29177   5.307  10.054  12.944 -0.1835  0.3333 -0.2265
12331W        W29178   8.792   2.553  11.215 -0.2002  0.0586  0.2413
12332W        W29179  16.911   7.947  14.137 -0.3904  0.2145  0.2053
12333W        W29180   0.079  16.719  11.365 -0.0397 -0.2999 -0.0204
12334W        W29181   8.375  16.397  11.758  0.1876  0.0530 -0.1138
12335W        W29182  17.912  16.325   2.974  0.3210 -0.0019  0.2380
12336W        W29183  11.338   9.530  12.532 -0.3812  0.2448  0.0365
12337W        W29184  15.443  17.065  12.094 -0.0204 -0.1088 -0.0382
12338W        W29185   0.305   6.951   0.177 -0.0505  0.2795 -0.0191
12339W        W29186   1.629  18.155   0.298  0.1087  0.0926  0.2743
12340W        W29187   3.875   2.540  10.235  0.0758  0.0789  0.2840
12341W        W29188  15.860  14.986  14.294  0.2859 -0.3110  0.4175
12342W        W29189  13.773   8.867   2.302  0.2456  0.2395 -0.1942
12343W        W29190  14.210  14.144  12.179 -0.2724 -0.3842  0.3107
12344W        W29191   1.218  10.486   0.264 -0.1494  0.1307  0.0253
12345W        W29192  11.775   4.541  12.529  0.1850 -0.0352  0.1636
12346W        W29193   7.735   2.983  13.544 -0.0518  0.1206 -0.0924
12347W        W29194  14.558   0.773  10.270 -0.2214  0.3486  0.1763
12348W        W29195  11.572  11.371   1.947 -0.1581  0.1492 -0.0771
12349W        W29196  17.056  14.272   1.492  0.1753  0.2295  0.1245
12350W        W29197   1.473   0.551  10.869 -0.1309  0.3194  0.1007
12351W        W29198   7.865   5.050   2.565  0.1821 -0.0874 -0.2101
12352W        W29199   3.316   0.361  10.809 -0.2193 -0.2510  0.0565
12353W        W29200  15.166   1.179   1.971 -0.1547  0.2071 -0.1014
12354W        W29201   0.123  16.995   1.934  0.1326 -0.3840  0.1701
12355W        W29202   8.712  12.489  13.809  0.0936  0.2947  0.0675
12356W        W29203   8.869  16.834   2.578 -0.0862  0.1724  0.0074
12357W        W29204   4.180  16.652   3.891 -0.0512 -0.1069 -0.1746
12358W        W29205  11.027  16.124  12.073  0.1639  0.1587 -0.1359
12359W        W29206  11.434  16.066   0.425  0.1177 -0.1034 -0.0362
12360W        W29207   3.843  16.761  11.046  0.0447 -0.0009 -0.1285
12361W        W29208  12.817  16.943  10.508  0.2038 -0.2653 -0.2819
12362W        W29209   5.407  11.042  11.585 -0.4789 -0.3289  0.2301
12363W        W29210   9.776  11.545  14.541 -0.1616 -0.2109 -0.3961
12364W        W29211  13.949   5.002  13.187 -0.2133  0.1367  0.0805
12365W        W29212   9.990  17.125   1.395  0.1630 -0.2180  0.3678
12366W        W29213  16.158  11.956   1.226 -0.0016  0.2489 -0.0900
12367W        W29214   5.919  15.483   4.127 -0.2478 -0.2299 -0.2697
12368W        W29215  11.466   2.683  13.561 -0.1512  0.1250  0.2586
12369W        W29216   8.870   9.605   0.171  0.1271  0.1826  0.3555
12370W        W29217  16.637   9.158  13.248  0.3281 -0.2447 -0.0134
12371W        W29218  10.758  13.975  12.530 -0.1337 -0.4656 -0.0543
12372W        W29219  16.855  19.453   0.737  0.0363 -0.1616  0.1270
12373W        W29220   6.664  17.302   3.162  0.1089 -0.0783  0.1055
12374W        W29221   1.935  13.101  13.037  0.0057  0.3509 -0.2007
12375W        W29222   6.704  10.341   1.877 -0.0274  0.1611 -0.1673
12376W        W29223   2.923   6.592  14.027  0.0825 -0.0760  0.1210
12377W        W29224   8.961  10.834   3.525 -0.1561  0.0117 -0.2174
12378W        W29225   9.470  13.602   2.130  0.2830  0.1527  0.1540
12379W        W29226   9.699  15.476   4.124 -0.0153 -0.1560  0.0769
12380W        W29227   2.143   2.120  11.453 -0.1741  0.0767 -0.4047
12381W        W29228  18.755  11.563   4.107 -0.1482  0.0387  0.0224
12382W        W29229  15.545  14.871   1.957 -0.0855 -0.1246 -0.1420
12383W        W29230   0.933  10.463   5.315 -0.1054  0.1266 -0.3278
12384W        W29231  18.668   2.783  10.519 -0.0040  0.1408  0.0995
12385W        W29232   5.850  12.739  12.681  0.1683 -0.0849  0.0051
12386W        W29233  15.054   4.472   2.056  0.1607 -0.1912  0.1932
12387W        W29234  13.125   1.320  11.672 -0.2037 -0.1752 -0.4137
12388W        W29235   7.086   6.829   4.458 -0.0254  0.0147 -0.2626
12389W        W29236   8.449   1.894  12.836  0.2798 -0.1360 -0.0869
12390W        W29237   5.555   0.948   2.703  0.0254  0.3119 -0.2035
12391W        W29238   8.782  15.744  11.438  0.0200  0.1595  0.2441
12392W        W29239   9.317  15.189  14.206 -0.0796 -0.0437 -0.1150
12393W        W29240  13.713  16.532  11.991 -0.2211  0.1664  0.1072
12394W        W29241   2.094  13.800  11.624  0.0167  0.1272  0.2465
12395W        W29242  17.011   1.978  10.777  0.0142  0.3737 -0.1549
12396W        W29243  15.161  17.246  12.520 -0.3580 -0.0275 -0.3471
12397W        W29244   2.927   4.493  11.146  0.0545 -0.1878  0.0577
12398W        W29245  16.474   7.331   2.596 -0.0409  0.0242 -0.1664
12399W        W29246  12.352   4.371   2.472 -0.1638  0.0566 -0.1271
12400W        W29247  17.497  11.363  12.535  0.1397  0.0357 -0.4943
12401W        W29248  11.302  16.176   3.491 -0.2229  0.1704 -0.0349
12402W        W29249   7.879  10.236   0.349  0.4060 -0.0604  0.2176
12403W        W29250   7.792   6.436   2.777 -0.0345  0.0266  0.0630
12404W        W29251  14.775   0.202   5.362  0.0296  0.0131  0.0191
12405W        W29252   6.163   6.036  12.449  0.0011 -0.0501  0.1127
12406W        W29253  13.249   5.775   0.717  0.4964 -0.2362  0.1780
12407W        W29254   4.106  19.604   2.980  0.0647 -0.0548 -0.0677
12408W        W29255  11.514  14.957  11.885  0.0497 -0.3008 -0.1517
12409W        W29256   6.532  15.210  14.364  0.3037 -0.4480 -0.0337
12410W        W29257   4.693  13.134   1.640 -0.1451 -0.0667  0.1324
12411W        W29258   1.410   2.581  12.318 -0.1561  0.2910 -0.0788
12412W        W29259   3.928  16.239   2.081 -0.1504  0.0383 -0.0762
12413W        W29260  10.221   3.343   1.525 -0.1736 -0.1379  0.3288
12414W        W29261  14.382   7.246   4.089 -0.0425 -0.0314  0.0910
12415W        W29262   1.059   8.862   5.170  0.2299 -0.1481  0.1903
12416W        W29263   3.676  10.623   4.906 -0.2191 -0.2019 -0.2638
12417W        W29264   7.373   5.276   1.101 -0.1514  0.1245 -0.1257
12418W        W29265  16.125  11.767   0.602  0.2167  0.0850  0.0861
12419W        W29266   5.853   4.291  12.983  0.0247  0.0907 -0.0377
12420W        W29267   2.523   2.122   2.397 -0.3174 -0.0182 -0.2601
12421W        W29268   6.773  15.785   0.647  0.0559 -0.1610  0.3143
12422W        W29269  15.298   0.106  12.333  0.3296  0.0058  0.0857
12423W        W29270  19.633   1.605   1.920  0.0782  0.1318  0.2430
12424W        W29271   7.660  15.530  10.704  0.1290 -0.0400 -0.0041
12425W        W29272   2.613   1.116  12.240  0.1365  0.1712  0.0872
12426W        W29273   9.642   9.190   0.249 -0.0179 -0.0253 -0.0426
12427W        W29274   8.176  15.154   5.173  0.1536 -0.2971 -0.1958
12428W        W29275  10.593   2.744   0.252 -0.3164 -0.1485  0.0112
12429W        W29276   9.404  12.213  10.509  0.0271  0.0072 -0.0770
12430W        W29277  11.452  15.248   3.460  0.0552 -0.1662  0.0453
12431W        W29278   8.660   3.438  12.975  0.2393  0.1121  0.0406
12432W        W29279  14.918  11.137  14.485 -0.1097  0.0623 -0.0826
12433W        W29280  17.365  19.160   2.682 -0.4660 -0.1723  0.1135
12434W        W29281   7.405  10.655  13.568  0.0998  0.1595  0.5046
12435W        W29282   6.616   3.122  12.766  0.0279 -0.1543  0.2182
12436W        W29283  14.984   7.742   0.212  0.0178 -0.1406  0.0294
12437W        W29284  15.969  10.859   5.330  0.1479 -0.1462 -0.2808
12438W        W29285   1.819  15.705  14.293  0.1505 -0.4435  0.1560
12439W        W29286  13.154   9.127   0.622 -0.1981 -0.0722 -0.3147
12440W        W29287   4.940  18.531   0.137  0.0076 -0.0517  0.0384
12441W        W29288   4.299  16.649  11.965 -0.1595 -0.1780 -0.2955
12442W        W29289   3.656   5.704   2.747 -0.0852 -0.0419 -0.2064
12443W        W29290  14.762   8.860   2.406 -0.3825  0.2024 -0.0462
12444W        W29291  15.651  13.202   1.532  0.0079 -0.0580 -0.2297
12445W        W29292   6.930  11.132   2.014 -0.1399 -0.3791 -0.0825
12446W        W29293  14.457   7.416  11.652 -0.0819 -0.0450  0.0387
12447W        W29294  18.066   5.276   2.200  0.0932 -0.2286 -0.2939
12448W        W29295   9.965   0.053   1.450  0.4264  0.2514 -0.1338
12449W        W29296   3.806  13.778   0.846 -0.1396 -0.1484 -0.0357
12450W        W29297   6.868  14.660   3.384  0.1169  0.0017  0.0640
12451W        W29298  15.715  18.607   4.159 -0.3241 -0.3316  0.1764
12452W        W29299   5.889   3.690  13.139  0.2006 -0.0053 -0.1090
12453W        W29300  13.260  14.876  11.052  0.1360  0.2377  0.1072
12454W        W29301  10.727   2.732   1.105  0.0538  0.1018 -0.2495
12455W        W29302  14.759   4.238  12.106 -0.0581  0.0999  0.2383
12456W        W29303  17.318  13.974  11.084 -0.3562 -0.2049 -0.1178
12457W        W29304  11.829  12.600  12.463 -0.0891 -0.4381 -0.1721
12458W        W29305   7.486   2.789   0.342  0.1007  0.0944  0.3150
12459W        W29306  11.803  10.021  13.576 -0.0987 -0.0443  0.0680
12460W        W29307   4.866  16.371  13.828  0.4934  0.0438 -0.0647
12461W        W29308   0.296   7.613  12.470 -0.2412  0.1442  0.2569
12462W        W29309   5.961  14.953  10.468 -0.2961  0.2057 -0.0385
12463W        W29310  10.846  11.940  10.439  0.0062 -0.4791  0.0948
12464W        W29311  14.799   0.989   1.226 -0.1796 -0.0354  0.0710
12465W        W29312   4.126   7.991   5.518 -0.4801 -0.1718 -0.1033
12466W        W29313  14.850   5.900   0.972 -0.0601  0.1677  0.1283
12467W        W29314   4.882  16.464   4.493 -0.0302  0.1837 -0.1003
12468W        W29315   2.981   2.258   2.094  0.0437  0.0216  0.2847
12469W        W29316   3.089   4.219   1.091 -0.1428 -0.2096 -0.0904
12470W        W29317   5.786  18.895  10.024 -0.3114 -0.1813 -0.1379
12471W        W29318   0.345   6.577  11.329 -0.1482 -0.0948  0.4040
12472W        W29319   4.322  16.791  10.913 -0.2609 -0.0318  0.0701
12473W        W29320   7.582  18.174  11.148  0.3469  0.1760 -0.3616
12474W        W29321  12.598  18.312  11.812 -0.2764  0.0269  0.3451
12475W        W29322  10.296  12.235   0.215  0.2772  0.0003 -0.3295
12476W        W29323   0.020   4.272   0.221 -0.1143  0.1915 -0.1917
12477W        W29324  12.449  14.768  13.564  0.0584  0.0705  0.3737
12478W        W29325   0.031  17.790  13.401 -0.4075 -0.0347  0.0395
12479W        W29326   8.588  16.020  13.488  0.0234  0.2698  0.0189
12480W        W29327  17.077   7.670   5.223 -0.0471 -0.4088  0.3807
12481W        W29328   7.918   5.385   9.537 -0.2903  0.1988  0.3542
12482W        W29329  10.977  14.678   2.667  0.1524 -0.0672 -0.2008
12483W        W29330   8.931  12.731   4.210 -0.0905  0.1070  0.3032
12484W        W29331   8.289   9.447  13.637  0.0832  0.0918  0.1491
12485W        W29332   1.954  14.715  13.998 -0.0953 -0.0045  0.1531
12486W        W29333  12.220   0.910  11.881 -0.1637 -0.1900 -0.3312
12487W        W29334   1.375   9.050   3.793  0.2117 -0.1713  0.2711
12488W        W29335  19.297  19.588  11.711  0.2423 -0.2510  0.0098
12489W        W29336   0.872  17.605   0.152 -0.0379 -0.2547 -0.1722
12490W        W29337   4.344  16.443  13.714 -0.0511 -0.0635  0.2020
12491W        W29338  16.697   3.775   0.103 -0.2765  0.0256  0.0211
12492W        W29339  16.833  11.165   1.320  0.0814 -0.2000 -0.0090
12493W        W29340   5.975  13.360  13.005  0.1310  0.0248  0.1429
12494W        W29341   2.350  14.792  11.893 -0.2766 -0.0666 -0.2671
12495W        W29342   1.394  14.420  11.489 -0.3089  0.0747 -0.0144
12496W        W29343  15.293   9.023  12.135 -0.1412 -0.3553  0.0653
12497W        W29344   9.458   3.056   0.975  0.1228  0.0969 -0.3074
12498W        W29345   9.541   0.416   0.151 -0.1312 -0.0774 -0.1045
12499W        W29346   3.590  15.619  10.248 -0.0993 -0.0700  0.1524
12500W        W29347  19.290  10.922  11.183 -0.2934  0.0226  0.0611
12501W        W29348   6.549   5.161   2.599  0.2345 -0.4714 -0.2252
12502W        W29349  19.529   0.027   2.652  0.0309  0.0544  0.0513
12503W        W29350  11.703  19.048  12.558 -0.0080  0.1534 -0.0664
12504W        W29351  15.624   6.750   0.821 -0.0941  0.0123 -0.0124
12505W        W29352  18.406  11.251  14.208  0.0526 -0.0155 -0.0925
12506W        W29353  15.202  11.692  13.758 -0.1333  0.0123  0.3815
12507W        W29354   5.355  16.594  13.738  0.0665 -0.0348  0.1429
12508W        W29355  18.322   5.940  11.059  0.2577 -0.0617 -0.0016
12509W        W29356  11.161   9.721  13.202  0.0319  0.0216  0.2251
12510W        W29357   1.006   2.169   4.462 -0.0643  0.2601  0.0231
12511W        W29358   1.260   1.751  12.859 -0.1045  0.0400  0.1618
12512W        W29359   6.792   5.212  12.193 -0.0602 -0.0964 -0.2076
12513W        W29360  13.180   6.814   3.799 -0.1303  0.4929 -0.2287
12514W        W29361  14.649  17.639   1.120  0.0712  0.0653  0.2197
12515W        W29362  14.074   9.774  12.022 -0.0099  0.0952 -0.1708
12516W        W29363  10.932   9.410   0.005  0.1719  0.4117 -0.3075
12517W        W29364  18.893  19.011   2.759 -0.3807  0.1007  0.2812
12518W        W29365  12.049   7.836   0.214  0.1193  0.2861  0.0611
12519W        W29366   5.090   0.742   4.373 -0.0861 -0.0758  0.2482
12520W        W29367   9.325   0.258   3.688  0.2216  0.1470 -0.0836
12521W        W29368  18.891   7.408   1.984 -0.1495 -0.0490 -0.0328
12522W        W29369  11.372  11.545  14.337 -0.0368  0.0195  0.1210
12523W        W29370  17.587   7.939  12.511  0.0932  0.1042  0.1047
12524W        W29371  18.292   2.630  14.153  0.3285 -0.0438 -0.5827
12525W        W29372   2.545   1.855   2.937 -0.3009  0.2327 -0.1914
12526W        W29373  17.544   2.116  11.800  0.2570 -0.1548 -0.0430
12527W        W29374   1.812  14.335  13.133 -0.0575 -0.1997 -0.2305
12528W        W29375  14.868  10.243   1.710 -0.0284  0.3150 -0.3841
12529W        W29376  11.695  12.449   0.582  0.4229 -0.1681 -0.0611
12530W        W29377  18.730  18.734  11.807 -0.2989  0.0161 -0.2675
12531W        W29378   4.038   7.547   0.555  0.1320 -0.1930  0.3746
12532W        W29379   1.053   4.263   4.184  0.4325 -0.1595 -0.1454
12533W        W29380   3.693  10.117   1.960  0.1629 -0.1210 -0.0237
12534W        W29381   2.180   1.880   1.583 -0.2136  0.2036  0.2711
12535W        W29382   8.553   0.591  13.844  0.0608 -0.1155  0.0128
12536W        W29383   9.034   8.974  11.884  0.0512  0.0142  0.0739
12537W        W29384  17.712   9.573   4.080 -0.2334 -0.0138 -0.0878
12538W        W29385   3.706  16.910  10.131  0.0039  0.1539 -0.1362
12539W        W29386  19.013   2.566   0.953 -0.0490  0.1579 -0.1506
12540W        W29387   0.181  18.499  12.765 -0.0358  0.2960 -0.0324
12541W        W29388  16.895   8.415   1.719  0.3373 -0.3762  0.1471
12542W        W29389  18.390  13.556   6.000 -0.3588  0.1967  0.0604
12543W        W29390  17.177  12.979   3.501 -0.0163  0.3398 -0.3804
12544W        W29391  12.291   7.288  12.308 -0.1340  0.1764  0.0065
12545W        W29392  12.592  10.351  12.649 -0.1519 -0.2070 -0.4342
12546W        W29393   8.479  11.928   9.151  0.1508  0.1999  0.0498
12547W        W29394   2.264  10.671   4.322 -0.0521  0.0378  0.1323
12548W        W29395  12.707   5.412   4.617 -0.0752 -0.0868  0.1808
12549W        W29396   3.999  13.450  12.027  0.2342 -0.0125  0.4057
12550W        W29397  10.013   5.643   3.107  0.1498 -0.0603 -0.0848
12551W        W29398  14.688  12.982   3.849 -0.0877 -0.2141  0.0543
12552W        W29399   9.676  13.740  14.377 -0.0031 -0.0898 -0.4831
12553W        W29400   4.014  18.026  10.597 -0.1707  0.2718  0.0062
12554W        W29401   1.378   9.018  13.981  0.2064 -0.0897  0.0377
12555W        W29402   6.446   0.787  12.493  0.1029  0.2822  0.2808
12556W        W29403  13.220   5.216   1.190 -0.0763 -0.2837 -0.2205
12557W        W29404  13.754  12.412  12.887 -0.2065  0.0029 -0.0587
12558W        W29405  13.160  10.212  11.434  0.0056 -0.0032  0.2262
12559W        W29406  13.282   8.200   3.985  0.3537 -0.2008 -0.1737
12560W        W29407   2.856  14.129  11.603 -0.1557  0.0685  0.2440
12561W        W29408  11.194  18.015   9.521 -0.0541  0.0133  0.0339
12562W        W29409   7.383  15.529   1.519  0.5696  0.0447  0.2359
12563W        W29410   8.331   4.493   3.508  0.0195 -0.1536 -0.1489
12564W        W29411   3.960   6.212   1.155  0.1251 -0.0984  0.1873
12565W        W29412   5.829  10.547  10.642  0.1164 -0.3041 -0.0584
12566W        W29413   5.108   4.117   4.104 -0.0348 -0.2085 -0.1500
12567W        W29414   4.534  10.449  11.794 -0.1118  0.0284 -0.1460
12568W        W29415  13.851  18.214  10.643  0.2505  0.2474  0.0843
12569W        W29416  15.851  14.620   2.836 -0.0035 -0.3570  0.1291
12570W        W29417  19.251   1.031   4.017  0.0444  0.2463 -0.1261
12571W        W29418  18.141  11.249   1.531 -0.1312 -0.1170  0.0752
12572W        W29419   9.526  19.279   1.913  0.1688 -0.3004 -0.1414
12573W        W29420   3.785   5.458  13.617 -0.1522 -0.2261  0.3378
12574W        W29421   6.956   9.993   2.761 -0.2973  0.4060 -0.0504
12575W        W29422  19.561  14.414   3.675  0.3008 -0.1744  0.0994
12576W        W29423   4.951  11.937  13.971 -0.1321  0.0175 -0.3387
12577W        W29424  18.387   7.608   4.578  0.0250  0.0609 -0.3506
12578W        W29425  17.858   1.507  13.711  0.1261 -0.1063  0.0848
12579W        W29426   5.202  11.752  10.509  0.2794  0.0067  0.0532
12580W        W29427   1.303  13.640   4.301  0.0631  0.3958  0.2102
12581W        W29428   4.402   9.781  10.913  0.1861 -0.0086 -0.0054
12582W        W29429   6.004  10.248  10.250  0.2739 -0.1903 -0.1931
12583W        W29430   0.866   6.133  12.198  0.0263  0.1461 -0.0170
12584W        W29431  15.751  11.070   0.461 -0.0071 -0.0473 -0.1449
12585W        W29432   4.081   2.114   2.312 -0.0135  0.4190 -0.0874
12586W        W29433  11.868   6.901  12.946  0.0789  0.0111  0.1250
12587W        W29434   9.507  11.160  11.156 -0.3459  0.3417  0.1056
12588W        W29435  18.038   0.221   2.250  0.0434  0.2337 -0.0675
12589W        W29436   1.668   2.141  13.112  0.3131  0.3477  0.2978
12590W        W29437   8.570  14.126  12.624  0.0194  0.1831  0.3760
12591W        W29438  16.097   8.162  13.757 -0.0176  0.0197 -0.3385
12592W        W29439  18.303  11.811  14.173  0.4178  0.0035  0.0442
12593W        W29440   1.946  17.155   3.971 -0.0879  0.0432  0.0258
12594W        W29441  16.593  18.891   2.993  0.3294  0.0891 -0.0285
12595W        W29442   7.895   1.106   1.864  0.3660  0.2030  0.2152
12596W        W29443  11.403   7.835   0.975 -0.2061  0.2907  0.3053
12597W        W29444  14.167   4.972   9.889 -0.3646  0.1844 -0.0584
12598W        W29445  12.044  19.457  10.405  0.1660  0.0132 -0.1350
12599W        W29446  14.356   1.940   4.845 -0.0013 -0.0036 -0.0870
12600W        W29447   0.224  12.865   5.191 -0.1422  0.0486  0.0767
12601W        W29448  13.037  13.852  11.850 -0.1199 -0.2333 -0.0845
12602W        W29449  13.495  11.912   4.362  0.1351 -0.0913  0.1717
12603W        W29450   4.446   5.382   2.983  0.3078 -0.2527  0.1858
12604W        W29451  12.210   3.615   3.023 -0.3017 -0.2468 -0.2102
12605W        W29452   9.354  15.891   2.821 -0.1552 -0.3459 -0.1900
12606W        W29453   1.907   1.758  11.200  0.0766 -0.3207  0.0113
12607W        W29454  11.048   2.321   3.670  0.2072 -0.1576  0.1492
12608W        W29455   3.691   6.719  10.916 -0.1113 -0.0152  0.1007
12609W        W29456  16.979   2.597  10.906 -0.0270 -0.1324  0.2456
12610W        W29457   7.316   1.316  10.399  0.1680  0.0530  0.2567
12611W        W29458   2.649  17.440  12.801  0.3834  0.2496  0.1436
12612W        W29459   9.766   3.161   2.227 -0.0284  0.0070 -0.2775
12613W        W29460   6.765  18.512  12.031 -0.2073 -0.1863  0.0365
12614W        W29461  11.377   4.664  11.031 -0.2310 -0.0007  0.1302
12615W        W29462  13.738   8.699   1.407 -0.3133  0.1349 -0.0584
12616W        W29463  18.116   1.096   2.693 -0.1115  0.0981  0.0938
12617W        W29464   9.572   0.925  13.410  0.0107 -0.2729 -0.3663
12618W        W29465  13.415   5.449  12.545  0.2467 -0.0264  0.0842
12619W        W29466   0.158  13.007  14.076  0.2388  0.2234  0.1566
12620W        W29467  17.564   2.791  12.498 -0.0699  0.0983  0.0110
12621W        W29468   7.545  16.038  10.578 -0.1886  0.1991 -0.0558
12622W        W29469   0.255  10.228  11.078  0.2677  0.2351  0.0767
12623W        W29470  15.994  13.726  13.186  0.1355 -0.1224  0.2029
12624W        W29471  18.389  19.195   4.309 -0.1960 -0.2231  0.1219
12625W        W29472  14.428  17.627  12.888  0.2403 -0.0386  0.2543
12626W        W29473  11.683   5.620  12.333 -0.0110 -0.0936  0.2992
12627W        W29474   0.940   0.078   1.769 -0.0261  0.1950  0.2034
12628W        W29475   4.609  15.899  12.967 -0.1658 -0.2510 -0.0916
12629W        W29476  14.615  11.031   2.958  0.1243 -0.1882  0.1947
12630W        W29477  19.425   3.542   2.950 -0.2271  0.0069  0.0873
12631W        W29478  13.290  17.476   4.649  0.1137  0.0935  0.3735
12632W        W29479   1.304   1.558  10.802  0.0865 -0.0054 -0.1854
12633W        W29480  16.198  15.494   4.873  0.1411 -0.0781  0.0869
12634W        W29481  10.006  12.119   2.394 -0.0443 -0.0093 -0.0505
12635W        W29482  14.622   2.629   3.913  0.1840  0.0808  0.1379
12636W        W29483  10.480   8.703   1.859  0.1130 -0.0772 -0.2114
12637W        W29484   7.175   4.940   4.343  0.1231 -0.0095 -0.4794
12638W        W29485  11.643   5.419  14.282  0.1964  0.2641  0.0229
12639W        W29486   0.227  10.534  13.857 -0.1501 -0.2337  0.0664
12640W        W29487   0.256   1.618  12.825  0.2379  0.0297 -0.0605
12641W        W29488   9.623  18.588   0.824  0.1221 -0.0624 -0.0083
12642W        W29489   7.888  11.072  11.360  0.2268  0.0153  0.2154
12643W        W29490  15.358   5.816   2.375 -0.1791 -0.0774  0.0830
12644W        W29491  10.202  15.251  11.176 -0.3860 -0.1638  0.0205
12645W        W29492  10.244  19.061   2.528 -0.3121 -0.1173 -0.1561
12646W        W29493  13.590  17.451  13.465 -0.2135  0.2520  0.0990
12647W        W29494   7.703   3.986  13.216 -0.3462 -0.3086  0.2534
12648W        W29495  15.729  10.399   3.300 -0.3459  0.1402 -0.0084
12649W        W29496  13.585   0.813  12.614  0.1563 -0.1144 -0.3628
12650W        W29497  10.485   5.574  12.436  0.0255  0.2788  0.1870
12651W        W29498  19.311   0.812   2.947  0.1491 -0.2786  0.0410
12652W        W29499   0.368   1.792   3.575  0.0127  0.1296 -0.1452
12653W        W29500  15.053  10.704  10.974 -0.2859 -0.0044 -0.4936
12654W        W29501  13.655  17.360  10.862  0.1685  0.0363  0.0500
12655W        W29502   6.400  16.959   0.538 -0.0642 -0.0554  0.1965
12656W        W29503  15.513  17.981  11.772  0.0427 -0.0793  0.1096
12657W        W29504  17.821   0.996  13.452 -0.3645 -0.1742 -0.1216
12658W        W29505   6.817   4.453  13.688  0.0344 -0.0336  0.1611
12659W        W29506   1.773   1.289   4.275 -0.2779 -0.1035  0.0036
12660W        W29507  18.374  13.771   1.015  0.1979  0.2117 -0.0144
12661W        W29508  16.277   1.930   0.466  0.0026 -0.2551 -0.4075
12662W        W29509   0.454   8.206   2.250 -0.0236 -0.2499 -0.0580
12663W        W29510   6.126  14.943   2.565 -0.2868 -0.0615  0.2583
12664W        W29511  12.645  10.551  13.208  0.2102  0.2930 -0.1918
12665W        W29512  12.204  11.663  11.114 -0.0528 -0.0962  0.0578
12666W        W29513   9.376   2.382   4.644  0.1848  0.0510  0.1694
12667W        W29514  13.387  19.478  12.313  0.2014 -0.0075 -0.1658
12668W        W29515   6.163  12.279   0.771 -0.3175 -0.2167  0.1741
12669W        W29516   9.792   6.333  10.479  0.0986 -0.0654  0.1094
12670W        W29517  10.337  18.016   2.653  0.1455 -0.1123  0.3899
12671W        W29518  16.609  11.996   0.967  0.0235  0.1387  0.2351
12672W        W29519   0.664   1.348  12.820 -0.0728  0.1478  0.0603
12673W        W29520   7.414  18.571  13.391  0.1722 -0.1542  0.1235
12674W        W29521  11.400  18.315  12.732 -0.0876  0.3721 -0.2488
12675W        W29522  16.152   3.952  14.515 -0.3316  0.2189  0.1777
12676W        W29523  18.491  19.487  13.372  0.0936 -0.0578 -0.0952
12677W        W29524   3.685  16.419   9.309  0.2619 -0.2513  0.1588
12678W        W29525   9.911  12.616   2.107  0.2479  0.0671  0.0410
12679W        W29526  17.662  10.989  14.561  0.0438 -0.1039  0.1329
12680W        W29527   2.820   6.330  11.124 -0.1763 -0.1805  0.1552
12681W        W29528  16.020   3.083   2.882 -0.3020  0.1331 -0.0299
12682W        W29529  16.276  16.707  12.313  0.1075  0.0281  0.3489
12683W        W29530   4.551   5.160   3.947  0.3280  0.1458 -0.1543
12684W        W29531   5.355  13.084   4.342  0.1692 -0.1758 -0.0045
12685W        W29532   2.756   5.255   5.406  0.1885  0.2434  0.2025
12686W        W29533   6.338   9.865  11.022 -0.1606 -0.0975 -0.0848
12687W        W29534  13.884   8.800   0.949 -0.1083  0.0556 -0.2242
12688W        W29535  10.802  17.405   0.336  0.0828  0.0347 -0.1557
12689W        W29536  12.125   9.019  12.801  0.3503  0.0730  0.2834
12690W        W29537   1.787  16.047  13.026  0.4230  0.1517  0.2402
12691W        W29538   4.106  11.747   1.086 -0.0255  0.0760 -0.0617
12692W        W29539  16.821  11.604   3.757  0.2364 -0.0526  0.0794
12693W        W29540   3.808   4.438   0.089  0.1253  0.2086  0.0131
12694W        W29541   2.474  17.961   1.782 -0.0277 -0.1512 -0.1257
12695W        W29542   7.742   8.441  12.590  0.0952 -0.2304 -0.0156
12696W        W29543   9.685   3.436  11.045  0.2587 -0.0793 -0.0482
12697W        W29544   4.872   9.207   2.502 -0.0300 -0.1258  0.0216
12698W        W29545   7.542   4.274  10.743  0.3078  0.3199  0.2124
12699W        W29546  18.772  11.995  13.049 -0.1296 -0.1876 -0.4666
12700W        W29547  15.327  13.372  10.966  0.0038  0.0053 -0.3013
12701W        W29548  13.675   6.547   0.461 -0.0408  0.2379  0.0733
12702W        W29549   6.561  12.490  11.925 -0.3262 -0.1194  0.1183
12703W        W29550  14.213  13.246   3.913 -0.2114  0.1170 -0.0807
12704W        W29551   2.405  18.944  11.619  0.1251 -0.2612 -0.0563
12705W        W29552   2.447   3.238  13.463  0.0157  0.3169  0.0019
12706W        W29553  11.806  12.300   0.063 -0.3373  0.2148  0.0864
12707W        W29554  16.490   6.739   4.046  0.1125  0.2604  0.0267
12708W        W29555  17.788   1.547  12.352 -0.2075 -0.3902 -0.2251
12709W        W29556  15.766   3.989  12.898 -0.2624 -0.1258 -0.1280
12710W        W29557   9.090   4.307   4.949 -0.1961  0.0960 -0.5861
12711W        W29558   3.267   4.951  10.194  0.0071  0.1085  0.2247
12712W        W29559   3.576  11.099   0.219  0.2946 -0.1673  0.1086
12713W        W29560   7.532   1.159   4.813 -0.0280 -0.3869 -0.1843
12714W        W29561  15.289   1.125  12.436  0.3250 -0.0411 -0.1800
12715W        W29562  10.439  16.643  11.223  0.1002 -0.0360  0.0813
12716W        W29563  18.311  17.236  11.324 -0.0178 -0.0986  0.0479
12717W        W29564  17.467   1.586  13.446  0.0045  0.1953  0.2191
12718W        W29565  16.323   0.405  11.208 -0.1830  0.3344  0.0216
12719W        W29566   2.448   5.015   4.151 -0.0638  0.1196 -0.1787
12720W        W29567  15.650   7.544   1.161 -0.3169 -0.0012  0.0074
12721W        W29568   5.824  14.406  11.483 -0.4987  0.0886  0.2997
12722W        W29569  17.073   0.182  12.565  0.3521 -0.1309  0.3334
12723W        W29570   3.996   1.574   1.811 -0.1635  0.0082  0.0209
12724W        W29571  14.719  11.140  11.473 -0.3875  0.0842 -0.1016
12725W        W29572  18.846  10.918   3.190  0.2477 -0.1780  0.0253
12726W        W29573  12.742  12.777  12.030 -0.0238 -0.2632 -0.1384
12727W        W29574   8.752   0.091  11.402 -0.0988  0.1861 -0.2168
12728W        W29575  14.949  11.803  12.700  0.3823  0.2129  0.3397
12729W        W29576   1.543  18.477   2.662 -0.0794 -0.2294 -0.3733
12730W        W29577  13.481  14.629  13.178 -0.0506  0.6512  0.3712
12731W        W29578   8.494  18.033  12.224  0.2450 -0.2371  0.0488
12732W        W29579  18.658   7.377  14.005  0.3465 -0.3172  0.6995
12733W        W29580   1.014   3.434   3.658 -0.0827  0.3774  0.1074
12734W        W29581  15.875   0.325  11.479 -0.0649 -0.0184 -0.2258
12735W        W29582  14.021   9.387  10.709 -0.1845 -0.0212  0.0673
12736W        W29583  14.820   9.734  10.295  0.0533 -0.0611  0.0963
12737W        W29584  19.208  15.671  13.983  0.3292 -0.0527  0.0593
12738W        W29585  14.499  15.636  11.050 -0.2084  0.0294 -0.4186
12739W        W29586   7.880   8.583  13.501  0.1466  0.0778  0.2562
12740W        W29587   2.479  11.541  11.646  0.0693  0.0502  0.2901
12741W        W29588   5.097   8.436  11.732  0.2070  0.3267 -0.3996
12742W        W29589   5.303  13.185   0.574 -0.0373 -0.1153 -0.0517
12743W        W29590  11.034  12.375  10.263 -0.0241  0.0745 -0.3285
12744W        W29591   9.892   2.975  13.164  0.0883 -0.1267 -0.0815
12745W        W29592  15.127   5.725  13.588  0.2718 -0.2357  0.1290
12746W        W29593   0.786  11.465   4.227  0.0721 -0.3687 -0.1084
12747W        W29594   8.287   1.858   2.426  0.2515 -0.1379 -0.0072
12748W        W29595   0.707  14.866  13.273  0.0729  0.0936  0.2393
12749W        W29596  16.029   3.685  14.106  0.1416 -0.2118 -0.0284
12750W        W29597   1.510  11.371   4.132 -0.3482 -0.1191 -0.0010
12751W        W29598  16.313   7.931  12.933 -0.1023  0.1293  0.0178
12752W        W29599   3.279   2.067   3.515 -0.1865 -0.0393 -0.1326
12753W        W29600   3.886   5.012   4.509  0.1226 -0.0021  0.1704
12754W        W29601   4.873  13.115  13.072 -0.2631  0.0218  0.0058
12755W        W29602   3.493  16.093   4.373 -0.1633  0.0119 -0.2228
12756W        W29603   1.133  13.886   4.927 -0.1732  0.1988  0.2098
12757W        W29604   0.188   4.577   0.824  0.1020 -0.1171 -0.2313
12758W        W29605  17.920   6.445   0.097  0.0305 -0.1122 -0.0949
12759W        W29606  15.524  14.505  13.415  0.3288 -0.4140 -0.1076
12760W        W29607  10.784   1.592   1.961 -0.0859  0.0888 -0.0270
12761W        W29608   0.171   3.210  14.331  0.2259 -0.0138 -0.0328
12762W        W29609  19.219  17.283  12.003  0.1202  0.0548  0.0243
12763W        W29610  16.201   6.217   4.554  0.0245 -0.1232  0.3070
12764W        W29611  13.491  18.498  13.178  0.1126 -0.2235 -0.1640
12765W        W29612   9.966  19.477   3.614 -0.0105 -0.0776  0.1255
12766W        W29613   5.920   5.756   3.414 -0.0103  0.0145 -0.0060
12767W        W29614   8.275   2.061  10.435  0.0949  0.0431  0.1430
12768W        W29615  10.344  15.094   0.416  0.3107 -0.2980  0.0896
12769W        W29616  14.236  18.564  10.751  0.0456  0.2457 -0.0106
12770W        W29617   8.980   4.950   3.339  0.0807 -0.0583  0.2023
12771W        W29618  15.522   1.931  11.964  0.0689  0.2433 -0.1264
12772W        W29619   0.643   0.548  12.017 -0.1764  0.3358 -0.3212
12773W        W29620   5.264  17.749  12.032  0.0541  0.2012  0.0722
12774W        W29621  19.161  18.865  11.303 -0.1320 -0.1346  0.9274
12775W        W29622  14.952  18.254  12.530 -0.0171  0.1927 -0.1083
12776W        W29623  11.510   5.056   1.982 -0.3593  0.0034  0.0230
12777W        W29624   7.229   4.149   3.666 -0.2657 -0.0545  0.2108
12778W        W29625   2.973   5.426   0.837 -0.0088 -0.1623 -0.0654
12779W        W29626   0.476   9.998  12.559  0.0609  0.1348 -0.0336
12780W        W29627   3.128   4.981  11.226  0.1817  0.0231 -0.2183
12781W        W29628  10.614  14.654   3.031  0.0519  0.1824  0.1266
12782W        W29629   5.040  19.076   0.623  0.4030  0.0023 -0.1522
12783W        W29630   2.650   8.428  12.997 -0.1276 -0.1350 -0.1870
12784W        W29631  11.489   3.381  10.261 -0.3706 -0.1938 -0.1835
12785W        W29632   1.473   8.245   1.191  0.0978  0.1262 -0.2183
12786W        W29633   9.067  13.247   4.615  0.0361  0.0910 -0.0275
12787W        W29634   7.503  19.630   3.107  0.1576 -0.0163 -0.4890
12788W        W29635  12.053  11.259  10.085 -0.2456  0.0676  0.0262
12789W        W29636   0.430   3.510   0.711 -0.0565  0.0112 -0.1833
12790W        W29637  13.067  13.153   2.793  0.0717  0.1169 -0.5674
12791W        W29638  10.292  15.445   4.250 -0.1088 -0.0519  0.0176
12792W        W29639  15.856   4.664   0.434 -0.2169  0.0308  0.0502
12793W        W29640  12.365   9.575   4.277  0.2291  0.2479 -0.0018
12794W        W29641  11.732  15.330   4.361 -0.1055  0.1164  0.1122
12795W        W29642  18.896   0.970  13.774  0.0601 -0.0168 -0.0799
12796W        W29643  12.871  10.811   0.877  0.1919 -0.4440  0.0824
12797W        W29644   8.102   1.531  14.226 -0.0915 -0.5931  0.0989
12798W        W29645  13.557  14.453   0.711  0.0039  0.4939  0.0422
12799W        W29646  11.700  15.282  10.970  0.4744  0.1702  0.2202
12800W        W29647   1.835   3.220  14.331  0.1631  0.1534  0.4639
12801W        W29648  17.659   1.132   1.980 -0.0170  0.1797  0.1963
12802W        W29649   9.224  17.249   4.251  0.1579  0.2786 -0.0355
12803W        W29650   4.189  15.991  12.689 -0.0150  0.0135 -0.0548
12804W        W29651  14.681   7.611  12.752 -0.3989 -0.0190 -0.1562
12805W        W29652   0.080  17.254  13.392  0.1870  0.1122  0.4055
12806W        W29653   7.489  17.512  10.146 -0.1517 -0.1756 -0.2176
12807W        W29654   3.888  13.214   4.346 -0.0973  0.0132  0.1445
12808W        W29655   4.640  13.893  12.330  0.3848  0.1446  0.3350
12809W        W29656   9.162  18.706   3.250  0.4428  0.2374  0.1077
12810W        W29657  14.655  18.178  13.054 -0.1292  0.1790  0.4921
12811W        W29658   1.881  15.448  12.689 -0.0412  0.0237 -0.1723
12812W        W29659  13.522  11.550  11.237 -0.0134  0.2589  0.1055
12813W        W29660   2.354   8.816   3.016  0.0282  0.0335 -0.0435
12814W        W29661  19.239   8.895   4.811 -0.1301 -0.1237 -0.1857
12815W        W29662  12.425   8.608   4.237 -0.1458  0.0517 -0.0294
12816W        W29663  11.903   9.626  12.479  0.0930 -0.0009 -0.2404
12817W        W29664   1.683   6.380   4.399 -0.0964  0.0219 -0.0785
12818W        W29665   8.765   8.226   3.360 -0.1599 -0.0274 -0.3089
12819W        W29666   2.773  15.489   1.222 -0.3333  0.0459 -0.0349
12820W        W29667   2.095  12.617  12.402  0.0389 -0.2962 -0.3701
12821W        W29668   5.954  16.748  10.478 -0.1876 -0.0698  0.0878
12822W        W29669  13.909   2.045  11.778 -0.2082  0.0803 -0.0240
12823W        W29670  15.697  19.102   4.229 -0.2519 -0.0109  0.1578
12824W        W29671   3.724   6.145  10.804 -0.2054 -0.0165 -0.0285
12825W        W29672  11.059   2.891  12.448  0.3452 -0.1112 -0.3938
12826W        W29673   0.880  16.624  11.092 -0.1144  0.0966  0.1600
12827W        W29674  14.670   6.733  10.358 -0.0645 -0.2636  0.0947
12828W        W29675  11.107   4.420   3.002  0.1848  0.0593  0.0019
12829W        W29676  10.836   5.418  12.740 -0.0818 -0.0073  0.0852
12830W        W29677   3.953   6.856   4.887 -0.1539 -0.2224  0.0101
12831W        W29678  16.840  16.735   4.984  0.1078 -0.2656 -0.0883
12832W        W29679   1.303  10.244  10.508  0.1359  0.2688  0.2914
12833W        W29680  15.913  15.156  10.060  0.3325 -0.4005  0.1464
12834W        W29681  17.550   3.883  14.493 -0.0532 -0.1069 -0.0777
12835W        W29682   8.150   5.700  13.988  0.0226 -0.0563 -0.2490
12836W        W29683   6.950   5.181   1.994 -0.1165  0.2715  0.0925
12837W        W29684  14.775   5.360  11.599  0.0250 -0.0574 -0.0047
12838W        W29685   0.292   9.561   0.283 -0.0824 -0.0372 -0.3093
12839W        W29686  15.445  16.501   2.619 -0.1064 -0.3100 -0.1387
12840W        W29687  10.575  12.657  13.302  0.2392 -0.2969  0.1823
12841W        W29688   3.939   8.791  10.391 -0.1125  0.1673  0.1040
12842W        W29689   9.204   0.630  12.091 -0.0438 -0.1582 -0.0723
12843W        W29690  13.803   8.718   3.310  0.1118 -0.0654  0.1192
12844W        W29691   6.081   0.582  11.412  0.3937 -0.0772  0.0873
12845W        W29692   5.836  17.624   2.682  0.2985 -0.0228 -0.5870
12846W        W29693   3.593  19.110   1.308  0.3215 -0.2556 -0.0219
12847W        W29694   5.809   4.508   3.720  0.0651  0.1597 -0.0547
12848W        W29695   9.123   5.380  13.945  0.1379  0.0019 -0.0880
12849W        W29696   0.408  16.004  10.359 -0.0529  0.0324 -0.1836
12850W        W29697   2.074   0.775  14.390 -0.1076 -0.3229 -0.1448
12851W        W29698   1.384  12.422  13.128  0.2610 -0.2739  0.0608
12852W        W29699  16.569  10.379   1.062  0.0115  0.0544  0.0671
12853W        W29700  14.178   0.499   4.737 -0.4953  0.3277  0.2369
12854W        W29701   1.545  10.327   3.710 -0.0403 -0.0235 -0.1907
12855W        W29702  17.092   2.873  13.326  0.0445 -0.1158  0.3560
12856W        W29703   7.593  13.174  14.204 -0.2662 -0.0243  0.0242
12857W        W29704  17.394   7.266   0.625 -0.1115  0.0282  0.1460
12858W        W29705  10.595   9.508   4.200  0.3288  0.1890 -0.2294
12859W        W29706   8.607   7.058   2.434 -0.1250  0.1190 -0.0316
12860W        W29707  11.994   0.133  13.225  0.1196  0.1597  0.0763
12861W        W29708   5.330   7.041   3.406  0.2259  0.0530 -0.0860
12862W        W29709   7.427  17.754  11.980 -0.0640 -0.3182  0.0262
12863W        W29710  12.672   4.696  13.917 -0.1071 -0.0314 -0.1700
12864W        W29711  17.396  13.519  13.642 -0.0979  0.0211  0.4157
12865W        W29712  11.836   0.437   0.438  0.0783 -0.2518  0.0083
12866W        W29713   9.387   9.568   0.041  0.1846  0.1188 -0.1167
12867W        W29714   5.227  14.993  11.972 -0.2748  0.2667  0.2432
12868W        W29715  10.800  14.655  13.897 -0.2149 -0.1295  0.0048
12869W        W29716   6.052  18.673   0.928 -0.1066  0.0068  0.1315
12870W        W29717  18.752   2.544  13.836 -0.1475 -0.0164 -0.2669
12871W        W29718   1.051   5.862  12.614 -0.1257  0.4250 -0.0047
12872W        W29719  15.842   9.379   2.479  0.1752 -0.0337  0.1023
12873W        W29720   1.304  12.085  12.684 -0.1496 -0.2452 -0.0790
12874W        W29721   6.480   4.604   4.965 -0.2150  0.3791  0.2708
12875W        W29722  19.024  14.492  12.321  0.0913 -0.1094  0.0574
12876W        W29723   6.628   2.238  14.032  0.0670 -0.2656 -0.1075
12877W        W29724  17.085   2.432  12.512  0.1128  0.0272 -0.0583
12878W        W29725  15.684   1.878   3.453 -0.0521 -0.0537  0.0123
12879W        W29726  17.007   7.110   0.116 -0.0104 -0.0177 -0.0411
12880W        W29727  14.537   7.977   4.698  0.0832 -0.1558 -0.0364
12881W        W29728  10.008  12.895   3.234  0.4390 -0.1176  0.0310
12882W        W29729   4.126  17.831  12.676  0.1357 -0.1293  0.2573
12883W        W29730  17.534   2.626   4.647  0.0397  0.2139  0.0982
12884W        W29731  18.749  15.083   1.234  0.2084  0.1803  0.2826
12885W        W29732   3.264   9.046   2.599 -0.2374 -0.0393  0.0736
12886W        W29733  12.576  11.001  11.457 -0.0610 -0.2973  0.0099
12887W        W29734   4.487   3.460  13.691 -0.0593 -0.0501 -0.1780
12888W        W29735  14.152   5.623   0.237 -0.2938 -0.0375 -0.0073
12889W        W29736   0.879   5.280   5.043  0.1674  0.2483 -0.1604
12890W        W29737  10.162  18.725   1.986  0.1530  0.0757  0.3061
12891W        W29738   8.605  18.370  10.969 -0.2917 -0.0839  0.3502
12892W        W29739   9.758   9.623   3.641  0.1129  0.1854  0.0720
12893W        W29740   3.195   3.585  10.283  0.2014 -0.0140 -0.3635
12894W        W29741  19.160   9.021  13.238  0.2306 -0.0598  0.0187
12895W        W29742   3.968   3.142  14.273  0.0904 -0.1390  0.0928
12896W        W29743   3.458   2.221  14.011 -0.2353 -0.0958 -0.0978
12897W        W29744   5.620   7.645  14.583 -0.0678  0.0524 -0.0305
12898W        W29745  13.505  13.717   1.923  0.0275 -0.3120 -0.0794
12899W        W29746   8.331   5.963  11.275  0.0824  0.1631  0.1402
12900W        W29747  17.693   4.106  13.501 -0.0624  0.3948 -0.1859
12901W        W29748  16.815   5.938  12.888  0.0234  0.0965  0.3022
12902W        W29749   2.902   9.823   1.072 -0.3659 -0.0392 -0.2554
12903W        W29750  14.263  11.280   5.370  0.4380 -0.1506 -0.1346
12904W        W29751   5.053  13.394   0.979 -0.2376 -0.1994 -0.1496
12905W        W29752   0.118  16.921  10.699  0.1896  0.1119  0.1525
12906W        W29753  19.389   5.573  13.709 -0.1978 -0.0577 -0.2150
12907W        W29754   9.578   1.404   4.663  0.1841 -0.2326  0.0683
12908W        W29755   9.092   2.166   3.783  0.2517 -0.3345 -0.0485
12909W        W29756   8.316   7.642   5.054  0.2834 -0.2271  0.1250
12910W        W29757   9.434  18.139   3.629 -0.0790 -0.0570  0.2860
12911W        W29758   7.450  18.551   0.310 -0.1848  0.2362 -0.2707
12912W        W29759   4.385   8.552  12.064 -0.1191  0.1491  0.0928
12913W        W29760   6.176   7.450   3.463 -0.5185  0.0382 -0.2174
12914W        W29761  17.155  10.975  10.579 -0.3307  0.1945  0.1743
12915W        W29762   3.175   1.690  12.104 -0.2245 -0.0736 -0.1429
12916W        W29763  13.946  10.152  10.548 -0.0397  0.2100  0.0886
12917W        W29764  19.073   5.612   5.563  0.0728  0.1497  0.2190
12918W        W29765   2.144   9.679   0.549 -0.0881  0.2371  0.0251
12919W        W29766   9.413  14.278   1.087  0.1762 -0.0504 -0.1411
12920W        W29767   8.999  13.991   1.002  0.1329  0.1729  0.3179
12921W        W29768  19.528  10.462   4.229 -0.2608 -0.2577 -0.1968
12922W        W29769  13.626   0.368  13.690  0.1833  0.0131 -0.0555
12923W        W29770  15.700  15.324   2.328  0.0753  0.2859  0.0583
12924W        W29771   1.935  17.746   0.144  0.3253 -0.3077  0.2561
12925W        W29772   0.163   4.058   2.167  0.1818  0.1173 -0.1608
12926W        W29773   6.583  12.651  12.623  0.0211 -0.0480  0.1415
12927W        W29774  11.792   3.539   4.761 -0.0154  0.0237 -0.1091
12928W        W29775  10.532  19.534  12.749  0.0289 -0.0222 -0.1431
12929W        W29776   7.899   6.451  10.121 -0.5108 -0.2054  0.1284
12930W        W29777  17.266  13.903   0.441  0.1548  0.1555  0.0846
12931W        W29778   6.048   5.167   2.908  0.3761  0.0331 -0.4778
12932W        W29779   4.403  13.465   2.366 -0.3095  0.0978 -0.0780
12933W        W29780  12.383   4.056  12.051  0.0272  0.1713 -0.1129
12934W        W29781  16.522   4.011   2.936  0.2293 -0.0247  0.0449
12935W        W29782  14.848   1.143   2.358  0.0408 -0.3726  0.2943
12936W        W29783   1.203  15.596   0.312  0.1995  0.2703  0.0724
12937W        W29784  13.050  11.355   0.254 -0.0977 -0.1786 -0.1017
12938W        W29785   1.450  17.915  11.820  0.5230  0.2039 -0.1879
12939W        W29786  18.398   1.017  11.993 -0.1852 -0.0880  0.4104
12940W        W29787   6.370  17.391  10.730 -0.0339  0.2589  0.1072
12941W        W29788   0.687   4.192  12.359 -0.1220  0.0834 -0.2943
12942W        W29789   4.885   4.698   3.287 -0.0170  0.1145  0.0676
12943W        W29790   7.105   1.194   3.985 -0.2728  0.0063  0.3206
12944W        W29791  19.624   5.806   1.953 -0.1939  0.2895  0.3515
12945W        W29792   4.941  11.421   4.081 -0.3262  0.3034 -0.0528
12946W        W29793   6.805   3.937   0.252 -0.0521  0.1860 -0.1400
12947W        W29794   0.291   4.131  11.869 -0.0856  0.0940 -0.3188
12948W        W29795  12.898   6.795   4.867 -0.1157  0.0539  0.2887
12949W        W29796  11.786   1.622  11.475  0.0170 -0.4880  0.1340
12950W        W29797   1.440  16.258  12.754 -0.1161  0.2512  0.2129
12951W        W29798   6.154   9.299  13.848 -0.2962 -0.1714 -0.1516
12952W        W29799   7.071   4.991   2.480 -0.1315  0.1031 -0.1551
12953W        W29800  15.611   1.624  12.446 -0.0474  0.1038  0.0221
12954W        W29801   2.104  12.937   2.535  0.0772  0.1639 -0.1542
12955W        W29802   5.736  10.881   4.447  0.0274 -0.2105 -0.1829
12956W        W29803   6.713   3.399   4.677 -0.0209  0.0621  0.3421
12957W        W29804  16.620  16.080   4.295 -0.0270 -0.2050  0.0406
12958W        W29805   8.825   1.083   3.748  0.1384  0.0085  0.2134
12959W        W29806  10.716   7.105   1.012  0.2468  0.1420 -0.2631
12960W        W29807  17.419   3.093  14.153 -0.0352  0.1018 -0.0759
12961W        W29808   0.089  11.417   5.814  0.1912  0.2393  0.2368
12962W        W29809   3.849  10.582  12.918 -0.1389  0.1114  0.0127
12963W        W29810   4.797   1.104   1.468  0.1038  0.1860  0.2325
12964W        W29811  18.952  19.477  10.906  0.1710  0.0194  0.2864
12965W        W29812  17.202   4.265  14.127  0.1683 -0.1422 -0.0823
12966W        W29813   4.079  18.936   4.372 -0.1023 -0.0708  0.2017
12967W        W29814   8.793  10.672  13.630  0.2386 -0.0184  0.3318
12968W        W29815   0.441   3.902   1.587 -0.1158  0.0715 -0.0201
12969W        W29816  16.447  10.203  11.590  0.1724 -0.1718  0.0142
12970W        W29817  10.865  13.862   3.962  0.1603 -0.0646 -0.1203
12971W        W29818   8.113   0.794  14.414 -0.2228  0.2310  0.0906
12972W        W29819   3.494   0.482   2.562 -0.3412  0.1372 -0.0464
12973W        W29820   6.716   1.564   1.427 -0.0882 -0.0666 -0.0327
12974W        W29821   7.946  12.958   5.304  0.0130 -0.0658  0.0820
12975W        W29822  12.609   6.751   3.849  0.1782 -0.3398  0.1406
12976W        W29823  17.052   5.278   3.550  0.0363  0.0462 -0.1625
12977W        W29824   4.739   4.952  13.925  0.2821  0.0741 -0.2096
12978W        W29825  14.712  10.220   0.032 -0.0853 -0.3403 -0.0369
12979W        W29826   9.400  16.370   4.008 -0.1199  0.0395  0.0278
12980W        W29827  12.978   7.400  13.549 -0.0088  0.2584  0.0568
12981W        W29828  17.457  17.001  12.830  0.2980  0.3108  0.1662
12982W        W29829   9.160  18.147  12.079 -0.3562  0.0308  0.0781
12983W        W29830   7.042  17.676  11.604 -0.1657  0.1879 -0.1314
12984W        W29831   4.894   7.901   3.498 -0.0912 -0.0661  0.3496
12985W        W29832   1.570  13.696   4.747 -0.1550 -0.0559  0.0704
12986W        W29833   6.023  10.437   0.540  0.0575  0.1792 -0.2275
12987W        W29834  12.317   5.231   1.570  0.4170  0.2413  0.0457
12988W        W29835  11.441  12.494   4.159  0.2002 -0.0188 -0.0864
12989W        W29836   5.887  15.183   1.357  0.1168 -0.2675 -0.1773
12990W        W29837   1.988   6.791   3.660 -0.1329 -0.1215 -0.0719
12991W        W29838  12.945  10.832  11.028 -0.0094 -0.1246 -0.2795
12992W        W29839  13.022   1.385   3.491  0.0415 -0.1554 -0.3906
12993W        W29840   2.649   6.830   3.335  0.2294 -0.2167  0.2126
12994W        W29841  16.806  19.145  10.174 -0.1529 -0.1872 -0.3210
12995W        W29842   6.405  17.068  11.065 -0.1652 -0.2190 -0.1657
12996W        W29843   0.494  18.752   9.887 -0.3512 -0.0530  0.1046
12997W        W29844   4.163  18.350  10.223 -0.0230 -0.0700 -0.0349
12998W        W29845  18.263   0.353  10.413  0.1249 -0.2489  0.2359
12999W        W29846  14.112  12.504   4.700 -0.0120 -0.2329  0.1622
13000W        W29847   1.725  15.478   0.291  0.2556  0.2132  0.0653
13001W        W29848  15.453  19.507   4.344  0.0308  0.2564  0.3288
13002W        W29849   3.317  12.706  13.678  0.2138 -0.0206  0.1096
13003W        W29850   8.799   9.442  11.119 -0.2444  0.0343 -0.2569
13004W        W29851   1.045  14.885   0.203 -0.0895 -0.2215  0.4322
13005W        W29852  13.339   7.505   0.258  0.0439 -0.1460  0.0715
13006W        W29853   4.099   1.470   4.723  0.3031 -0.2843 -0.1063
13007W        W29854  13.403  17.040  12.276  0.0897 -0.0175  0.1921
13008W        W29855  15.913   8.275  12.068 -0.0788  0.4047 -0.1180
13009W        W29856  14.388   1.218   3.260 -0.0738  0.2658 -0.0548
13010W        W29857   8.119  15.690   4.064 -0.0932 -0.1170  0.0642
13011W        W29858  15.883  14.034  14.231  0.3099  0.2513 -0.1786
13012W        W29859   5.323  15.096   1.415  0.3178  0.1471  0.1716
13013W        W29860   7.706  18.516  10.801  0.1628  0.0006  0.1631
13014W        W29861   8.091  16.563  13.574  0.1659 -0.0644  0.3197
13015W        W29862  16.965   3.090  13.759  0.1155 -0.0574  0.2627
13016W        W29863   9.864   3.298   1.190 -0.0548  0.3160  0.0528
13017W        W29864  15.902   9.175  13.204 -0.1619  0.2424  0.1461
13018W        W29865  16.991  13.234   9.963 -0.1937  0.1036  0.1840
13019W        W29866  10.777  14.030   1.209 -0.3557 -0.1605  0.4194
13020W        W29867   6.578  15.681  11.388 -0.2667 -0.3971  0.1545
13021W        W29868  15.861  18.718  11.104 -0.4270  0.0426  0.1530
13022W        W29869   6.106   9.061   1.566 -0.1395  0.2035  0.0132
13023W        W29870  17.417  14.170   3.675  0.0998  0.2570  0.2702
13024W        W29871  18.198  15.073   3.026 -0.0933  0.1915 -0.1523
13025W        W29872  12.723   4.340   3.530  0.0538 -0.1306 -0.1057
13026W        W29873  10.765   6.735  12.688 -0.0398  0.3123 -0.2683
13027W        W29874  16.068   2.587   1.161 -0.0735  0.1156  0.1399
13028W        W29875   0.556  14.049  12.788  0.1128  0.0551 -0.2030
13029W        W29876  14.793   4.880   1.213  0.0200  0.3067 -0.0877
13030W        W29877   8.981  12.686   3.139  0.1665  0.1284  0.0259
13031W        W29878   5.983   6.765   5.328  0.2311 -0.4238 -0.0898
13032W        W29879   6.662  17.712  10.494  0.1363 -0.2160 -0.0337
13033W        W29880   6.107  14.203  11.077 -0.1905 -0.2286  0.2705
13034W        W29881   6.128  18.420  11.248  0.4853  0.2748 -0.0061
13035W        W29882   7.896   6.655   5.020  0.5622 -0.1886 -0.1398
13036W        W29883  10.553  18.059   3.561 -0.0142  0.0103  0.3952
13037W        W29884  15.762   2.804   4.622  0.2774  0.0598  0.2131
13038W        W29885   2.060  14.031  12.150  0.0174 -0.0033  0.1500
13039W        W29886   5.565   8.341   2.995 -0.0352  0.0186  0.2170
13040W        W29887  13.607  14.059   3.678  0.3208  0.0148  0.0402
13041W        W29888   5.361   9.987   4.382 -0.3137 -0.0591 -0.0584
13042W        W29889  11.935  19.247   4.924  0.1992  0.0985  0.1199
13043W        W29890   3.872   8.754  12.097  0.0308  0.3151  0.1462
13044W        W29891  12.217   9.270   4.716 -0.1918 -0.2284 -0.2276
13045W        W29892   1.329   6.424  10.435  0.2608  0.1959 -0.0065
13046W        W29893   6.931   0.997  12.518  0.1058 -0.5368 -0.1999
13047W        W29894  17.040   7.372  11.506  0.3606 -0.1312  0.3385
13048W        W29895   0.359  14.142  11.948  0.0418 -0.0361 -0.0398
13049W        W29896   1.689  16.812   0.105 -0.0061 -0.2363 -0.0189
13050W        W29897   1.991   2.157   3.830 -0.0363  0.5038  0.0262
13051W        W29898   0.778   6.563   0.170 -0.0037  0.1097 -0.0816
13052W        W29899   5.762   7.094  12.430  0.0507 -0.0029  0.0797
13053W        W29900   1.916   3.279   3.532  0.0491 -0.1979 -0.0714
13054W        W29901  18.474  12.368  13.241  0.1435 -0.0059 -0.1656
13055W        W29902   9.288  15.964   0.684  0.2074  0.2661 -0.0053
13056W        W29903  14.907  16.589  13.764 -0.3780  0.0389  0.3005
13057W        W29904   6.427   7.277  10.695  0.1997 -0.0011  0.1141
13058W        W29905  16.960   9.547   0.409 -0.1045 -0.1284 -0.0163
13059W        W29906   1.715   7.695  10.978  0.0464 -0.2243 -0.0145
13060W        W29907  11.043   7.542   1.762  0.3517  0.1815 -0.0788
13061W        W29908  16.241   4.576   0.049  0.1372  0.2716 -0.3060
13062W        W29909   8.365   3.452   9.869 -0.0863 -0.0244 -0.2625
13063W        W29910   3.386  11.826   5.635 -0.2026 -0.3402  0.0278
13064W        W29911  10.634  12.068  12.633  0.5560 -0.0983  0.1096
13065W        W29912  15.893   1.107   9.044 -0.2517 -0.0590 -0.2833
13066W        W29913  16.273  12.031  11.804 -0.0617 -0.0031 -0.1357
13067W        W29914  19.479  16.306  11.635  0.2518 -0.1731  0.1709
13068W        W29915  13.847  16.126  10.298  0.4490 -0.0503 -0.1488
13069W        W29916  17.236   7.299   2.981  0.0703  0.0194  0.0556
13070W        W29917   4.542   2.661   4.214 -0.1029  0.0518 -0.0010
13071W        W29918   9.813   4.639   2.376  0.5270  0.0632  0.2135
13072W        W29919  12.857  15.992  12.235 -0.0689  0.1898 -0.3171
13073W        W29920   0.863  18.576  13.390  0.0404 -0.3356  0.0831
13074W        W29921   0.101   5.072   0.963  0.0110 -0.1565  0.1885
13075W        W29922  10.566  14.995   1.860  0.0536  0.1545  0.2975
13076W        W29923   2.099   8.157   3.973  0.0479  0.1553 -0.0031
13077W        W29924  15.346  13.045  12.977 -0.3497  0.1819  0.1492
13078W        W29925  10.097   5.101   3.240 -0.2026  0.0912 -0.0357
13079W        W29926   9.819   1.632  11.414  0.0665  0.0310 -0.0367
13080W        W29927  14.344  17.737   2.999  0.2774  0.1545 -0.2317
13081W        W29928   1.104   2.307  11.444  0.0902 -0.3282 -0.0327
13082W        W29929   5.758  15.514   3.087  0.3104 -0.3070  0.1906
13083W        W29930   1.859  19.451   1.169 -0.0394  0.1145 -0.1459
13084W        W29931  16.899   6.172  10.472  0.2680 -0.1845  0.0553
13085W        W29932   3.951  13.186  13.195  0.0147  0.0036 -0.1346
13086W        W29933   2.005  18.893   0.235 -0.1984  0.3251 -0.0792
13087W        W29934   2.465   5.949  10.414 -0.1877  0.0652 -0.0066
13088W        W29935  12.048  16.564   1.278 -0.0701  0.1287 -0.1211
13089W        W29936  12.284  15.042   4.495 -0.2294 -0.1153 -0.0647
13090W        W29937   0.126  15.307   2.938  0.4634  0.0686  0.2239
13091W        W29938   9.228   9.012   0.099 -0.4682 -0.2487  0.1566
13092W        W29939   6.200   3.153   2.125  0.0203 -0.1163 -0.4177
13093W        W29940  19.029   9.335  11.570 -0.0676  0.0262 -0.0391
13094W        W29941  19.531  14.900   3.840  0.3298  0.0066 -0.4102
13095W        W29942  12.995   1.233   9.953  0.0788 -0.0046  0.1300
13096W        W29943   7.675   2.498   9.757 -0.0675  0.0236  0.0976
13097W        W29944  17.276  17.149  13.559  0.3431 -0.3605 -0.1381
13098W        W29945   5.285   8.346  11.276  0.1587 -0.0472 -0.1921
13099W        W29946   2.874   4.362   9.086  0.3220  0.1204 -0.2934
13100W        W29947   8.806   9.329   0.840 -0.2715 -0.0983  0.1453
13101W        W29948   5.336   4.228  14.288 -0.1555  0.0611 -0.3706
13102W        W29949   9.439  12.869   3.320 -0.3668  0.0193  0.0564
13103W        W29950   1.100  14.554  13.598  0.1391  0.0392  0.2413
13104W        W29951  13.021  18.030   0.481  0.0199  0.1012  0.0015
13105W        W29952  14.184   3.486   4.049 -0.3614 -0.0530  0.1852
13106W        W29953  10.746  13.861   2.030 -0.1958  0.2604  0.2006
13107W        W29954   7.210  12.875   2.630  0.0504 -0.2522  0.5474
13108W        W29955   0.962  15.436  13.060  0.1996 -0.0084 -0.0415
13109W        W29956   3.707   0.423  14.267  0.5329 -0.0976 -0.2645
13110W        W29957  10.832   8.938   3.132 -0.2138 -0.0661  0.0345
13111W        W29958   1.772  12.934   0.154 -0.0668  0.2277  0.1795
13112W        W29959   9.515   7.519   0.717 -0.1860  0.0058  0.1297
13113W        W29960  15.165   5.863  14.060  0.1957 -0.1070 -0.3378
13114W        W29961  13.171   3.866   3.561  0.1963 -0.1816  0.1045
13115W        W29962   3.617  11.517   4.799  0.1170 -0.2186 -0.3276
13116W        W29963   7.520   0.650   1.828  0.0473 -0.0353 -0.5198
13117W        W29964  13.153   8.771  11.345 -0.2596  0.0127 -0.3344
13118W        W29965   6.394   1.533   0.363 -0.0602 -0.1493  0.1134
13119W        W29966   2.521  15.217   2.899 -0.2141 -0.0706 -0.0632
13120W        W29967  12.361   2.941   1.910  0.0400 -0.4677  0.0852
13121W        W29968   9.336  14.493   1.824 -0.1050  0.4909 -0.3576
13122W        W29969   1.091   9.131   2.336 -0.3722  0.3228  0.2195
13123W        W29970  15.906  13.907   0.662 -0.3723  0.1490  0.0636
13124W        W29971   1.917   8.136  11.164 -0.0240 -0.1288  0.0638
13125W        W29972   5.731   0.355   2.199  0.0900 -0.2298 -0.0545
13126W        W29973   0.187   8.252   5.255  0.3855  0.1394 -0.1601
13127W        W29974  19.423   0.842  12.521 -0.2030  0.0385  0.0649
13128W        W29975   7.668   0.095   1.699 -0.1682  0.0723 -0.0168
13129W        W29976   7.827   3.346   3.867  0.3077 -0.2740  0.1250
13130W        W29977   0.409   4.727   5.317 -0.1743  0.1074 -0.4794
13131W        W29978   7.496   3.344   1.774  0.0626  0.0316  0.3613
13132W        W29979   3.685   5.528   1.377  0.0264  0.2241  0.2960
13133W        W29980  13.500   4.783   0.615 -0.1311  0.4898  0.1946
13134W        W29981   2.214   1.575  11.569  0.0726  0.0333 -0.0008
13135W        W29982   5.278   2.971  14.154 -0.1984  0.2335 -0.0396
13136W        W29983  13.610  12.984  12.220  0.0027  0.0588 -0.0724
13137W        W29984   5.025  14.668  11.563  0.1768  0.0644  0.1559
13138W        W29985   8.111   5.274  11.388 -0.1128  0.4065 -0.1910
13139W        W29986   9.803  14.598   5.625  0.1631  0.1095 -0.1166
13140W        W29987   5.390   6.615   0.227 -0.0781  0.1328  0.2060
13141W        W29988  18.511  17.811   2.853  0.2128  0.2133 -0.3703
13142W        W29989   2.308  13.715   4.125  0.0378 -0.0480 -0.1047
13143W        W29990  12.127  15.961  12.935 -0.2863  0.0213  0.4204
13144W        W29991  13.426   0.721  10.834  0.1197  0.1688 -0.0036
13145W        W29992   7.074  18.799   9.876 -0.1358 -0.2773 -0.0369
13146W        W29993  12.798   4.358   0.663  0.0877  0.0580 -0.0364
13147W        W29994   8.945   6.888  11.674  0.0965 -0.1939  0.0175
13148W        W29995  18.026   8.614  10.448  0.1495 -0.2697 -0.0710
13149W        W29996  12.538   2.421   3.718 -0.2572  0.1045  0.2525
13150W        W29997  19.556  12.892  11.625 -0.0365 -0.2477 -0.0823
13151W        W29998  18.246  17.033  12.147 -0.3655  0.0432  0.1905
13152W        W29999   1.771   2.873  11.499  0.2761  0.0847  0.1012
13153W        W30000  17.284  13.211   2.474  0.0624  0.3194  0.0137
13154W        W30001  17.626   6.025   1.656  0.0673 -0.0891 -0.2475
13155W        W30002  17.505   8.979  11.773 -0.2323  0.2807 -0.1324
13156W        W30003   4.841  18.394  13.340 -0.2049 -0.1420 -0.0932
13157W        W30004   7.519  15.895   2.596  0.0800  0.0061  0.0894
13158W        W30005  15.742   4.081   3.342 -0.1939 -0.0726  0.0609
13159W        W30006  16.718   6.363  12.542  0.2109 -0.0998 -0.0928
13160W        W30007  10.712   8.034   4.104  0.0291 -0.0262  0.0436
13161W        W30008  17.857   1.589   3.884 -0.3537  0.2051  0.1287
13162W        W30009   2.658  14.319  10.595  0.1190  0.1588  0.1546
13163W        W30010  14.943  13.579   4.416 -0.0301  0.0744  0.2917
13164W        W30011  11.716  14.888  13.971  0.1336 -0.4718 -0.2385
13165W        W30012   8.908  14.342  10.876 -0.1105 -0.0639 -0.0600
13166W        W30013   4.943   6.963   0.174  0.0413  0.0421 -0.1457
13167W        W30014  18.590  10.794  14.105 -0.0594  0.3081 -0.0786
13168W        W30015   8.717   3.985   4.841  0.0129 -0.2492  0.0585
13169W        W30016   9.712  12.124   4.704 -0.0105  0.0404 -0.3395
13170W        W30017  16.341  10.769   3.874  0.0993 -0.2103  0.0071
13171W        W30018   9.295   5.513  10.991  0.4316  0.1281  0.1508
13172W        W30019   6.972  18.067  14.234  0.0766  0.1408 -0.1905
13173W        W30020   0.018   3.441  11.090 -0.0338 -0.1505 -0.0300
13174W        W30021  14.825  17.224   3.362 -0.2631  0.0445  0.1073
13175W        W30022  10.310   0.498   3.096 -0.1720 -0.0274 -0.4515
13176W        W30023   5.301   1.195   3.994 -0.0727  0.0267 -0.0734
13177W        W30024   9.866   2.473   3.082  0.0128 -0.1399  0.2167
13178W        W30025  11.852  18.336   0.020  0.0651 -0.4994  0.1665
13179W        W30026   8.871   7.649   4.697  0.2697 -0.2054 -0.0678
13180W        W30027   0.195   6.372   1.839 -0.0525 -0.1365  0.2145
13181W        W30028  11.042   9.577  12.084  0.1692  0.1558  0.1237
13182W        W30029  10.877  19.297   0.164 -0.1789 -0.0116 -0.0097
13183W        W30030  12.848   2.100   1.404  0.0021  0.1704  0.2365
13184W        W30031  17.509  10.461  13.280  0.1366 -0.3467 -0.1468
13185W        W30032  18.036  19.535  10.627  0.0077 -0.0972  0.2991
13186W        W30033  16.327  19.193   5.274 -0.2538 -0.0710  0.2177
13187W        W30034   1.931  15.969   3.438 -0.0211 -0.2030  0.0669
13188W        W30035  14.229  16.417   0.884  0.2378  0.2153  0.1901
13189W        W30036  10.706   1.539  10.612 -0.3015  0.1367  0.2356
13190W        W30037  14.440  18.599  13.302 -0.3342 -0.1851  0.0266
13191W        W30038   5.665   6.147  10.939  0.1606 -0.3610 -0.1151
13192W        W30039   4.193  18.646  12.827 -0.0833  0.0486  0.0447
13193W        W30040  17.988   7.471  14.369  0.0589  0.0755 -0.0756
13194W        W30041   3.522  10.684   3.491 -0.2365 -0.1137 -0.2173
13195W        W30042   4.066   1.477  11.015  0.2476 -0.0479 -0.1182
13196W        W30043   6.368  11.253  14.306 -0.1031  0.0962 -0.0387
13197W        W30044  19.481   2.012  12.299  0.0258  0.1994 -0.0631
13198W        W30045   9.424  16.502   5.286  0.0793  0.0325 -0.1784
13199W        W30046  13.093  10.659  14.104  0.1234 -0.0937  0.1948
13200W        W30047  13.441   8.487  11.742  0.0919  0.0588  0.4886
13201W        W30048  15.818  13.162  10.583 -0.3172  0.3539  0.1989
13202W        W30049   9.616  11.583   0.866 -0.2973  0.2298  0.1735
13203W        W30050   9.359   1.374  13.221  0.1620  0.0143 -0.3409
13204W        W30051   4.300  11.352  10.655  0.3124 -0.5095  0.1533
13205W        W30052  10.469  10.043   2.519 -0.0102 -0.3002 -0.1130
13206W        W30053  11.666  16.399  13.743 -0.2954  0.1726  0.0521
13207W        W30054  10.589  18.429   0.616 -0.0177 -0.0771  0.3715
13208W        W30055  16.480  11.186  11.951  0.0734 -0.3053 -0.1158
13209W        W30056   0.231  13.554   2.342  0.0346  0.0407 -0.2512
13210W        W30057   2.112   2.709   0.623 -0.1186 -0.2617 -0.1260
13211W        W30058  16.069  16.989   4.393  0.4677 -0.0578  0.0027
13212W        W30059   4.329   2.536   2.476 -0.2420 -0.0230  0.2449
13213W        W30060   4.593  14.226  10.852 -0.0580  0.1708 -0.1348
13214W        W30061   9.389  12.353  12.123 -0.5057  0.2365 -0.2394
13215W        W30062   8.519  16.751  10.358 -0.0584 -0.3513 -0.0996
13216W        W30063  10.040  13.297  12.338 -0.2335 -0.4452 -0.3710
13217W        W30064  14.336   1.258  12.234 -0.4696 -0.0084 -0.2937
13218W        W30065   6.570  15.516   0.282 -0.4043  0.0518 -0.0078
13219W        W30066  16.605  11.985  13.396  0.0979 -0.2385  0.1494
13220W        W30067   6.933  18.216   0.842 -0.0769  0.0052 -0.2342
13221W        W30068   9.038   4.120   1.893  0.2251 -0.1164 -0.1255
13222W        W30069   3.343   3.697  12.379  0.1835 -0.3026  0.0774
13223W        W30070   9.154   1.829  10.629 -0.0682 -0.1663  0.3655
13224W        W30071   8.766  14.519   4.959  0.1507  0.2182  0.1129
13225W        W30072   4.693   4.319  12.234  0.2794 -0.4005  0.1691
13226W        W30073   7.417  19.529  11.566  0.0608  0.1720 -0.2610
13227W        W30074  10.839   3.998  11.915 -0.1820 -0.1924  0.1958
13228W        W30075  17.814   9.068  11.346  0.1956 -0.0670 -0.0903
13229W        W30076   4.224   4.198  12.378 -0.1557 -0.1461  0.0561
13230W        W30077   7.996   1.994  11.226 -0.0665 -0.1466  0.1205
13231W        W30078  13.342  12.028   4.801 -0.0357  0.0342  0.1317
13232W        W30079   5.521  18.568   9.675 -0.0333  0.0225  0.0415
13233W        W30080  15.873  11.562   4.273 -0.0589  0.3233  0.0122
13234W        W30081   4.809   7.202   1.432 -0.0302 -0.0710 -0.4489
13235W        W30082   4.965  19.009   3.004  0.1755  0.1904 -0.1109
13236W        W30083  15.117  16.630  10.426 -0.1989 -0.0483 -0.0757
13237W        W30084   3.831   2.516   3.547 -0.0519  0.0606 -0.0293
13238W        W30085  18.450   9.909   1.338  0.0374  0.0722  0.1121
13239W        W30086   2.536  13.779  11.779 -0.0030 -0.1369 -0.1464
13240W        W30087  16.912  19.408  11.964  0.1692  0.1100 -0.0559
13241W        W30088   6.626  18.220   3.932 -0.1420  0.0255 -0.1523
13242W        W30089   1.797  19.595  13.769  0.1452  0.0327 -0.3468
13243W        W30090   1.988  18.900  11.401 -0.0714 -0.2439  0.0737
13244W        W30091   5.262   5.125  13.743  0.3440 -0.2537 -0.0955
13245W        W30092   4.612   5.733   3.906  0.2915 -0.3011 -0.1899
13246W        W30093  17.651  15.184  11.542  0.1786  0.0284  0.0544
13247W        W30094   1.059   9.914  10.958  0.0529 -0.3079  0.0131
13248W        W30095   9.375   6.003  12.339 -0.1205  0.0431 -0.0136
13249W        W30096  14.433  14.006  14.596  0.1493 -0.1998 -0.0884
13250W        W30097  10.009   9.631  13.057 -0.2209 -0.1557 -0.2695
13251W        W30098  11.931  14.288   2.533  0.0490 -0.0880  0.1036
13252W        W30099   4.183   2.660  12.554 -0.0481 -0.3875 -0.2485
13253W        W30100   4.916   4.283  11.735 -0.0919 -0.0907  0.0209
13254W        W30101  11.642  16.819   2.573  0.2124  0.0188 -0.0904
13255W        W30102  16.039   1.521   9.807  0.0274 -0.1821 -0.0841
13256W        W30103   2.115   7.115   4.465  0.0984 -0.0102  0.0049
13257W        W30104  11.764  10.276   0.226 -0.0135 -0.3529  0.3799
13258W        W30105   3.358   2.648   9.236 -0.1687 -0.2108 -0.4592
13259W        W30106   2.252   0.756   2.876  0.1430  0.0182 -0.0482
13260W        W30107  13.289   0.097   1.301  0.1919  0.0133 -0.1599
13261W        W30108   9.651   7.247  13.805 -0.1246  0.3349 -0.0356
13262W        W30109  11.380  17.326  13.132  0.1855 -0.0781  0.0723
13263W        W30110   9.770   2.770   2.688 -0.0187  0.1219  0.0403
13264W        W30111  13.998   2.000   1.764 -0.1824  0.0010 -0.0889
13265W        W30112  18.439   2.136   1.053 -0.0622  0.2057  0.0485
13266W        W30113   5.439  10.587   3.726 -0.2104  0.4214 -0.1474
13267W        W30114   0.610  15.637  14.327  0.0723  0.4395  0.1117
13268W        W30115   5.631  19.623   0.186  0.0607 -0.2261  0.1887
13269W        W30116   3.150  14.521  10.419  0.0336  0.2451 -0.1126
13270W        W30117  13.220  15.061  10.501 -0.2245  0.0796 -0.1544
13271W        W30118   7.646   5.019   3.077  0.0739  0.1881  0.1494
13272W        W30119   8.315  13.439   3.891  0.0156 -0.0066  0.2664
13273W        W30120   4.310  13.818   3.356  0.0918 -0.0652 -0.0294
13274W        W30121   2.178   7.239   1.956 -0.1376  0.1333 -0.1823
13275W        W30122  10.424   4.802   2.889  0.0817  0.0475  0.1519
13276W        W30123  14.405  18.127  13.567 -0.1490 -0.0874 -0.0947
13277W        W30124   4.688   9.310   0.543  0.0680 -0.1588 -0.5621
13278W        W30125   8.938  13.674   1.891  0.1041  0.1974  0.2294
13279W        W30126   8.990   5.955   1.850  0.0006 -0.1732 -0.0897
13280W        W30127  13.211  13.926   3.181 -0.3068  0.0172  0.3404
13281W        W30128   9.839   5.326  11.871  0.2801  0.1467  0.2047
13282W        W30129  19.138   4.708  12.703 -0.2312  0.1536  0.1069
13283W        W30130   3.331  17.968  14.181  0.1221 -0.1415 -0.1424
13284W        W30131   7.968  13.466  14.274 -0.0975 -0.2426 -0.3199
13285W        W30132   1.275  11.633   4.519 -0.0970  0.2316  0.1011
13286W        W30133  13.603   6.943  14.136 -0.1152  0.5043  0.0439
13287W        W30134   9.915  18.706  10.470 -0.2030  0.1887 -0.1956
13288W        W30135   6.057   4.094   3.746 -0.0314 -0.2105 -0.0134
13289W        W30136  18.099   3.802   1.170 -0.0847 -0.1206 -0.2098
13290W        W30137  12.459   9.325   0.220 -0.4154 -0.1588  0.0531
13291W        W30138   2.991  17.479   0.803 -0.5526  0.0308 -0.4039
13292W        W30139   3.212   9.467  12.032  0.0359 -0.3422 -0.3349
13293W        W30140  14.420  17.082   5.172  0.0674 -0.4870  0.2992
13294W        W30141   4.862   9.701   2.238 -0.1201  0.1073  0.1190
13295W        W30142  15.890   7.625   3.090  0.2410 -0.1008 -0.1253
13296W        W30143  12.209   8.575   2.199 -0.0643 -0.2930  0.0142
13297W        W30144  13.838  19.453  13.443  0.0452  0.2621 -0.1161
13298W        W30145  10.481   1.067  11.986  0.1107  0.0707 -0.0629
13299W        W30146  13.400  17.236   3.707 -0.0020  0.0486  0.0658
13300W        W30147   8.435   5.972  10.767 -0.5598  0.4092  0.0928
13301W        W30148  17.473  16.398  10.347  0.0840 -0.0038  0.0865
13302W        W30149   4.888  11.751   3.675  0.0282  0.2793 -0.3071
13303W        W30150   6.590   9.303  12.425 -0.2814  0.2515 -0.0919
13304W        W30151  15.008  12.057   1.248  0.0959  0.0514 -0.1880
13305W        W30152  16.854   4.961   0.272  0.1549  0.2896  0.0913
13306W        W30153  10.194  12.528   3.624  0.0125 -0.0300 -0.0281
13307W        W30154   0.701  15.006   1.878 -0.0511  0.2028 -0.0795
13308W        W30155  15.142   6.197   1.532 -0.3504  0.1264 -0.0277
13309W        W30156   3.813   9.010   1.721  0.4016 -0.4165 -0.2042
13310W        W30157   3.351  18.546   2.643 -0.2340  0.2804 -0.1630
13311W        W30158  18.695   7.357  10.917 -0.1241 -0.0747 -0.2477
13312W        W30159  12.008   2.143  12.402  0.0492 -0.1719  0.0067
13313W        W30160  19.541   7.627   9.263  0.0221  0.0349 -0.4023
13314W        W30161  16.125  10.197   1.701 -0.2337 -0.1081 -0.1280
13315W        W30162   4.708   3.444  14.157 -0.2945  0.4497 -0.2942
13316W        W30163   7.565  12.080  12.793 -0.0246 -0.3476  0.2195
13317W        W30164  19.450  14.562   2.778 -0.1713  0.4658  0.0690
13318W        W30165   6.476   2.341   0.710 -0.2728 -0.1197 -0.0026
13319W        W30166   6.406  17.044   0.039  0.1297 -0.0189  0.4008
13320W        W30167   4.507  15.871   0.033  0.1946  0.1483 -0.0790
13321W        W30168   1.488   6.242   3.175  0.1704  0.1893 -0.1338
13322W        W30169   8.907  11.491  13.746 -0.1473 -0.6228  0.1364
13323W        W30170  15.202  14.343  11.083 -0.4296  0.1013 -0.0466
13324W        W30171  11.272  11.608   3.087  0.0998  0.0872  0.0157
13325W        W30172  18.546   3.016   4.372 -0.1638 -0.2794 -0.0055
13326W        W30173   4.600   2.506   0.688  0.1262 -0.2332  0.3534
13327W        W30174  14.513  12.250   1.226 -0.1852  0.0393  0.0772
13328W        W30175   4.539   5.759  11.436  0.2217 -0.0691  0.1565
13329W        W30176   4.636  13.015   1.087  0.3169  0.2026 -0.0007
13330W        W30177  15.328   2.348   9.946  0.2244  0.0523 -0.2625
13331W        W30178  16.362  13.705  12.323  0.4100  0.3119 -0.0118
13332W        W30179   4.790   1.352  10.152 -0.2407 -0.2182 -0.2207
13333W        W30180   8.948   1.554  11.372 -0.1878  0.0772  0.0714
13334W        W30181  10.022   6.306  11.251  0.2048  0.0307  0.0289
13335W        W30182   4.513  13.522   1.320  0.1665 -0.2507 -0.1084
13336W        W30183  15.512  17.084   3.459  0.1170  0.0008 -0.0208
13337W        W30184   3.797  17.136   3.916  0.1561  0.0417 -0.1611
13338W        W30185  16.985   5.950  12.357  0.1580  0.1401  0.3685
13339W        W30186  13.832  11.398  10.877  0.0744 -0.1896 -0.1040
13340W        W30187  17.871   5.552  14.244  0.0628 -0.3632 -0.0168
13341W        W30188  19.253  19.509   3.071 -0.1726 -0.4392 -0.1847
13342W        W30189  16.167   3.575   0.298  0.2801  0.2863  0.2090
13343W        W30190   1.539  11.682  11.773 -0.2622 -0.1823  0.0459
13344W        W30191  12.616   8.569   1.796  0.0227  0.0944  0.2703
13345W        W30192  17.211   5.555   2.504 -0.1635  0.3365 -0.3414
13346W        W30193   8.780   9.686  14.137  0.2120 -0.1428  0.0197
13347W        W30194   2.095  11.909   0.088  0.0462  0.0487 -0.3885
13348W        W30195  14.152  17.104  10.581  0.0229 -0.1867 -0.0478
13349W        W30196  13.388  10.643   0.830  0.0569  0.0816  0.0235
13350W        W30197  17.035  18.053  10.878 -0.2663 -0.0501  0.1489
13351W        W30198   5.629   3.625  14.128 -0.0152 -0.2427 -0.4903
13352W        W30199  11.010   8.477  11.615 -0.1638 -0.0487 -0.3662
13353W        W30200  12.585  16.497  12.090  0.1520  0.3451 -0.3046
13354W        W30201  18.215   8.438  10.967 -0.0933  0.0367  0.1392
13355W        W30202   0.820   3.411  10.622 -0.1620 -0.0692  0.1911
13356W        W30203  11.822  13.152   0.709 -0.0550 -0.1923 -0.1886
13357W        W30204   8.776  19.261   0.336 -0.1803 -0.0159  0.0020
13358W        W30205   2.930   4.585   4.287  0.0860 -0.0824 -0.1606
13359W        W30206   7.287  14.910  12.624 -0.1478 -0.3057 -0.1522
13360W        W30207   0.612   2.501   3.243  0.3782  0.0861 -0.1484
13361W        W30208   8.805  18.150  10.518 -0.0390  0.0965 -0.3591
13362W        W30209  17.638   8.131  11.610 -0.3039  0.1290  0.1356
13363W        W30210   5.468  17.377  12.696  0.0546 -0.0333 -0.0528
13364W        W30211  17.354  12.378  14.147 -0.0371 -0.2414 -0.0085
13365W        W30212  10.033  14.573   0.031  0.0819  0.1178  0.0189
13366W        W30213   3.815   8.971  11.643 -0.0658 -0.2036  0.1098
13367W        W30214   7.696   3.095   4.692  0.0221  0.3152 -0.1884
13368W        W30215  19.557   8.442   3.306  0.0579  0.1811 -0.3805
13369W        W30216  15.101   5.045   5.139  0.0737  0.2435 -0.2448
13370W        W30217   4.980  16.922  13.640  0.1190 -0.2264  0.2085
13371W        W30218   4.832   0.710   1.177  0.3945 -0.0031 -0.0118
13372W        W30219  16.614  13.174  12.933  0.0760  0.2713 -0.0760
13373W        W30220   6.076  17.660  13.276 -0.1039  0.4910 -0.0798
13374W        W30221  18.743   2.259   1.470  0.0908  0.0389 -0.1757
13375W        W30222   8.176   7.464   3.554 -0.3380 -0.1794 -0.0747
13376W        W30223   0.199  17.237  11.550  0.1086  0.0943  0.0378
13377W        W30224   0.921   7.531  13.335 -0.2271  0.3313  0.1232
13378W        W30225  16.773   5.611   4.940 -0.1532  0.0001  0.0525
13379W        W30226   9.182   6.902   1.692  0.1949  0.0917 -0.0773
13380W        W30227  17.656   2.496   2.812  0.1638  0.1937 -0.0492
13381W        W30228  14.623  17.506  14.435  0.0492  0.0190 -0.3325
13382W        W30229   4.371  18.554  12.298  0.0887  0.2746 -0.1016
13383W        W30230   8.108   0.927  12.284  0.1660  0.1913 -0.0063
13384W        W30231  11.797   6.247   2.715 -0.1292 -0.2480 -0.0521
13385W        W30232   4.419   1.934   4.370 -0.3874  0.1273 -0.0572
13386W        W30233  14.567   5.776   3.670 -0.1764  0.1412  0.1794
13387W        W30234   2.869  14.457  14.053  0.4451 -0.4222  0.3982
13388W        W30235   6.380  10.673  11.643 -0.1192  0.0814 -0.1435
13389W        W30236   8.051  14.189   0.275 -0.2068  0.1567 -0.2123
13390W        W30237   0.428   7.744   0.794  0.2764 -0.2569 -0.0564
13391W        W30238  17.418  14.273   5.008 -0.3499  0.0216 -0.1770
13392W        W30239  12.275   8.514  12.117  0.2719  0.3558  0.2625
13393W        W30240  10.267  14.408   1.030  0.0773 -0.1599  0.2261
13394W        W30241   5.141  19.167  12.605 -0.1023 -0.0789 -0.0853
13395W        W30242  18.141  14.120  12.700 -0.0295 -0.2497 -0.1389
13396W        W30243   2.202   7.011  11.923  0.2618 -0.3646  0.0361
13397W        W30244  18.139  18.981  14.402  0.2084  0.2208 -0.4144
13398W        W30245  18.457   7.652  11.500 -0.3483 -0.2099  0.1170
13399W        W30246  19.477   2.779   0.946  0.1224 -0.0306  0.0648
13400W        W30247   1.520   2.114   3.549 -0.0095  0.0325 -0.0481
13401W        W30248  17.214  18.133  12.188 -0.0969 -0.1139 -0.3028
13402W        W30249   5.779  10.204   2.352 -0.2056 -0.1679 -0.1596
13403W        W30250   7.736  14.028   1.066  0.5148  0.2186 -0.0374
13404W        W30251   1.024  13.129  14.134  0.2046 -0.0589  0.3438
13405W        W30252   9.845   9.312   1.090  0.0421  0.3412 -0.1049
13406W        W30253  10.017  14.451   3.989 -0.0549  0.0897  0.1340
13407W        W30254   7.076   6.978   1.357  0.0085 -0.1508 -0.0493
13408W        W30255  15.175  14.465   0.214  0.1984 -0.0450 -0.1933
13409W        W30256  18.601   7.328  10.429  0.1022 -0.3065 -0.2767
13410W        W30257   0.796   7.095   1.513 -0.3506 -0.0084 -0.4018
13411W        W30258  18.179  17.735  12.433 -0.1306 -0.1592  0.3324
13412W        W30259  13.227  18.138  12.939 -0.1048 -0.1068 -0.2219
13413W        W30260  16.139  15.745   0.191  0.2341  0.1229  0.0939
13414W        W30261   6.228   1.795   2.012 -0.0066  0.0076  0.3406
13415W        W30262   1.232  14.661   3.220 -0.0865 -0.0660  0.1947
13416W        W30263   8.078  11.372  12.220  0.1159  0.0245  0.0575
13417W        W30264   9.976  17.099  14.489 -0.1648  0.3766  0.4491
13418W        W30265  10.308   0.351   4.567  0.0708  0.1494  0.1907
13419W        W30266   5.635  11.871  11.344 -0.0810  0.3237 -0.0065
13420W        W30267  12.368  14.921   0.265  0.0071  0.2915  0.2702
13421W        W30268  13.129  15.721   0.037 -0.0650 -0.0384  0.0740
13422W        W30269  14.144  18.439   9.688 -0.2031  0.3701  0.1318
13423W        W30270   0.436  14.931   3.207 -0.1950 -0.0405 -0.1791
13424W        W30271  17.126  18.360   0.773  0.2414 -0.1916  0.0749
13425W        W30272   1.024  18.208   0.138  0.1313 -0.1532 -0.1566
13426W        W30273   4.881   3.408  12.097  0.0241  0.3429  0.0805
13427W        W30274  16.396  10.394  10.844  0.0350 -0.1926 -0.1708
13428W        W30275  11.054  15.572   2.700  0.0058  0.2024 -0.0968
13429W        W30276  10.428  15.515  14.108 -0.0907 -0.0494 -0.0525
13430W        W30277   6.563  16.002   0.228  0.2270 -0.0166  0.2339
13431W        W30278   3.781   2.244   9.807  0.2312 -0.0470 -0.1810
13432W        W30279  10.012   2.409  14.079 -0.2437 -0.2580  0.0461
13433W        W30280   7.815  15.969   4.542  0.1953 -0.1337 -0.4562
13434W        W30281  13.487   7.828  10.988  0.2049  0.1582  0.0536
13435W        W30282  18.018   3.069  12.692  0.0015 -0.0264  0.1431
13436W        W30283  18.039  10.247  11.487  0.2311  0.3636 -0.1263
13437W        W30284  15.927   5.581  11.027  0.0216 -0.0693 -0.0107
13438W        W30285  11.371   2.072   4.920 -0.2099 -0.1516 -0.1745
13439W        W30286  12.518  12.614  14.240 -0.1535  0.0742 -0.0656
13440W        W30287   4.390  15.020  14.110  0.2915 -0.0331 -0.0136
13441W        W30288  18.523   4.145   0.356 -0.1564  0.1103 -0.1640
13442W        W30289   0.348   7.784  14.167  0.2774  0.1860  0.1351
13443W        W30290   2.731   7.910   4.602 -0.1477 -0.0843  0.1041
13444W        W30291   1.198  19.115  11.301 -0.2186  0.0901 -0.0035
13445W        W30292  10.657   5.590  11.653 -0.0178  0.1755  0.0550
13446W        W30293  12.914   2.570  13.126 -0.2409 -0.1593  0.2283
13447W        W30294  13.739  16.211   1.547  0.0265  0.4538  0.0738
13448W        W30295  17.353   4.249  13.275 -0.1857  0.2268  0.2772
13449W        W30296   6.596   5.893  12.802 -0.1592  0.3679  0.0821
13450W        W30297  17.522   7.605  10.426  0.3419  0.0295 -0.2196
13451W        W30298  16.460  10.765   5.455 -0.2337 -0.0017 -0.3028
13452W        W30299   9.752  14.739   3.505  0.1926 -0.3259 -0.0224
13453W        W30300  19.129   8.725  10.963  0.0668  0.0085 -0.0057
13454W        W30301   7.065  18.589   4.581 -0.0354 -0.3206  0.0825
13455W        W30302  16.096   2.434  10.817 -0.3476 -0.1675 -0.0192
13456W        W30303   3.716  10.132  11.432  0.0033  0.0360 -0.3189
13457W        W30304   8.954   3.202   2.495 -0.0002  0.1060 -0.0251
13458W        W30305  18.942  15.086   0.179  0.1620  0.2803 -0.2106
13459W        W30306  11.122  13.103   9.648  0.1370 -0.0490 -0.3362
13460W        W30307  12.850   6.085   3.223  0.0360 -0.0186 -0.0082
13461W        W30308  16.551  18.666   2.274  0.1041  0.0877  0.3210
13462W        W30309  11.630  19.304  11.264 -0.1587  0.4672  0.1190
13463W        W30310  15.066   9.837   0.164  0.1136 -0.2406 -0.1642
13464W        W30311  11.406   8.374   0.901 -0.0058  0.1342  0.0286
13465W        W30312   8.795   2.855  10.264  0.0857 -0.1873 -0.1796
13466W        W30313  18.709   9.252   5.289  0.1778  0.0599 -0.1429
13467W        W30314   8.529  14.385  13.128 -0.1547 -0.0896  0.1126
13468W        W30315  17.030   1.427   4.165  0.3904 -0.2046 -0.0287
13469W        W30316  13.473   1.029   4.217  0.0830  0.2170 -0.2789
13470W        W30317   0.902  17.591   1.748 -0.0271 -0.1579 -0.1550
13471W        W30318  18.966  11.259   4.640 -0.3285 -0.0088  0.2233
13472W        W30319   4.325  17.763   0.373 -0.1509  0.1211  0.3803
13473W        W30320  14.447  11.613   2.191  0.1494 -0.3200 -0.2002
13474W        W30321   5.815   2.896   2.229 -0.0079 -0.1909 -0.0253
13475W        W30322   8.196   7.106  14.371 -0.3239  0.1556 -0.1876
13476W        W30323  10.532  13.812  13.793 -0.0293 -0.5309 -0.3768
13477W        W30324   1.780   7.479   0.937  0.2735  0.3900 -0.1320
13478W        W30325  11.751   3.950  14.518 -0.4140 -0.1091 -0.3311
13479W        W30326   4.994  11.324   4.607  0.0665  0.1819  0.0465
13480W        W30327   4.826  15.934  10.377  0.3580  0.1845 -0.1112
13481W        W30328  18.596   7.988  11.140  0.0239 -0.0295  0.1175
13482W        W30329  15.013  13.757   1.247 -0.1240 -0.1555  0.1053
13483W        W30330   9.457   5.806  13.025  0.0165  0.2946  0.2879
13484W        W30331  11.739   7.684  14.362 -0.0986 -0.0766 -0.1496
13485W        W30332  18.367   6.803  13.151 -0.5005  0.0319  0.0737
13486W        W30333  11.348  13.245   1.034 -0.3175  0.1369  0.2549
13487W        W30334  17.611  11.346   9.395  0.1489  0.2891 -0.2835
13488W        W30335  18.397   6.214  10.370  0.1520 -0.4029 -0.0643
13489W        W30336  16.713   1.032   1.364  0.0981 -0.1467 -0.1925
13490W        W30337  12.270  10.331  10.824 -0.0547 -0.2760  0.0471
13491W        W30338   1.082   0.427   1.241 -0.0459 -0.0544  0.0022
13492W        W30339  13.407  16.299  14.244 -0.2204  0.1644  0.1404
13493W        W30340  12.164  11.066  12.487 -0.1178  0.1495 -0.0295
13494W        W30341   4.942  13.646   1.442  0.1511  0.0290  0.0385
13495W        W30342   9.708  12.973   1.492 -0.2963 -0.0271 -0.0530
13496W        W30343   4.729   7.383   1.955  0.0309  0.1412 -0.2272
13497W        W30344   8.267  15.783  11.705  0.0610 -0.4100  0.0544
13498W        W30345   9.681  16.529   3.669  0.2075  0.1051  0.1440
13499W        W30346  18.501  17.202  10.805  0.0867  0.0787 -0.0867
13500W        W30347  10.612  16.292   0.994 -0.1381  0.0729 -0.5064
13501W        W30348  19.380  14.488  13.569  0.1890  0.1044 -0.1106
13502W        W30349  14.303   7.239   1.345  0.1890 -0.0250  0.0319
13503W        W30350  16.372   2.644  12.316 -0.1030  0.2526 -0.2277
13504W        W30351  11.243   3.594   0.569  0.0362 -0.0163 -0.0769
13505W        W30352  18.461  13.591   2.351 -0.0310 -0.0116  0.1212
13506W        W30353   6.491   6.414   2.334 -0.0638  0.1160 -0.0727
13507W        W30354   3.881   2.658  14.450  0.2254  0.0596  0.0780
13508W        W30355   5.855   3.639   1.303  0.3451 -0.0651 -0.0551
13509W        W30356  19.032   6.070   1.389 -0.0544 -0.4335 -0.0263
13510W        W30357  12.156   0.378   3.700  0.1191 -0.0139 -0.1367
13511W        W30358  10.644  15.448   1.824  0.0167 -0.4421 -0.4991
13512W        W30359   3.781  13.515  11.083  0.0608 -0.3146  0.4062
13513W        W30360   8.571  13.639  10.363 -0.1359  0.0963  0.1166
13514W        W30361   0.080  14.315   8.971 -0.0161  0.0297  0.0452
13515W        W30362   7.935  18.626   4.688  0.0249 -0.1070 -0.0343
13516W        W30363   5.988  10.874  14.420 -0.0079 -0.3021  0.2959
13517W        W30364  17.593   8.851  12.232  0.1417  0.2160 -0.1446
13518W        W30365  11.689  11.848   4.032 -0.2333 -0.3222  0.2409
13519W        W30366  16.881   0.748   2.237  0.1746 -0.1361 -0.1374
13520W        W30367   3.212  10.172   3.311  0.3323 -0.1741  0.1537
13521W        W30368  15.642   0.818  13.730  0.0213  0.0949  0.1534
13522W        W30369  16.772   4.383  10.764 -0.0892 -0.0383 -0.0459
13523W        W30370  15.933  19.406  12.381  0.0588  0.2597  0.0701
13524W        W30371   1.671  15.345  13.182 -0.0094  0.0674  0.3691
13525W        W30372  17.729  10.560   2.989 -0.0462 -0.0909 -0.2600
13526W        W30373   8.824   6.298  14.035  0.0543  0.1622 -0.1849
13527W        W30374   6.433   5.720  13.679  0.0535 -0.2387  0.0626
13528W        W30375   0.075  14.218  10.227  0.1504  0.4056  0.3060
13529W        W30376  10.503  13.823  12.126  0.2354  0.0884  0.1313
13530W        W30377   2.692   5.864  11.141  0.3087  0.1383 -0.2613
13531W        W30378  13.123  14.635   1.959  0.1553 -0.0393  0.1662
13532W        W30379   8.793  16.456  12.802 -0.1752 -0.1386  0.4032
13533W        W30380  13.830   8.568  13.191 -0.3711  0.4831  0.1501
13534W        W30381  13.619  13.693   2.443 -0.0293 -0.3264  0.2180
13535W        W30382  12.778  13.588  14.540 -0.0652 -0.1409 -0.0878
13536W        W30383   9.432   5.477   1.131 -0.0756 -0.0400  0.0904
13537W        W30384  18.334  11.017  13.711 -0.1858  0.0478  0.0359
13538W        W30385   5.240   9.814   2.914 -0.1518  0.0916  0.3546
13539W        W30386   4.787  14.491   0.532 -0.0246 -0.3083 -0.0059
13540W        W30387  15.174   9.324   0.633 -0.0845  0.3072 -0.0571
13541W        W30388  16.526  12.109   8.829  0.2522 -0.1607 -0.1735
13542W        W30389   6.537   4.758   0.726  0.2128  0.2124  0.0406
13543W        W30390  12.046  17.641  14.311 -0.1215 -0.1439  0.0255
13544W        W30391  17.623  14.843   3.041 -0.1720 -0.0561  0.1407
13545W        W30392   9.557   6.752  12.867  0.3091  0.1970  0.2319
13546W        W30393   8.605  10.439   0.838 -0.1014 -0.0794  0.1421
13547W        W30394   2.107  17.945   3.004  0.0888  0.3590  0.0117
13548W        W30395  10.980  16.520   3.751 -0.0861  0.0414 -0.0306
13549W        W30396  16.683  18.820  14.154  0.2861 -0.0480 -0.0122
13550W        W30397  10.118   9.579   3.212 -0.2205  0.0603  0.2436
13551W        W30398   8.812  10.389   2.999 -0.2561  0.2855  0.1359
13552W        W30399  10.062   2.274  12.185  0.1138 -0.2057 -0.0781
13553W        W30400  17.777   8.838  10.865  0.1293 -0.3433 -0.0580
13554W        W30401  17.880   0.013  11.181 -0.3322 -0.2040 -0.0166
13555W        W30402   1.826   9.773  11.257 -0.0598 -0.1771 -0.2585
13556W        W30403  12.479  10.353  11.735  0.0615  0.0301 -0.0120
13557W        W30404   5.370  16.539  12.672 -0.1196  0.2445  0.2986
13558W        W30405   7.059   9.119   2.776 -0.1097  0.2992 -0.0333
13559W        W30406  13.825   5.152  11.176 -0.1145  0.1491 -0.1647
13560W        W30407  11.874   4.259   3.979 -0.1055 -0.1437 -0.1174
13561W        W30408   4.500   7.570   4.354  0.0022 -0.1119 -0.0707
13562W        W30409  17.805  14.466   2.698  0.0485  0.2076  0.0007
13563W        W30410  15.939   3.335  14.486  0.0942 -0.0092  0.0654
13564W        W30411   2.390   8.623   3.899 -0.1578 -0.1655  0.1907
13565W        W30412  16.744  10.971   0.748  0.0922 -0.1184  0.1141
13566W        W30413   8.123   7.123   3.002 -0.1437  0.3736  0.2018
13567W        W30414   2.686  16.619   3.886  0.0851  0.3026 -0.0370
13568W        W30415  11.502  18.286   3.636 -0.0562 -0.2395 -0.1258
13569W        W30416  14.021  11.740   3.443  0.3901 -0.2080  0.1712
13570W        W30417  16.648  12.871  12.466 -0.2675 -0.0940 -0.2912
13571W        W30418   0.047  10.868  10.389  0.0049  0.0458  0.1548
13572W        W30419   6.630   4.751   2.241 -0.3103 -0.0018 -0.1555
13573W        W30420   0.450  14.961  13.756 -0.1454  0.1621  0.0656
13574W        W30421   2.861   0.676   4.761  0.0182 -0.2382  0.0740
13575W        W30422  15.407  11.784   1.274  0.4165 -0.5859  0.1260
13576W        W30423   8.243  11.973   4.483 -0.2375 -0.4771 -0.0596
13577W        W30424  16.249  18.377   4.275 -0.0077  0.0731  0.1592
13578W        W30425   9.147  12.561  10.221  0.1750  0.1327 -0.1968
13579W        W30426  18.794  10.710  12.492  0.3235 -0.0454 -0.0862
13580W        W30427  16.884  13.051   4.404 -0.3598 -0.0963 -0.1807
13581W        W30428   5.097  14.530   9.476  0.0205  0.0496  0.2002
13582W        W30429  14.053   8.160   0.074 -0.1943  0.1316  0.0777
13583W        W30430   0.307   0.363   2.523  0.2832 -0.0407 -0.2584
13584W        W30431  16.311  13.951   3.275  0.2210 -0.1775  0.1113
13585W        W30432   6.315  13.062  12.766 -0.1385  0.1833  0.0918
13586W        W30433   9.753  10.088  12.311  0.3190  0.1306  0.2216
13587W        W30434   4.196  18.744  14.277 -0.3062 -0.1386 -0.1661
13588W        W30435  15.387  11.519   3.929 -0.3361 -0.1475  0.1804
13589W        W30436   5.777  17.695   0.727  0.1539  0.2898  0.1369
13590W        W30437  14.211   7.671   2.320 -0.1645 -0.0247 -0.4436
13591W        W30438   4.106   4.909   1.731  0.0394  0.2688 -0.1191
13592W        W30439   3.941   3.382   9.544 -0.0322  0.3448 -0.1215
13593W        W30440   8.173  17.912   2.204 -0.0128 -0.1856  0.4490
13594W        W30441  17.441   5.485  14.003  0.4391  0.0456  0.0037
13595W        W30442   0.654  19.077   2.518 -0.3360  0.4237  0.3463
13596W        W30443  11.329   9.894  11.201 -0.1788  0.0592 -0.1254
13597W        W30444   5.447  16.234  10.757 -0.1877 -0.3350  0.2170
13598W        W30445  13.067   0.937   2.508 -0.1280  0.3103 -0.1743
13599W        W30446   5.497  13.602   2.997 -0.0203  0.4128 -0.2409
13600W        W30447   3.621  16.327   3.510  0.0149  0.1091 -0.4030
13601W        W30448   0.937   5.902  13.091 -0.0868 -0.0171  0.0330
13602W        W30449  10.512  14.229   3.295  0.0694 -0.1231  0.1717
13603W        W30450   9.053   0.610  14.426 -0.0642  0.1486  0.1915
13604W        W30451   4.165   7.369  10.504  0.5205  0.1875 -0.0478
13605W        W30452  16.162  10.244   3.046 -0.2230 -0.1387 -0.1840
13606W        W30453  11.639   5.871   3.674 -0.2921 -0.0026 -0.3603
13607W        W30454  12.907  10.326   4.319  0.0319  0.1594 -0.2150
13608W        W30455   7.465   4.949   1.420 -0.1565 -0.2272  0.0563
13609W        W30456  16.290  12.057  12.357  0.0212  0.2902 -0.0746
13610W        W30457   4.551   4.503  14.082  0.1367  0.0225  0.1868
13611W        W30458  15.825  18.500  10.276 -0.3561 -0.0861  0.0205
13612W        W30459  10.033   1.468  12.841 -0.2862  0.2238 -0.3429
13613W        W30460   4.024  14.994   1.507  0.1339  0.0412 -0.3054
13614W        W30461  10.282  11.838  11.307  0.4399  0.1931  0.0756
13615W        W30462   6.330   8.050  13.484  0.1961  0.1793 -0.0806
13616W        W30463  14.762   1.371  11.399  0.0464  0.3154 -0.2520
13617W        W30464   2.691   1.975  12.315  0.0210 -0.1708 -0.2454
13618W        W30465  19.123   3.303  10.954 -0.2914  0.2830 -0.2310
13619W        W30466   5.595  11.387   3.327  0.0309  0.2325 -0.0805
13620W        W30467  15.599  10.250   4.320  0.1955  0.1996 -0.5862
13621W        W30468   8.798  10.214  12.898 -0.0157  0.0741  0.0482
13622W        W30469  10.428   2.716   0.732  0.1578  0.0068  0.2308
13623W        W30470   8.225   9.615   1.724 -0.2024  0.0723  0.0661
13624W        W30471   2.855  12.411   4.061  0.1069  0.2002  0.0610
13625W        W30472   6.917  15.850  12.439  0.1580 -0.0563 -0.3214
13626W        W30473  15.429  12.214  13.925 -0.2459 -0.2289  0.0366
13627W        W30474   3.006   1.037   2.792  0.0917 -0.0612 -0.1144
13628W        W30475  13.100  18.404   1.437 -0.3974  0.2187  0.1751
13629W        W30476   7.263   6.778  13.203 -0.0044  0.1667 -0.0444
13630W        W30477  17.958  16.537  10.521  0.0834 -0.3903  0.0554
13631W        W30478   7.276   3.903  12.043  0.1794  0.2976  0.0497
13632W        W30479  18.311   6.697   0.021 -0.0512 -0.2053  0.1750
13633W        W30480   8.319  18.116   4.344  0.0271 -0.0836  0.1525
13634W        W30481  17.263  14.502  11.135  0.2585 -0.1244  0.6852
13635W        W30482  14.798  12.976  11.999  0.1535 -0.1451 -0.1354
13636W        W30483  11.470   9.568  11.660 -0.0184 -0.0275 -0.1972
13637W        W30484  16.115  14.469   4.509 -0.5584  0.3027  0.4095
13638W        W30485   5.269  17.936  11.251  0.0468 -0.0009 -0.0589
13639W        W30486  13.037   3.128   4.438 -0.0344  0.2918  0.1913
13640W        W30487  19.563   9.175   0.348  0.0369  0.0296  0.1288
13641W        W30488   5.032  17.083   0.628  0.2334  0.0091  0.0372
13642W        W30489   4.213   2.226   3.476  0.3607  0.2575  0.0007
13643W        W30490   0.569  13.081  14.313 -0.0629  0.0556  0.0580
13644W        W30491  13.251  19.410   3.263  0.1306  0.0014 -0.2417
13645W        W30492   3.383   2.093   0.310  0.0335 -0.1012  0.0301
13646W        W30493  12.157   5.944   3.669 -0.2188 -0.2153  0.1048
13647W        W30494  12.722  11.037  12.346  0.1264 -0.1931  0.2935
13648W        W30495  13.351  11.093  13.572 -0.0596 -0.2927 -0.1059
13649W        W30496   2.853  18.387   2.662 -0.0452  0.2695  0.1429
13650W        W30497   5.923  11.028   5.045 -0.1405  0.2430  0.0702
13651W        W30498   7.074   0.120   5.011  0.3164 -0.1000  0.0378
13652W        W30499  18.491  15.406  11.686  0.3943  0.3492 -0.1011
13653W        W30500  16.891  17.862   3.980  0.2822 -0.1362 -0.0043
13654W        W30501   1.417   1.457  12.017 -0.1520 -0.1634  0.0944
13655W        W30502   8.327  14.069   3.743 -0.2166  0.4301  0.2024
13656W        W30503  19.556  11.036   1.396 -0.0874 -0.3383  0.1724
13657W        W30504  17.511  13.328   9.745  0.1616  0.1515  0.1950
13658W        W30505  14.840  14.030   4.166 -0.0384 -0.2225 -0.1010
13659W        W30506  11.045   6.852  11.607  0.1645 -0.0148 -0.2292
13660W        W30507  12.655   9.476   1.170 -0.4008  0.2527 -0.0232
13661W        W30508  13.462  15.651   0.489  0.0654  0.2713 -0.1895
13662W        W30509   5.660  16.869  13.037 -0.3055  0.0838  0.1026
13663W        W30510  13.354   1.410   3.880  0.1478 -0.1009  0.0494
13664W        W30511   9.805   9.457  10.289 -0.1696  0.0493 -0.0059
13665W        W30512   5.808  17.011   1.891  0.0317 -0.0324 -0.4465
13666W        W30513   1.268   8.302   2.579  0.0630 -0.0879 -0.1338
13667W        W30514   5.725   6.674   1.717 -0.0280  0.1066  0.0867
13668W        W30515  12.487  15.362  11.626 -0.0364 -0.1552 -0.0633
13669W        W30516   7.450  12.280  11.910  0.0855 -0.1010  0.1128
13670W        W30517  13.427   2.919   4.777 -0.0349 -0.1616 -0.1480
13671W        W30518  13.924   2.000   2.904  0.1916  0.1638 -0.0248
13672W        W30519  15.700  12.859   3.657  0.0845 -0.1453  0.2270
13673W        W30520  13.293   8.812   2.288 -0.0606 -0.0834 -0.0685
13674W        W30521  18.315  13.777   4.835 -0.1146 -0.1567  0.0794
13675W        W30522  11.496  13.052  14.480  0.0277  0.0753 -0.0183
13676W        W30523   6.143   0.487  10.901  0.1323 -0.1984  0.1252
13677W        W30524  12.490   7.414   2.701 -0.1971 -0.0685 -0.2791
13678W        W30525   2.155  13.099   1.420 -0.0780 -0.2049  0.4303
13679W        W30526   7.392  19.623   9.607  0.2065  0.3089 -0.0728
13680W        W30527  18.551  19.458  10.003 -0.2393  0.1172 -0.2110
13681W        W30528  10.373  19.632  13.605 -0.1594 -0.0697 -0.1721
13682W        W30529  14.321  13.171   1.671 -0.1126 -0.0179  0.1143
13683W        W30530   2.282   7.950  13.061  0.1499 -0.0856 -0.3289
13684W        W30531   9.069  13.242  14.105 -0.0924 -0.2222 -0.0228
13685W        W30532   2.021   4.716   1.436 -0.0891  0.1913 -0.0080
13686W        W30533   1.149  17.286  12.357 -0.2013 -0.0181  0.0679
13687W        W30534  10.505   7.633  12.633  0.0293  0.2857 -0.0880
13688W        W30535   2.703  18.823  10.640 -0.5044  0.0199 -0.2632
13689W        W30536  18.316  12.268   3.561 -0.0149  0.4716  0.1735
13690W        W30537   3.047   2.793   2.890  0.1820  0.0342 -0.3222
13691W        W30538   8.686  17.798  13.079 -0.1607  0.2017 -0.1611
13692W        W30539  11.173   6.984   4.537 -0.0869  0.1546  0.1230
13693W        W30540  15.809  16.729  10.534 -0.1416 -0.0727 -0.0192
13694W        W30541  12.135  15.108  11.092  0.0800 -0.1357  0.3357
13695W        W30542   4.945  10.493   0.898  0.1293  0.2543  0.1053
13696W        W30543  19.541  11.038   9.938  0.2247  0.1266  0.1905
13697W        W30544   3.314  16.251  14.185 -0.3330 -0.2724 -0.1141
13698W        W30545   8.434  15.558  12.506  0.2708  0.1344  0.1665
13699W        W30546  17.197  17.603  10.650 -0.1741 -0.1596 -0.1832
13700W        W30547   1.344   2.339   1.663 -0.0613 -0.0301 -0.2167
13701W        W30548  16.912  16.094   1.477  0.1335 -0.0176 -0.1600
13702W        W30549   4.351  18.398  11.416  0.1583  0.2924  0.4679
13703W        W30550   4.434  19.456   1.076  0.0562 -0.0535 -0.2585
13704W        W30551   2.244  10.161   4.897 -0.3571 -0.0217  0.0745
13705W        W30552  12.941   0.982   1.619  0.2202  0.0511 -0.0537
13706W        W30553   8.028  11.896   2.693  0.1033  0.0798 -0.2557
13707W        W30554  14.765   3.443  11.624  0.0713 -0.1727 -0.0526
13708W        W30555  16.918  16.372  10.360  0.0029 -0.2685 -0.0743
13709W        W30556   4.955   0.333   2.643  0.2756 -0.3207 -0.2512
13710W        W30557   1.077  16.520   4.878  0.0129  0.1822  0.2808
13711W        W30558   2.860  12.062   1.916  0.2831  0.2863  0.0847
13712W        W30559  11.959  11.397   4.928  0.0603 -0.0350 -0.2136
13713W        W30560   4.390   9.348  14.614 -0.2982 -0.0581 -0.4258
13714W        W30561   0.165  15.596  12.779  0.0558  0.0404 -0.1835
13715W        W30562   1.889   5.057   4.227 -0.2107 -0.3635  0.2775
13716W        W30563  15.444   5.986   3.189  0.2948  0.0005 -0.2813
13717W        W30564   6.040  18.938  12.729 -0.3049 -0.3305 -0.1191
13718W        W30565  10.335   3.839   1.508  0.0607 -0.3103 -0.1643
13719W        W30566  12.981   5.326  14.598 -0.0896 -0.2301  0.0611
13720W        W30567  15.916  13.254   5.231 -0.1173 -0.2652  0.0535
13721W        W30568   9.336  11.655   4.272  0.2665 -0.3873 -0.0233
13722W        W30569   4.875  16.771  10.238 -0.1275  0.3872 -0.0104
13723W        W30570  18.959  12.587  10.820  0.2452  0.0431 -0.0090
13724W        W30571   1.188   7.677  10.445  0.1959  0.3012  0.1331
13725W        W30572  19.489   8.700   2.454  0.0288 -0.0881  0.1323
13726W        W30573  16.578  13.909   2.800 -0.3732  0.1533  0.1470
13727W        W30574  13.853   5.480  12.941  0.3879 -0.2665 -0.0859
13728W        W30575  18.602   7.788  10.710  0.1710  0.2883  0.0549
13729W        W30576   4.480   1.998   9.743  0.1571  0.2007 -0.1387
13730W        W30577  17.920   8.106   2.747 -0.0367  0.0698 -0.0588
13731W        W30578  19.464  12.907   1.152 -0.1485  0.0375  0.0283
13732W        W30579  19.166   5.967   5.228  0.3857 -0.0830 -0.0279
13733W        W30580   0.966  12.172  12.264 -0.1952 -0.1594  0.7056
13734W        W30581   4.846   8.417   3.366  0.2707  0.1742  0.1503
13735W        W30582  14.212  16.620   5.066  0.1428  0.1149  0.0420
13736W        W30583   9.518   5.284  14.246 -0.0334  0.2620  0.1014
13737W        W30584   4.239  17.380  14.042  0.0865  0.0168  0.0702
13738W        W30585  16.786  18.658  11.488 -0.3625 -0.2786 -0.0594
13739W        W30586  14.040   1.551  10.467  0.3955 -0.0085  0.1882
13740W        W30587   2.587  16.464  13.909 -0.0551 -0.0477 -0.1131
13741W        W30588  15.968  14.609   1.816  0.0088 -0.3860 -0.1607
13742W        W30589  17.876  11.264   9.880  0.2486  0.1040  0.1306
13743W        W30590  18.111   8.359  14.613  0.1439 -0.2123 -0.2070
13744W        W30591   3.560  12.009   0.380  0.1845 -0.4524 -0.1636
13745W        W30592  12.349  19.066   4.717  0.0200  0.4722  0.0470
13746W        W30593  19.385  13.717   2.262  0.4307  0.0022  0.1577
13747W        W30594   9.537   9.684  10.669 -0.3673  0.0999  0.2590
13748W        W30595   5.067   4.521   4.531 -0.2300 -0.0710 -0.0097
13749W        W30596   6.866  16.871  11.083  0.1014  0.1836 -0.1312
13750W        W30597  19.479  18.582  14.576  0.3703 -0.0962 -0.0623
13751W        W30598  19.054   7.963   0.707 -0.2154 -0.0113  0.0554
13752W        W30599  17.464  17.367  12.524 -0.2141 -0.0475  0.0723
13753W        W30600  18.374   4.411   2.805 -0.1596 -0.0888 -0.0877
13754W        W30601   0.771  14.081  11.606 -0.1283 -0.0847 -0.2961
13755W        W30602  12.007  11.238   3.519 -0.3476  0.4540  0.0105
13756W        W30603   0.077   0.128  13.585 -0.1258  0.1197 -0.2084
13757W        W30604   8.728  16.481  14.295 -0.1385 -0.0328  0.1531
13758W        W30605   9.862  12.574   2.628 -0.1389 -0.3307  0.1043
13759W        W30606  10.998  10.898   0.892  0.1754 -0.0668 -0.0256
13760W        W30607  17.577   3.859  11.612  0.2352 -0.1273  0.0574
13761W        W30608  11.661   8.711   4.037  0.3012  0.0506 -0.0539
13762W        W30609  19.499  12.699   2.466  0.0071 -0.1173 -0.1383
13763W        W30610  17.316   3.400  11.861 -0.2229 -0.0546  0.1949
13764W        W30611  11.022   5.097   0.288  0.3010  0.0527  0.0126
13765W        W30612  14.227  14.401   9.662 -0.1440  0.2982 -0.0766
13766W        W30613  13.533   2.335   4.578  0.1950 -0.1238  0.1112
13767W        W30614   5.949  11.881   0.255  0.1543 -0.0523 -0.1140
13768W        W30615   9.548  15.490   3.632 -0.1206 -0.0590 -0.1123
13769W        W30616   5.039  16.383  10.483 -0.0190 -0.0217 -0.2460
13770W        W30617   6.176   6.302  12.890  0.1313  0.1994 -0.0802
13771W        W30618  14.583   2.114   4.146 -0.0468  0.1718 -0.1660
13772W        W30619   7.109  14.615  14.101  0.2193  0.1759  0.3024
13773W        W30620  15.361   2.642  13.599 -0.0785 -0.1356  0.1341
13774W        W30621  10.652   7.364   5.449  0.1958  0.1264 -0.0187
13775W        W30622   0.982   7.594   5.598  0.0891 -0.0422  0.0890
13776W        W30623   0.526  14.139   3.949  0.1176  0.3460 -0.1465
13777W        W30624  18.238   0.677  13.175  0.0562  0.0705 -0.0631
13778W        W30625   1.092   4.684   4.400 -0.0389  0.2178 -0.2808
13779W        W30626  19.274  13.597   1.350  0.0470  0.0434 -0.2021
13780W        W30627  19.601   4.553   2.171  0.3639 -0.3773  0.1547
13781W        W30628  14.741   8.563  11.816  0.0623  0.1489  0.2550
13782W        W30629  12.322  18.734  10.936  0.0829 -0.1226  0.1712
13783W        W30630   8.386  15.511   2.401 -0.2697  0.0713 -0.0850
13784W        W30631   0.092   5.466  10.610 -0.2641 -0.1716  0.1499
13785W        W30632  12.291   2.884  11.985 -0.0389  0.0131  0.2782
13786W        W30633  16.140  13.062  13.057 -0.0475 -0.1047  0.2386
13787W        W30634   4.344   2.183  12.566 -0.0144  0.3452  0.1180
13788W        W30635  17.524   1.925   3.085 -0.1989 -0.1542 -0.0119
13789W        W30636   5.570   6.207  13.675 -0.0982 -0.3561 -0.1809
13790W        W30637   6.519  11.163   0.185  0.0450  0.2613  0.0856
13791W        W30638  19.193   6.484   3.025 -0.1164  0.1535  0.0137
13792W        W30639   1.480  16.976   4.553 -0.1713  0.0712 -0.2904
13793W        W30640  18.242   5.445  11.815 -0.0866 -0.0009 -0.1077
13794W        W30641  16.318  17.584  11.923  0.1113  0.2609  0.3126
13795W        W30642  18.203  17.332   3.818 -0.0660 -0.0246 -0.1160
13796W        W30643   5.578  18.309  11.339 -0.1875  0.2337  0.2593
13797W        W30644   5.999   0.099   3.120 -0.0262 -0.0947  0.2627
13798W        W30645   5.203   2.454  14.057 -0.3329  0.2151 -0.0150
13799W        W30646   1.619  10.573   2.842  0.1394  0.1923 -0.2324
13800W        W30647  17.053   8.860  14.459 -0.1868  0.1439  0.1862
13801W        W30648  13.111   8.261   1.970  0.2797  0.1063 -0.1307
13802W        W30649  12.544   0.849   4.393 -0.3466  0.0237 -0.1464
13803W        W30650   5.122   2.593  13.472  0.1357  0.1246  0.0264
13804W        W30651   1.390  10.092  11.939 -0.0419 -0.1474  0.2162
13805W        W30652   0.843  16.771  13.314  0.0787  0.0325 -0.1508
13806W        W30653  14.705   3.454  13.613  0.3144  0.1174  0.0697
13807W        W30654  10.200  15.210  13.311 -0.0092  0.2296 -0.1193
13808W        W30655  15.232   2.176   1.798 -0.1520  0.2518 -0.3677
13809W        W30656   0.842  15.356  10.231 -0.2719  0.1037 -0.3377
13810W        W30657  11.442   3.800   3.734  0.2347 -0.0293 -0.1103
13811W        W30658   3.700   4.437   1.056 -0.0889  0.2260  0.3917
13812W        W30659  14.984  12.893  12.594 -0.0534  0.1266 -0.2413
13813W        W30660  11.671   0.783   3.998  0.0662  0.1570 -0.1469
13814W        W30661   2.492  13.035   2.871 -0.0322 -0.2840  0.2071
13815W        W30662   2.084  10.052   1.908  0.0629  0.2388  0.2438
13816W        W30663  10.584  19.030   4.197 -0.0487  0.0577 -0.1363
13817W        W30664  11.050   5.897   5.162  0.2460  0.0959 -0.4553
13818W        W30665   8.300  12.453   1.582 -0.1354 -0.0801 -0.4282
13819W        W30666   3.392  12.093   1.711 -0.1812 -0.0390  0.0065
13820W        W30667   9.327   4.691   3.497 -0.2350  0.1214 -0.1264
13821W        W30668   3.281   6.459  11.027 -0.2830 -0.0977 -0.0520
13822W        W30669   5.890  17.122   9.233  0.3579  0.3563 -0.1351
13823W        W30670  13.382  18.552  11.840 -0.2289 -0.1487 -0.4148
13824W        W30671  14.408  16.273   4.752  0.0349 -0.0544 -0.4439
13825W        W30672  19.483   2.950   2.911 -0.1143 -0.2547 -0.1543
13826W        W30673  13.467   2.060   3.108  0.0977 -0.0191 -0.0530
13827W        W30674  15.316  13.641   4.771  0.2170 -0.1929 -0.0617
13828W        W30675   5.475   3.191   3.701  0.1847  0.1734 -0.4008
13829W        W30676   6.112   2.828  14.346 -0.4317  0.3778  0.0305
13830W        W30677  11.979   2.488  13.604 -0.0242 -0.5627  0.2193
13831W        W30678  15.395  17.686   4.022 -0.0418  0.3756  0.0539
13832W        W30679  12.991   8.642   4.237 -0.0545  0.0923  0.0119
13833W        W30680  16.820  17.939  13.632 -0.0617 -0.0275 -0.0552
13834W        W30681   3.598  14.227   4.340 -0.0778 -0.1505  0.0706
13835W        W30682  18.367   3.107  13.056  0.3545  0.1143  0.4829
13836W        W30683  17.929   9.627   5.074 -0.1030 -0.1948 -0.0606
13837W        W30684   1.477   4.735  12.252 -0.4051  0.0330  0.5391
13838W        W30685   0.410   6.442  10.355 -0.0108 -0.1200 -0.2696
13839W        W30686   2.548  10.311   9.804  0.0379 -0.2551  0.0092
13840W        W30687  18.353   0.266  10.892  0.5154  0.2904  0.0245
13841W        W30688   1.880   0.772   0.784  0.1578  0.1886  0.0029
13842W        W30689  17.057  14.167   2.123 -0.1107 -0.1123 -0.3675
13843W        W30690  18.466   6.695   3.812 -0.2510  0.3056  0.2201
13844W        W30691   5.985  12.430  13.286  0.2978 -0.0528  0.2078
13845W        W30692   1.134   6.193  13.959 -0.1093 -0.2576 -0.2747
13846W        W30693  13.683   8.746  13.690  0.3278 -0.4245  0.1395
13847W        W30694  17.496  16.900   1.517  0.2074  0.1553 -0.0774
13848W        W30695   9.781   2.950   5.148  0.0849 -0.0739  0.0415
13849W        W30696  17.058  10.082  11.570 -0.1630 -0.4404  0.2511
13850W        W30697  16.736   2.144  10.168 -0.1789  0.0098  0.0716
13851W        W30698   5.355  15.635  10.692 -0.0114 -0.0412  0.0870
13852W        W30699  11.043  18.616  14.373  0.0605 -0.2701  0.1482
13853W        W30700   3.827   7.798   2.291 -0.1651  0.0817  0.1911
13854W        W30701  10.629   4.888   1.502 -0.0872  0.1239 -0.0517
13855W        W30702   8.618  16.936  12.536  0.0715  0.0697  0.0007
13856W        W30703  15.725   2.957  13.754 -0.0710 -0.0078 -0.0256
13857W        W30704   9.985   2.446  11.685  0.0322 -0.1048  0.1085
13858W        W30705   6.485   9.646  13.566  0.1256 -0.0536  0.5049
13859W        W30706  10.637   6.390  13.779  0.0807 -0.0669 -0.1753
13860W        W30707  13.806   6.879  12.601 -0.1665 -0.0491 -0.0477
13861W        W30708   8.977  18.731  11.348 -0.0269  0.2806  0.0169
13862W        W30709   4.198  14.531   1.446  0.2078  0.2372  0.3113
13863W        W30710   3.034   7.501  13.135 -0.4029 -0.0879 -0.2798
13864W        W30711   5.220   6.378   2.254 -0.1966 -0.3309 -0.0770
13865W        W30712  16.101   0.906  10.553  0.0810 -0.0504  0.0773
13866W        W30713   1.042   7.046   0.384 -0.1270  0.2959  0.2144
13867W        W30714   1.490  19.585   3.571  0.2016  0.0865 -0.1692
13868W        W30715  12.742  15.409  13.963 -0.0271 -0.0961  0.0888
13869W        W30716  14.237  14.335   4.482  0.3202  0.4282  0.0036
13870W        W30717  13.519   0.128  11.164 -0.1617  0.0960 -0.1595
13871W        W30718   6.179   6.707   3.106  0.0159 -0.0006 -0.0805
13872W        W30719  10.924   5.981   0.897 -0.0308  0.0511 -0.2711
13873W        W30720   2.449  12.561  11.383 -0.1026  0.1554  0.1125
13874W        W30721  12.045   3.906   4.316  0.1601 -0.2878 -0.1408
13875W        W30722   3.421   6.352   0.036 -0.1363  0.1385 -0.1353
13876W        W30723  18.237   1.936  10.453  0.0700  0.0791 -0.3241
13877W        W30724  12.673  17.986  14.365 -0.0576  0.0594  0.1584
13878W        W30725   7.700   6.284   5.780  0.0441  0.2374  0.0179
13879W        W30726   2.844  10.025  13.451 -0.1577  0.0605 -0.0873
13880W        W30727   1.983  19.544  12.196  0.0842  0.2195 -0.0184
13881W        W30728  10.872  16.100  13.624 -0.3363 -0.2662  0.0526
13882W        W30729  17.471  14.585   4.015 -0.0040 -0.1386 -0.3882
13883W        W30730   6.381  10.875   2.797 -0.2550 -0.0461 -0.0150
13884W        W30731  10.630  18.865   0.337  0.0499  0.2424 -0.1937
13885W        W30732   4.928  16.726   1.541 -0.2109  0.0538 -0.4170
13886W        W30733  19.133   7.091  11.025 -0.5624 -0.0908  0.3129
13887W        W30734  14.950  16.859  10.897 -0.0148 -0.1160 -0.1191
13888W        W30735  15.973  14.411  14.574  0.1294  0.2428 -0.1227
13889W        W30736   6.991  18.761   2.649 -0.0477  0.0767 -0.3838
13890W        W30737  16.748  10.085   2.494 -0.0957  0.1218  0.4517
13891W        W30738   3.123  15.099   1.138  0.1010 -0.0593  0.0447
13892W        W30739   6.747  12.999  14.416  0.0023 -0.1118  0.0195
13893W        W30740  11.899   6.095  12.377  0.1139 -0.0521 -0.3391
13894W        W30741  13.522   9.589   2.355  0.1201 -0.1794  0.0530
13895W        W30742  13.141  18.852  10.935 -0.3781  0.2641 -0.1117
13896W        W30743  14.919  10.104   9.906  0.2196 -0.4777 -0.0366
13897W        W30744  19.072   2.962   0.630 -0.0339 -0.2009 -0.1048
13898W        W30745   8.828  18.869  10.881  0.1389  0.2592  0.1587
13899W        W30746  17.210   4.649  12.389 -0.0904 -0.0254 -0.1039
13900W        W30747  19.042   8.150  12.521 -0.1951 -0.0712 -0.0780
13901W        W30748  14.154  16.470  10.111  0.1861 -0.1855  0.2356
13902W        W30749  16.711   7.001  10.775  0.0767  0.0866 -0.0014
13903W        W30750  13.337   7.183   3.167  0.0357  0.1488  0.3813
13904W        W30751   0.982   6.766  13.487 -0.0398 -0.1575  0.1542
13905W        W30752   0.062   8.178  11.672  0.2327 -0.0509  0.0689
13906W        W30753  18.213  12.912  10.459  0.1692  0.1414 -0.3339
13907W        W30754  19.369   3.462   3.664 -0.0842  0.2323  0.1511
13908W        W30755   5.858   6.598  10.862  0.3687  0.2083  0.2190
13909W        W30756   2.698   0.093  13.401  0.0426 -0.0700  0.0692
13910W        W30757   4.585   3.649   1.147  0.1553 -0.0717 -0.0493
13911W        W30758   7.380  13.368  11.221  0.1202 -0.1247  0.1321
13912W        W30759   3.765   0.527   4.397  0.2697  0.1650  0.0482
13913W        W30760   0.965  12.782   3.436  0.0549  0.1294  0.1024
13914W        W30761   5.006  15.941   0.110  0.0277 -0.2066 -0.0247
13915W        W30762  12.386   9.302  10.149 -0.0885  0.4579  0.0484
13916W        W30763  10.467   8.226   2.630 -0.0163 -0.2379 -0.0044
13917W        W30764   3.571   3.443   2.143 -0.0674 -0.3678  0.4479
13918W        W30765   8.358   6.244   0.299  0.0329 -0.0527 -0.0442
13919W        W30766  10.222  15.700  13.123  0.0405  0.1266 -0.3254
13920W        W30767  13.020   2.625  10.568  0.0923 -0.0842  0.0282
13921W        W30768   8.278   0.176  13.471  0.1330 -0.1276  0.1275
13922W        W30769   0.304  10.911   2.525 -0.1322  0.0476 -0.0602
13923W        W30770  15.704  16.296   1.979  0.0245  0.2432 -0.1034
13924W        W30771   3.331   2.897  10.139  0.1747  0.1568 -0.2167
13925W        W30772   0.949  12.530   4.431 -0.0354  0.1956  0.2532
13926W        W30773   0.543   0.151  11.007 -0.2914  0.0274 -0.0894
13927W        W30774  16.409  11.177  13.577 -0.1132 -0.0043 -0.2591
13928W        W30775   0.802   7.484   0.279  0.2344 -0.0060  0.0060
13929W        W30776  18.907  10.402   0.803 -0.3905  0.1972  0.0981
13930W        W30777   7.329   4.914  10.007 -0.0947  0.0643 -0.1565
13931W        W30778   6.825  19.314   2.588  0.1183  0.1435  0.2211
13932W        W30779  14.865  12.056   2.719  0.0827 -0.0685 -0.2503
13933W        W30780   4.835  13.144   0.429 -0.2180  0.0014  0.3359
13934W        W30781  12.171   6.626  11.333  0.1695 -0.2704  0.1231
13935W        W30782   1.587   9.934   4.319  0.4699  0.0891  0.0161
13936W        W30783   8.308   1.542  10.384  0.1824 -0.3433  0.1049
13937W        W30784  14.672   7.868   2.119 -0.1065 -0.2450 -0.0657
13938W        W30785   6.286   6.293  10.348  0.2967  0.4596  0.0452
13939W        W30786  11.612   7.308  11.825 -0.1873  0.1646  0.2684
13940W        W30787  18.350   7.101   2.532  0.2857  0.2883 -0.1363
13941W        W30788   9.845   5.001  11.466  0.0070  0.3351 -0.5033
13942W        W30789   1.765   1.370  13.677  0.0384  0.1305  0.2394
13943W        W30790  14.746   1.047   1.753  0.1169 -0.1715  0.1671
13944W        W30791  15.592   5.101  12.800  0.3857  0.0380 -0.2022
13945W        W30792   4.730   8.283  10.657  0.1585 -0.4210 -0.2178
13946W        W30793   9.483  14.688  14.140 -0.1926 -0.2265 -0.0981
13947W        W30794   1.705  18.251   0.829  0.1510 -0.3446 -0.1428
13948W        W30795  16.466   1.063   2.119  0.0355 -0.2531  0.1340
13949W        W30796   5.153  14.115  10.883 -0.0236 -0.2423 -0.0680
13950W        W30797  17.933   1.328   3.487  0.0094 -0.0735  0.1462
13951W        W30798   0.301  18.079  13.832 -0.2795 -0.1888 -0.0896
13952W        W30799  13.589   0.226   2.940  0.1236 -0.0022 -0.0577
13953W        W30800   4.736   8.810  14.476  0.6028 -0.5299 -0.0229
13954W        W30801   8.659  12.831  10.338 -0.1328 -0.0960  0.0879
13955W        W30802   5.375   3.993  11.731  0.3140 -0.0277 -0.2346
13956W        W30803  16.596  14.564   0.845 -0.2315 -0.0612  0.1445
13957W        W30804   3.245  16.328  13.260  0.0354  0.0919  0.1699
13958W        W30805  18.633  16.083   1.877  0.1916 -0.2221 -0.3075
13959W        W30806   2.973   2.080  11.831  0.0054  0.0323  0.0752
13960W        W30807   7.251   9.046   5.274 -0.2402  0.4263 -0.0149
13961W        W30808  17.660   6.928  14.069 -0.0546 -0.0210 -0.0686
13962W        W30809  11.229  12.226   3.265 -0.2861  0.1405  0.0154
13963W        W30810  19.123  16.092  11.262  0.1594  0.1723  0.0990
13964W        W30811   0.497   5.138  11.927  0.3748 -0.2234 -0.1412
13965W        W30812   5.595   6.443   5.148 -0.1272 -0.3946 -0.1132
13966W        W30813   3.636   6.440   1.586  0.0889 -0.3003 -0.1893
13967W        W30814  11.369  15.391   4.771  0.1400  0.2170  0.0568
13968W        W30815  17.831   3.628   4.863  0.0875 -0.2703  0.2435
13969W        W30816   2.638   1.208  11.488 -0.3996  0.4008 -0.0835
13970W        W30817  17.012   9.880   5.698 -0.0491  0.1308  0.2978
13971W        W30818  11.859   8.195   2.719 -0.2713 -0.0719  0.4014
13972W        W30819   6.552  18.375  14.222  0.1082  0.0436 -0.3370
13973W        W30820  19.516  12.247   2.210  0.0690  0.0638  0.2291
13974W        W30821   8.527   8.327   9.691  0.1153 -0.2572  0.2033
13975W        W30822  18.717   4.987  11.650 -0.1794  0.2785 -0.5537
13976W        W30823   2.690   4.651  11.546  0.1524 -0.0957  0.2613
13977W        W30824   1.528  12.762   0.965 -0.2794  0.1625  0.0102
13978W        W30825   8.205  14.670   0.284 -0.1948  0.1653  0.2859
13979W        W30826   5.152  10.935   2.090  0.5133  0.1978 -0.0305
13980W        W30827   8.318  11.886   3.597  0.2049 -0.1691 -0.1719
13981W        W30828  10.062  11.760   1.296 -0.1200  0.1530 -0.2161
13982W        W30829  10.616  17.884   1.264  0.0622  0.1698  0.1017
13983W        W30830   1.026   4.205   0.422 -0.1844  0.1526 -0.0803
13984W        W30831   7.465  13.731  13.878 -0.7368  0.0037  0.0008
13985W        W30832   2.864   5.917   3.251 -0.1591  0.1180  0.0098
13986W        W30833  10.539  16.153   0.262  0.0643  0.1205 -0.1327
13987W        W30834   0.943   5.919   4.524 -0.0275 -0.0131 -0.0987
13988W        W30835  18.895   6.053   4.779  0.1641  0.1805 -0.1464
13989W        W30836   6.920   1.337  13.575  0.3022 -0.0889 -0.3532
13990W        W30837  13.174   7.570   3.974  0.0370 -0.3872  0.0721
13991W        W30838   5.106   7.815  12.844  0.3593  0.0035 -0.1839
13992W        W30839   1.700   6.493   1.970 -0.2764 -0.0210 -0.2088
13993W        W30840  15.385  14.140   3.349 -0.0235  0.1638 -0.0987
13994W        W30841   8.566  17.719  12.607  0.0753 -0.0041  0.2003
13995W        W30842  12.655  14.245  10.632  0.0115 -0.1693  0.1866
13996W        W30843   3.407   8.329   3.099  0.0203 -0.0561  0.1487
13997W        W30844  15.660   3.596   0.235  0.0630 -0.0391  0.0077
13998W        W30845   7.819  16.836  11.094 -0.0213 -0.5576  0.0433
13999W        W30846  18.141  11.090  11.164 -0.1148 -0.0725 -0.1250
14000W        W30847  15.457   4.992  12.017 -0.0390 -0.1107  0.0948
14001W        W30848   1.816   1.714   3.414 -0.3320  0.0429 -0.5452
14002W        W30849   8.288  19.145  11.318  0.0072  0.2724 -0.1903
14003W        W30850  18.173  14.403   0.192  0.1407 -0.0009  0.1017
14004W        W30851  12.431   7.083  10.578 -0.1325 -0.0095  0.1607
14005W        W30852  17.780  15.801   2.373 -0.1464  0.0167 -0.0496
14006W        W30853   7.561   8.773   0.662 -0.0559 -0.1305  0.0112
14007W        W30854   5.654   4.830   4.468  0.2060  0.1386  0.0462
14008W        W30855   8.031   8.940  10.866  0.4087 -0.1180 -0.1337
14009W        W30856  12.906  13.443  11.407 -0.1467 -0.0308  0.0502
14010W        W30857   8.517  18.684  13.035 -0.2788 -0.0726  0.2730
14011W        W30858  19.101  10.464   3.518 -0.1187  0.2155 -0.1959
14012W        W30859  14.953  11.313   3.177  0.2119  0.3936  0.0191
14013W        W30860  17.829   6.822   4.397 -0.0607  0.1526 -0.0688
14014W        W30861  18.001  10.151   0.478  0.0459 -0.0522 -0.0085
14015W        W30862  12.645   1.916  11.053  0.0852  0.0320 -0.4331
14016W        W30863   2.020  11.159  14.266  0.0932 -0.0232 -0.0657
14017W        W30864  18.997  12.168  13.440  0.0330 -0.2258  0.0342
14018W        W30865   0.457  18.123   3.753 -0.0015  0.0552  0.1596
14019W        W30866   7.907   3.821  13.733  0.3518  0.2960 -0.2068
14020W        W30867  18.540   8.929   1.294  0.0710  0.2708  0.4626
14021W        W30868  19.335  15.808  12.894  0.1614  0.1307 -0.0514
14022W        W30869   6.312  11.946  12.993 -0.2387 -0.3057  0.0497
14023W        W30870   1.567  18.706  10.205  0.3662  0.2151  0.1405
14024W        W30871  15.247   0.261  11.868 -0.0240 -0.0782 -0.3019
14025W        W30872  14.625  16.745  14.122  0.2010 -0.1505  0.0104
14026W        W30873   3.323  18.415  12.579 -0.0600  0.2567 -0.0265
14027W        W30874  19.451   7.716   1.929  0.0472 -0.0124  0.2051
14028W        W30875  14.390  13.617   5.283 -0.0746 -0.1228 -0.0156
14029W        W30876   0.235  14.048   3.545  0.0461 -0.1150 -0.1450
14030W        W30877   0.835   9.031  10.767 -0.2538  0.0968 -0.3532
14031W        W30878  13.548   4.266   0.348  0.3996 -0.2847  0.2065
14032W        W30879   3.047   7.292  14.015  0.1378  0.0470  0.1334
14033W        W30880  15.877  14.123   4.756  0.1479 -0.1612  0.1117
14034W        W30881  18.990   2.677   4.089 -0.3619 -0.4421  0.3967
14035W        W30882   3.443   0.859   2.999 -0.0265  0.0963  0.2001
14036W        W30883  11.600  18.944   4.088 -0.2229 -0.0353  0.1076
14037W        W30884   4.934   6.857  14.259  0.2590  0.2368 -0.4240
14038W        W30885   1.544  14.361  10.946  0.1915  0.1059  0.2113
14039W        W30886  11.093  13.508   2.165  0.3570  0.3364 -0.1251
14040W        W30887  16.680  17.098   0.142 -0.1534 -0.3305 -0.0723
14041W        W30888   4.531  10.097   1.668 -0.3193  0.2074  0.3233
14042W        W30889  10.565   3.268  10.358  0.3558 -0.0037  0.0108
14043W        W30890  14.039   4.159   0.452 -0.0290 -0.0876  0.2234
14044W        W30891   8.212  16.941  12.111  0.0822 -0.1062  0.2002
14045W        W30892  11.519  12.432  10.605  0.0797 -0.0928 -0.2656
14046W        W30893  19.330   7.711   4.953 -0.1095 -0.0471 -0.0510
14047W        W30894  10.237   7.495  10.843 -0.1242 -0.3749  0.3127
14048W        W30895  12.188  10.665   0.122  0.3377  0.0435 -0.1678
14049W        W30896  17.212   5.860   0.519 -0.0662  0.3034 -0.2722
14050W        W30897  10.117  10.317   0.095  0.1927 -0.2020 -0.0074
14051W        W30898   3.155  16.960  11.950  0.1664 -0.3587 -0.0677
14052W        W30899   8.439  11.559   1.802  0.3504  0.2097 -0.1268
14053W        W30900   0.845   3.704  13.254 -0.1237 -0.2005  0.1930
14054W        W30901  18.537   0.408  13.462  0.0401  0.1758 -0.0549
14055W        W30902   7.391  17.910  14.040 -0.2084 -0.0199  0.5166
14056W        W30903  11.182   8.039   1.898  0.2583  0.0060  0.2924
14057W        W30904  13.608  16.654   3.793 -0.0936 -0.1718 -0.2962
14058W        W30905  17.363  18.929  12.281  0.0541  0.1170 -0.0072
14059W        W30906   9.862   8.253   3.946 -0.0499 -0.0390  0.1889
14060W        W30907  12.820   9.081  12.873 -0.0848  0.0231  0.1159
14061W        W30908   0.967  15.698  12.141  0.2204  0.0844 -0.4040
14062W        W30909   0.643   4.727   2.522  0.0480  0.0003 -0.2007
14063W        W30910  18.566   0.379   2.838  0.0560  0.3043 -0.2869
14064W        W30911  11.768   7.434  13.088  0.1915  0.0728  0.2064
14065W        W30912   3.593  10.501  13.663  0.3509 -0.0094 -0.1806
14066W        W30913  13.317  18.504  13.998 -0.0528  0.1102  0.1393
14067W        W30914   8.055   8.568   2.647  0.0356 -0.0066  0.0719
14068W        W30915   9.719   3.110   0.418 -0.0005 -0.0981 -0.0823
14069W        W30916   8.280  13.115  12.884  0.0396  0.1040 -0.0201
14070W        W30917  10.701  19.402   2.430 -0.0308 -0.1948 -0.2049
14071W        W30918  12.964   8.048   4.810 -0.2312 -0.2320  0.2394
14072W        W30919   5.233  10.585  12.968 -0.0707  0.2277 -0.5110
14073W        W30920  19.488   7.382  11.199  0.0335  0.2083  0.3278
14074W        W30921   4.014  13.567  13.643  0.1783 -0.0589  0.2552
14075W        W30922  18.436   7.077   1.972 -0.0312  0.0850  0.0329
14076W        W30923  14.411   0.286   2.554 -0.1271  0.0624 -0.1424
14077W        W30924  15.707   8.192  13.072  0.0111 -0.0554  0.2182
14078W        W30925  15.069   5.507   4.896 -0.0438 -0.3241 -0.1296
14079W        W30926   4.975   3.250   2.993 -0.2734 -0.1010  0.1193
14080W        W30927  10.475  10.654  12.835  0.3503 -0.0252  0.0799
14081W        W30928   6.481  10.181   4.354  0.2461  0.0373  0.0557
14082W        W30929   7.998  18.233  11.459 -0.1058  0.0458 -0.0769
14083W        W30930   8.238   3.871  13.337  0.1461  0.4296  0.1213
14084W        W30931  16.621   8.916  11.935 -0.2613 -0.0178 -0.0033
14085W        W30932  11.577  14.983  10.108 -0.2258 -0.0772 -0.1772
14086W        W30933   6.791  11.239  10.840 -0.1299  0.0940  0.1667
14087W        W30934  10.179   2.295  12.662  0.1228  0.0114  0.0432
14088W        W30935  16.912  14.194   0.699 -0.2594 -0.1222  0.4041
14089W        W30936   7.577   5.036   3.558  0.1935  0.0078 -0.0161
14090W        W30937  13.291  11.527  14.263 -0.0106 -0.3669 -0.1625
14091W        W30938   4.109  14.656  11.271 -0.2559  0.0966  0.1642
14092W        W30939   3.500  12.147   3.302  0.0540 -0.1084  0.0222
14093W        W30940   7.183   4.114   1.408  0.0114  0.1355 -0.2966
14094W        W30941   3.733   2.485  11.822  0.0461  0.0508  0.0107
14095W        W30942   1.227  15.106   3.449 -0.1450 -0.0169 -0.0499
14096W        W30943  13.640   1.377  12.831  0.1325 -0.1486 -0.2297
14097W        W30944   4.069  18.387   2.150 -0.2277  0.0561 -0.1563
14098W        W30945  13.950  15.133   4.496  0.1367  0.2565  0.0342
14099W        W30946   0.412  10.259  11.756  0.0420 -0.0693 -0.0325
14100W        W30947  18.808  13.097   2.272 -0.2419 -0.0596 -0.3170
14101W        W30948   0.774   6.544  11.938  0.1364 -0.0070  0.1176
14102W        W30949  15.197  12.430   9.957  0.0006 -0.0427  0.3175
14103W        W30950  12.190   2.795  10.138 -0.2373 -0.1580  0.1623
14104W        W30951  11.895  13.855   1.189 -0.0344  0.2866 -0.3271
14105W        W30952  17.725   5.669   2.487  0.2844 -0.0458  0.2093
14106W        W30953   4.556  11.792  12.643  0.0495 -0.0718 -0.2244
14107W        W30954  11.848   3.124  11.665 -0.0157 -0.1203 -0.0702
14108W        W30955  18.945   5.874  12.376  0.2980  0.2057  0.2219
14109W        W30956   6.444   8.897  11.169 -0.1404 -0.0694 -0.4481
14110W        W30957   3.679  15.885   1.305  0.0018  0.5029  0.0227
14111W        W30958  12.645  18.323  13.561 -0.0843  0.0591 -0.3920
14112W        W30959  17.445   9.554   0.193 -0.2050 -0.4306 -0.4763
14113W        W30960  12.457   4.033   2.856  0.0626 -0.4485  0.0866
14114W        W30961  19.073   7.735  13.808 -0.0747 -0.2443  0.3551
14115W        W30962  16.534   3.151  13.508 -0.1497  0.1348  0.1384
14116W        W30963  14.638  13.635   1.695 -0.0636 -0.1812  0.0206
14117W        W30964  17.553  19.410  10.447  0.1407  0.1611  0.0540
14118W        W30965  11.699   7.788   4.261 -0.0804  0.3005  0.0753
14119W        W30966   2.831  19.415   0.657 -0.2130  0.0813 -0.1192
14120W        W30967   9.139   4.685  11.929 -0.3540 -0.0433 -0.1564
14121W        W30968   9.260   6.024  11.264 -0.0112 -0.1087 -0.3098
14122W        W30969  12.665  13.884   0.368 -0.0559 -0.2566 -0.2881
14123W        W30970   4.192   0.653  12.363 -0.1557  0.2078 -0.0213
14124W        W30971  14.397  15.543   8.568 -0.0420 -0.0703  0.1236
14125W        W30972  16.429   3.439   2.213 -0.1746  0.1658 -0.1116
14126W        W30973   1.258   6.639  12.152 -0.1448 -0.1519 -0.0103
14127W        W30974   2.911   2.732   1.947 -0.1027 -0.1739 -0.6632
14128W        W30975  13.052  18.832  11.516 -0.1877 -0.1902  0.2180
14129W        W30976  11.412  12.965   4.436  0.0915 -0.2405 -0.0238
14130W        W30977   6.585  11.156  13.140 -0.3283 -0.1232 -0.0608
14131W        W30978   1.798  14.731   1.057 -0.1027 -0.3908  0.2872
14132W        W30979   5.957  17.514   1.925  0.0345  0.0209  0.2363
14133W        W30980   0.126   9.561  13.514 -0.0096 -0.1447 -0.3244
14134W        W30981   7.335   3.230   2.804  0.6154  0.2072  0.0170
14135W        W30982  15.066   8.474  12.356 -0.3109  0.0997  0.2510
14136W        W30983   5.477  13.384  11.667  0.1502  0.1468  0.4052
14137W        W30984   5.398   0.506   2.516  0.0051  0.1950  0.0141
14138W        W30985  13.789   5.709  14.048 -0.1583  0.0851 -0.2784
14139W        W30986   8.042   0.429   1.176  0.1529 -0.0881 -0.0710
14140W        W30987   5.551   9.197  12.770  0.0243 -0.0040  0.0137
14141W        W30988  11.547  10.265  13.951 -0.0478  0.2177  0.2869
14142W        W30989   5.103   2.324  11.407  0.0847  0.0076 -0.1058
14143W        W30990  11.090  13.639   1.136  0.4870  0.3851  0.1647
14144W        W30991  13.533   1.715   0.000 -0.1095  0.0586 -0.1541
14145W        W30992  10.397  10.580  13.336 -0.3226  0.0086  0.0476
14146W        W30993  11.030   6.768   3.484 -0.1149 -0.0190  0.1399
14147W        W30994  17.976  16.602  12.169 -0.0635  0.3698 -0.0243
14148W        W30995   2.315   6.721   0.713 -0.1211 -0.0222 -0.1351
14149W        W30996   4.922  15.407   0.229 -0.1499  0.1488 -0.0035
14150W        W30997   0.063  10.527  13.315 -0.0333 -0.5040 -0.2232
14151W        W30998   7.260   2.761   2.927  0.2096 -0.0422  0.0545
14152W        W30999   3.247   9.671   4.364  0.1614 -0.3048  0.0876
14153W        W31000   3.353  15.991  10.564  0.2512  0.2259 -0.1235
14154W        W31001   1.181   4.339   1.410  0.2525 -0.1704 -0.0249
14155W        W31002   4.632  19.057  12.600 -0.1626  0.2183 -0.1343
14156W        W31003  19.452   1.355   1.155  0.3378 -0.1482  0.2993
14157W        W31004   2.396  12.076   2.131 -0.0422 -0.1949 -0.2325
14158W        W31005  10.788   6.674  13.299  0.1083 -0.1679  0.0238
14159W        W31006  16.497   5.239  10.888  0.1524  0.2736 -0.2228
14160W        W31007   3.014   6.737  11.364 -0.0262 -0.2045 -0.1874
14161W        W31008   2.271   8.822  12.808  0.0543  0.0223 -0.5069
14162W        W31009  17.914   3.409  13.215 -0.1033 -0.0109 -0.2437
14163W        W31010  16.600   9.856   0.274 -0.0947  0.2141  0.2790
14164W        W31011  16.994  12.633   3.177  0.0991  0.0196 -0.0323
14165W        W31012   2.763  11.417   4.996 -0.2908 -0.0745 -0.1269
14166W        W31013  17.908   2.258  10.670  0.1283  0.0154  0.0691
14167W        W31014  17.196   8.323  11.318 -0.3092 -0.1225  0.2224
14168W        W31015   7.037  10.376  14.302  0.2886 -0.0587 -0.1056
14169W        W31016  19.136   3.991   2.961 -0.0081 -0.1864 -0.3415
14170W        W31017   0.986   0.521  12.928 -0.0155  0.1270 -0.2669
14171W        W31018   9.087   7.857   0.642  0.1378 -0.0722  0.0976
14172W        W31019  18.356   4.931   5.422  0.1809 -0.0698  0.1444
14173W        W31020  13.277  18.324  10.953  0.0746  0.1472 -0.1692
14174W        W31021   7.086   8.468  10.903  0.0830  0.2446 -0.0528
14175W        W31022   5.983  16.267  10.738 -0.2701 -0.0000 -0.0552
14176W        W31023   6.872   8.267   5.362  0.0447  0.0038  0.1272
14177W        W31024   4.714  14.946   3.883 -0.1776  0.0572  0.0503
14178W        W31025  18.946   2.036  12.815  0.3289  0.2285 -0.1582
14179W        W31026  11.212   1.854   3.239  0.1546  0.1961 -0.2383
14180W        W31027   8.761  10.172  13.465 -0.4707  0.0874 -0.3095
14181W        W31028   7.204  12.780  12.395  0.0608 -0.0217 -0.2481
14182W        W31029   8.000  19.250   1.434  0.0143  0.1668 -0.3125
14183W        W31030  17.976   5.790  11.552  0.0358 -0.1045 -0.1393
14184W        W31031  11.545   6.541   1.393 -0.3519  0.1525  0.1125
14185W        W31032  16.106  10.325   5.164  0.2105  0.2864  0.1413
14186W        W31033  12.436   1.333  12.080  0.0897 -0.3943 -0.2432
14187W        W31034  12.703  19.228   1.544  0.0223 -0.2515 -0.1599
14188W        W31035  11.616  18.986  11.650  0.3741  0.0521 -0.0311
14189W        W31036   3.032   7.922  11.131  0.0513  0.2316 -0.3875
14190W        W31037   4.147   0.945  10.777  0.0349 -0.0808 -0.4029
14191W        W31038   8.773  12.211   0.233  0.0139  0.3052 -0.0225
14192W        W31039   4.053   4.047   1.027 -0.1807  0.0791  0.1952
14193W        W31040  12.109   1.552  12.465 -0.0271  0.0840 -0.2228
14194W        W31041   0.075   3.733   3.318  0.2613 -0.0041  0.0739
14195W        W31042  15.103   2.951   2.099 -0.1872 -0.0548  0.1163
14196W        W31043   8.690  15.050   4.408  0.1356 -0.1341 -0.1075
14197W        W31044   7.299  15.920  14.379 -0.0315 -0.2074  0.1182
14198W        W31045  11.028  17.560   2.967  0.1515 -0.0891  0.1540
14199W        W31046   2.676  11.198  13.339 -0.1313  0.2102  0.0061
14200W        W31047  15.809   0.717  11.812 -0.1090 -0.1833  0.1367
14201W        W31048   6.722  11.856  10.952  0.2217 -0.0893  0.2779
14202W        W31049   5.611   9.134   4.574 -0.0354  0.0266 -0.1138
14203W        W31050   1.655  14.915   2.993 -0.0272  0.1170  0.0467
14204W        W31051   9.240  17.274   0.790 -0.2581 -0.1009  0.5500
14205W        W31052  15.768  18.572   3.431 -0.0225  0.2659  0.2976
14206W        W31053  15.013   4.353   2.897 -0.3489 -0.0912 -0.1642
14207W        W31054   9.392  13.179   2.420 -0.0087 -0.0509  0.1071
14208W        W31055  11.820   2.248   1.235  0.2511  0.0451  0.1406
14209W        W31056  13.098   8.572   1.568 -0.0755 -0.0440 -0.2502
14210W        W31057   6.515   1.001  13.462 -0.1940  0.2270 -0.1967
14211W        W31058   6.635  14.220   3.205 -0.1067  0.1871 -0.3890
14212W        W31059  10.212  11.473  13.750  0.1501 -0.0661  0.1416
14213W        W31060   1.977   8.179   0.221  0.1907  0.1839 -0.1866
14214W        W31061   3.685   9.214  11.075  0.2261  0.0536  0.0451
14215W        W31062   6.763   8.186   1.175  0.1992 -0.1550  0.2530
14216W        W31063  14.714  14.627   9.622 -0.0769 -0.3981  0.4496
14217W        W31064  12.698   9.583  10.445  0.4131  0.3614 -0.1849
14218W        W31065  16.939   7.377  14.333 -0.0480  0.1173  0.0391
14219W        W31066  19.522   8.563  11.295  0.2069  0.0833 -0.0535
14220W        W31067  19.377  11.201   0.997  0.0040  0.0502 -0.1060
14221W        W31068   4.580   9.084  10.939  0.1760  0.1818 -0.0277
14222W        W31069  13.122  10.823  13.138  0.2300 -0.1856 -0.0373
14223W        W31070  17.690  11.346  13.620  0.2521  0.0697  0.1117
14224W        W31071   0.788   9.549  12.371 -0.1078  0.1940 -0.2608
14225W        W31072   1.423   0.814   0.647 -0.3097  0.1777  0.3391
14226W        W31073  16.173  16.134   1.593 -0.2638 -0.1238  0.1259
14227W        W31074   8.174   3.595   3.572 -0.0275 -0.1262  0.1127
14228W        W31075   0.896  18.894  10.238  0.2614 -0.2492 -0.1163
14229W        W31076   1.112   3.906  10.760 -0.1561  0.0946 -0.0854
14230W        W31077   8.245   5.087  10.807  0.0697 -0.2906  0.1199
14231W        W31078   7.882  18.344   0.511  0.0039  0.1379  0.3641
14232W        W31079  19.107  13.392   5.111  0.1417  0.1314  0.3335
14233W        W31080  19.083   4.152   1.408  0.0967 -0.3832 -0.2259
14234W        W31081   7.274  13.126  14.581 -0.2182  0.0192  0.0881
14235W        W31082   3.453   0.829  13.207 -0.0926  0.1548 -0.0364
14236W        W31083   9.935  10.680   4.622 -0.0200  0.0496  0.1183
14237W        W31084   2.778  16.430  12.884 -0.2365  0.1943 -0.5274
14238W        W31085   9.018  11.208  11.234  0.1752  0.0393 -0.1462
14239W        W31086   9.636   6.632   3.644  0.1938  0.1541 -0.0968
14240W        W31087   2.695   7.296  12.323  0.3357  0.3240 -0.1093
14241W        W31088  17.271   1.431   2.771  0.1052 -0.0601 -0.1290
14242W        W31089   5.487   5.896  13.287  0.0902  0.0568  0.1645
14243W        W31090  15.199   3.326  11.017 -0.1883  0.0841  0.1275
14244W        W31091  13.813  15.016   2.897  0.0685  0.0370 -0.0590
14245W        W31092  11.257   7.743   2.385 -0.3132 -0.0218 -0.0174
14246W        W31093  13.680   0.318  10.641 -0.1634 -0.3646  0.1288
14247W        W31094  15.056  19.446  12.683  0.0459 -0.2884  0.1446
14248W        W31095   9.721   7.682   5.858  0.0320 -0.0037  0.1110
14249W        W31096  18.198  14.477   1.625 -0.3774  0.2076 -0.0316
14250W        W31097  16.546  12.985  11.160  0.0058  0.0534 -0.2560
14251W        W31098   2.450   4.349   1.584  0.2411  0.3274 -0.1411
14252W        W31099  19.087  11.766   4.621 -0.0298 -0.0866  0.1955
14253W        W31100  13.271  13.379   0.136 -0.0306 -0.2969 -0.0722
14254W        W31101  18.076   4.459  10.167 -0.2819  0.1843 -0.0143
14255W        W31102  12.657  11.898  11.402  0.5086  0.1544 -0.1861
14256W        W31103  13.488  12.999  11.269 -0.2012 -0.1952 -0.4000
14257W        W31104   6.767  19.581  13.974 -0.0859 -0.0515 -0.3207
14258W        W31105  15.239   3.962   0.097 -0.0781  0.2400 -0.0297
14259W        W31106   1.396  14.665   0.629 -0.1449  0.2381  0.0621
14260W        W31107   6.432   3.312  12.318  0.2074  0.0540 -0.2323
14261W        W31108   0.766   9.029  11.371  0.3523  0.1316 -0.2141
14262W        W31109   2.551   3.340   3.288  0.0822  0.2828  0.5186
14263W        W31110   8.625   5.348  11.495  0.1009  0.1911  0.0174
14264W        W31111   0.654  14.077   1.062  0.5375 -0.0017 -0.2838
14265W        W31112   5.447  11.534  11.671  0.0338 -0.0715 -0.1096
14266W        W31113   9.448  13.495  11.119  0.1768 -0.1280  0.5621
14267W        W31114   7.472   6.233  11.284  0.0316  0.0452 -0.2833
14268W        W31115  10.371  18.798   2.942  0.0760 -0.2035  0.2642
14269W        W31116  13.571   1.134  11.621  0.5091 -0.3681 -0.2069
14270W        W31117  16.207   1.405  10.735  0.0308  0.0556  0.0469
14271W        W31118   4.200  10.452   2.797  0.0103 -0.2490 -0.2071
14272W        W31119  14.820  14.750  10.103  0.1037 -0.4647  0.1419
14273W        W31120   7.906   0.602   0.666  0.2357  0.0698  0.0121
14274W        W31121  13.016   7.339  12.263  0.1189  0.1019  0.1195
14275W        W31122   1.038   3.215   4.119  0.3270  0.0946  0.2971
14276W        W31123  13.081   4.426  12.700  0.0573  0.1774 -0.0321
14277W        W31124   5.873   0.998  12.646 -0.0666 -0.0320 -0.1387
14278W        W31125   0.288  11.396  11.643 -0.2183  0.1430  0.1694
14279W        W31126   2.514  17.469   0.020  0.1552  0.0968  0.0741
14280W        W31127   2.954  13.384   0.332  0.0677  0.1265 -0.0610
14281W        W31128   4.615   5.819  14.106 -0.1538  0.0595  0.4345
14282W        W31129   2.533  11.166  10.441  0.3006  0.1866  0.3794
14283W        W31130  11.267   2.561   2.707  0.1723  0.1979  0.1217
14284W        W31131   6.908  18.108   3.460 -0.0432  0.1807  0.1341
14285W        W31132   4.889   4.986  13.374 -0.2948 -0.0969  0.1722
14286W        W31133  14.812   5.159   0.744  0.1108 -0.0362  0.0748
14287W        W31134  12.791  12.649  13.067 -0.1787 -0.0531  0.0883
14288W        W31135  16.793   1.015   3.839  0.1253 -0.2626 -0.0163
14289W        W31136   5.629  18.285   4.984 -0.1711 -0.2703  0.3279
14290W        W31137  10.654   6.024   9.419  0.0890  0.2607  0.4397
14291W        W31138   3.296  18.958   3.838 -0.1027 -0.1701 -0.1047
14292W        W31139   5.246  13.846   1.037 -0.0993  0.1330 -0.0058
14293W        W31140  14.359   1.136   2.150 -0.0495  0.1040  0.0819
14294W        W31141  13.823   1.997  10.368  0.6633  0.1490 -0.0779
14295W        W31142  16.967  14.750   4.218 -0.0119  0.2016  0.2353
14296W        W31143  11.390  13.324  12.323 -0.0945 -0.0978 -0.0553
14297W        W31144  17.224   5.474  12.301 -0.1004 -0.0063 -0.3077
14298W        W31145  10.574  15.151  10.332  0.1269  0.2182  0.1096
14299W        W31146  16.256   8.832  12.848  0.4499  0.1887 -0.1042
14300W        W31147  12.995   1.694   0.944 -0.2674 -0.0186 -0.0015
14301W        W31148  13.869  17.894  11.033 -0.0383  0.0612  0.0535
14302W        W31149  11.745  15.014   3.074  0.0935 -0.1887  0.1384
14303W        W31150  18.416  18.713   0.615  0.3519 -0.0991  0.0394
14304W        W31151  12.980  10.717  11.517  0.1424  0.2062  0.2580
14305W        W31152   4.594   9.907  13.440 -0.0365 -0.2125  0.1398
14306W        W31153   2.918  15.588  13.146 -0.2357  0.3105 -0.0548
14307W        W31154   7.509  17.454   4.900  0.4336  0.2812 -0.1237
14308W        W31155   4.769  13.909   1.054  0.1475 -0.0650  0.2377
14309W        W31156   9.440   7.030  11.601  0.0651 -0.0366  0.0212
14310W        W31157   6.465   1.906  10.966 -0.2088  0.1705 -0.2907
14311W        W31158   2.682   7.653  11.507  0.0599 -0.1522  0.0295
14312W        W31159  10.124  15.123  14.474 -0.0641 -0.4388 -0.2227
14313W        W31160   9.099   3.401  13.654 -0.2320 -0.0565 -0.1433
14314W        W31161   6.223  10.098   2.683  0.2570  0.0103  0.1817
14315W        W31162  12.480  11.679   4.167  0.1583  0.1047 -0.2370
14316W        W31163  19.345  10.922  13.073 -0.3394  0.0142  0.2001
14317W        W31164   3.677  13.125   5.332  0.2651 -0.1392 -0.1302
14318W        W31165  11.193  11.158  13.933 -0.1223 -0.1493 -0.2242
14319W        W31166  15.486  14.367   1.827 -0.2915  0.1125 -0.0292
14320W        W31167   0.022  16.543  13.969  0.5508 -0.1680 -0.0026
14321W        W31168  10.153   8.442  11.915  0.0595 -0.0026 -0.1054
14322W        W31169   0.609  11.450  13.925  0.3975 -0.1791 -0.0173
14323W        W31170  11.392   9.525   5.194  0.0839  0.3565  0.0461
14324W        W31171   3.936  13.101  12.733 -0.0067 -0.0252  0.0649
14325W        W31172   2.419   2.356   0.855  0.0637 -0.0605  0.1364
14326W        W31173  14.356  14.404   3.930 -0.0034 -0.1110 -0.2103
14327W        W31174  13.289   6.535  11.651  0.0220  0.0045 -0.3280
14328W        W31175   8.694  11.249  11.751  0.0227  0.0302 -0.2263
14329W        W31176   2.944   2.624   4.704 -0.3061  0.2802  0.0635
14330W        W31177  19.504   7.086   2.159 -0.0691  0.2268  0.0079
14331W        W31178  17.182  17.130   0.339  0.1938  0.2653  0.0670
14332W        W31179   0.270  19.597   3.029  0.1153  0.0519 -0.4819
14333W        W31180   8.979  17.994  12.528  0.0871  0.1449 -0.0331
14334W        W31181   3.805  19.561   0.360 -0.2690 -0.0171 -0.0272
14335W        W31182  15.431  18.406  12.708  0.0533  0.1768  0.0423
14336W        W31183   5.534  13.063   1.006 -0.0941 -0.0433 -0.1094
14337W        W31184  10.029   6.489   2.779  0.1747  0.2437  0.1834
14338W        W31185   4.285  15.227  11.012 -0.1834  0.1794  0.0825
14339W        W31186   0.371  16.795   0.026 -0.0199  0.3658  0.0894
14340W        W31187  15.434   3.905   0.622  0.1407 -0.3515 -0.3320
14341W        W31188   0.370   3.577  12.990 -0.2625 -0.2316 -0.0821
14342W        W31189  15.221   2.257  11.194  0.1603  0.0090 -0.0614
14343W        W31190  10.047   2.331   1.890 -0.2091 -0.0454  0.0189
14344W        W31191  11.304   1.295   3.235 -0.0154 -0.1535 -0.0554
14345W        W31192  15.084   4.847  14.429  0.1128 -0.0678  0.2434
14346W        W31193  11.960   7.808  12.687  0.1069 -0.0065  0.2665
14347W        W31194   9.483   2.601   3.392  0.0292 -0.1870 -0.1094
14348W        W31195  18.822  18.641   2.398 -0.0505 -0.1770  0.3269
14349W        W31196  10.481  15.091   3.817 -0.0718 -0.0357  0.0414
14350W        W31197  15.565  14.907   1.065 -0.0344 -0.2804  0.1316
14351W        W31198   2.771   9.125   3.797  0.0165 -0.0630 -0.0141
14352W        W31199  18.615  10.749  14.584 -0.0579  0.3826  0.0292
14353W        W31200  15.180  11.803   2.473  0.1223  0.0038  0.2712
14354W        W31201   1.148   2.972   3.532 -0.0075  0.0343 -0.1175
14355W        W31202  16.235   6.383  10.358  0.0940  0.1686  0.0887
14356W        W31203   2.672  16.111   3.797  0.1959 -0.0612 -0.0155
14357W        W31204   8.577   1.321   0.657 -0.0657  0.0364 -0.0961
14358W        W31205  12.008  13.253   3.275  0.2166  0.0849  0.1602
14359W        W31206  16.851  14.223  11.195  0.1382  0.3737 -0.0780
14360W        W31207  10.904   9.075  10.785  0.0016  0.0391 -0.1700
14361W        W31208  17.039  11.123  11.080  0.1737 -0.4975  0.2629
14362W        W31209   5.396  10.452  11.685  0.0529  0.0562 -0.2165
14363W        W31210   0.727  12.646  12.062 -0.1604  0.1145 -0.0511
14364W        W31211  16.498   0.835   5.704  0.2994  0.2389  0.0746
14365W        W31212  14.051   1.461   1.655 -0.0233 -0.1182  0.0908
14366W        W31213  15.339   1.781  11.096  0.3625  0.3961 -0.2619
14367W        W31214  11.763   1.619  14.203 -0.2781 -0.0459  0.3502
14368W        W31215   2.554   6.791   4.508 -0.3889 -0.2714 -0.3605
14369W        W31216   2.561   3.832  12.020 -0.0196 -0.1193  0.1494
14370W        W31217   2.072  18.050   2.081  0.0059  0.2264 -0.3089
14371W        W31218  17.220   9.433   4.131 -0.3586  0.2974 -0.1510
14372W        W31219   4.550   4.737   1.225  0.0174  0.1586  0.0451
14373W        W31220   9.012  17.849   3.830  0.0570  0.0367 -0.3985
14374W        W31221  11.078  11.516  12.963 -0.0723  0.0125 -0.1835
14375W        W31222   7.766  14.010  10.034 -0.3224 -0.1257  0.1204
14376W        W31223   9.410  15.938  13.488 -0.0157  0.0763  0.3492
14377W        W31224   2.652   1.276   1.843 -0.0239  0.0922  0.4258
14378W        W31225   9.885   5.802   1.968 -0.0418  0.1996  0.3520
14379W        W31226  11.478   4.814   2.841  0.4810  0.0546 -0.0191
14380W        W31227   7.326   3.893  11.003  0.1469  0.2178 -0.1828
14381W        W31228  12.423  14.807   0.846 -0.0421 -0.1155 -0.1403
14382W        W31229  16.759  17.956  12.052  0.0552 -0.1008 -0.0383
14383W        W31230   2.468  12.954   3.367  0.1731  0.1047 -0.0931
14384W        W31231  11.791   1.103  14.063  0.0416 -0.1285  0.1316
14385W        W31232   7.304   1.169  12.798  0.0782 -0.1857  0.1046
14386W        W31233  12.154  18.472   0.938  0.3082  0.2135 -0.1081
14387W        W31234  14.492  14.737  11.495  0.0922  0.0072 -0.3389
14388W        W31235   8.005   0.676   1.613 -0.2816  0.0882  0.0444
14389W        W31236   2.243   5.632   2.016 -0.5309  0.0321  0.0071
14390W        W31237   9.798  12.531   5.049 -0.0375  0.2656 -0.0263
14391W        W31238  13.055   1.445   2.598  0.3679 -0.1083  0.1971
14392W        W31239   3.669  14.509  13.205  0.2388  0.1070  0.0878
14393W        W31240   2.132  19.122   2.493  0.0893 -0.0272 -0.0668
14394W        W31241  12.552   7.940   5.014 -0.2175 -0.0488 -0.4165
14395W        W31242   8.785  10.203   0.300  0.0756  0.4580 -0.2368
14396W        W31243  14.077   0.505  10.924  0.2392  0.0017  0.1311
14397W        W31244   5.892  15.986   4.231 -0.0903  0.2021 -0.0928
14398W        W31245  11.920  10.239   4.764 -0.1109 -0.1457  0.2938
14399W        W31246  16.867   0.218  14.162  0.1932  0.2148 -0.1226
14400W        W31247  17.735   6.198   3.821 -0.5089 -0.1064 -0.2561
14401W        W31248  10.982   4.548   1.341 -0.0622  0.0504 -0.1210
14402W        W31249   5.145   6.670   3.038  0.2688 -0.0951  0.3869
14403W        W31250   2.835   1.576  12.976 -0.0236  0.4592 -0.0811
14404W        W31251  14.662  11.868   0.890 -0.0808 -0.1056  0.0920
14405W        W31252   2.697   8.347   0.919  0.0748  0.0632 -0.3634
14406W        W31253   4.625  14.620   3.385 -0.0196 -0.3765 -0.1430
14407W        W31254  19.593  14.122  12.244 -0.1464 -0.0019  0.1343
14408W        W31255  10.412  12.450  11.003 -0.0030 -0.0769 -0.1593
14409W        W31256   9.750   7.549   1.176 -0.5707 -0.0878  0.3146
14410W        W31257  11.278   1.575  11.519 -0.2811 -0.2149 -0.1805
14411W        W31258  10.723   8.139  11.993 -0.0070  0.1955 -0.0292
14412W        W31259   5.994  17.124   3.878  0.4671 -0.2401 -0.3324
14413W        W31260   8.032  10.134   4.201  0.0414 -0.3027 -0.3504
14414W        W31261  13.788  12.705   2.857  0.0774  0.1378 -0.0162
14415W        W31262  17.926   9.293   1.827  0.3098  0.0524 -0.0743
14416W        W31263  15.364   9.981   1.104  0.1845  0.1305  0.2375
14417W        W31264   5.515  15.369  13.092 -0.2755 -0.1421 -0.0191
14418W        W31265  17.588   7.465   2.379 -0.1234 -0.2212  0.1950
14419W        W31266  17.050   6.876  13.433  0.1642 -0.1584 -0.1055
14420W        W31267   2.161   5.232  13.759  0.0346 -0.0990  0.0032
14421W        W31268  13.323  11.731  13.227  0.1255 -0.3135  0.0137
14422W        W31269  13.801  11.810   3.910  0.1673  0.0033 -0.0306
14423W        W31270   6.276   9.193  10.811  0.1298  0.0094 -0.1593
14424W        W31271   1.899   7.907   3.108  0.1382 -0.3832  0.1607
14425W        W31272  14.936   2.026  14.232 -0.1291 -0.0445 -0.1186
14426W        W31273  10.523   6.403   2.826 -0.2477 -0.3059 -0.3582
14427W        W31274   3.276  13.816   4.248 -0.1637  0.1960 -0.0349
14428W        W31275  12.140   8.290   0.370 -0.2857  0.1398 -0.1056
14429W        W31276  12.159  15.398   3.626  0.1637  0.0208 -0.1549
14430W        W31277   4.705   5.256   0.356 -0.2309 -0.0449 -0.0827
14431W        W31278   3.131   8.562  13.045 -0.1452  0.0583 -0.1860
14432W        W31279   7.493   7.597   1.596  0.1342 -0.3651 -0.4116
14433W        W31280  16.521  15.283   1.925 -0.0357 -0.1114  0.1621
14434W        W31281  15.411   6.992   2.021 -0.4137  0.0372 -0.0734
14435W        W31282  15.191  12.972   3.724 -0.1222 -0.0023 -0.2593
14436W        W31283  17.438  14.423  10.535  0.0175  0.1412 -0.0822
14437W        W31284   5.651  12.513  14.201  0.0839 -0.1397 -0.1687
14438W        W31285  15.230  11.014   1.974 -0.1869  0.0826 -0.1843
14439W        W31286   8.578  18.082   2.516  0.1526  0.1698 -0.1194
14440W        W31287  19.045  12.543   1.149 -0.4920 -0.1786 -0.1040
14441W        W31288   8.347  13.416  10.734 -0.3967  0.0222  0.0752
14442W        W31289  11.555  15.751  14.195 -0.2050 -0.0557  0.1260
14443W        W31290   1.498  19.022   1.874  0.0145 -0.1319  0.1626
14444W        W31291   5.734   0.198  11.079  0.0855  0.2270 -0.2043
14445W        W31292   1.365  11.196  11.702 -0.1281  0.0596  0.0783
14446W        W31293  14.261   1.688   2.072 -0.0582 -0.1752  0.0162
14447W        W31294  15.116  12.537  10.954 -0.0780  0.0369 -0.0083
14448W        W31295  17.998  15.923  12.673  0.0359 -0.1483  0.1264
14449W        W31296   5.066  14.994   1.831  0.0436  0.2352 -0.1053
14450W        W31297  15.067   8.260  11.328  0.2926  0.1067  0.2771
14451W        W31298  13.409   6.065  14.188 -0.1321  0.0788 -0.5006
14452W        W31299   4.728   9.562   3.242 -0.0445 -0.5151  0.1778
14453W        W31300   4.773   6.643   5.821 -0.1435 -0.1018 -0.0944
14454W        W31301  18.412   0.017   4.526 -0.3414 -0.0048 -0.1182
14455W        W31302  12.291  11.494   1.345  0.1264  0.1862 -0.2426
14456W        W31303  17.095   6.470   2.481 -0.2114  0.0995  0.2723
14457W        W31304   8.318   2.677  11.050 -0.0301  0.5336  0.0163
14458W        W31305  18.597  12.302   1.224 -0.0001  0.2328  0.1450
14459W        W31306  18.593  17.868   0.675  0.1055  0.2607  0.2679
14460W        W31307   1.303   0.144  13.170  0.0319 -0.1372  0.1686
14461W        W31308   6.014   7.644   5.207  0.0960 -0.1361  0.0421
14462W        W31309   6.534   0.343   1.308 -0.0721 -0.3513  0.2107
14463W        W31310   5.337   3.711  10.543 -0.1154  0.1359  0.2299
14464W        W31311  14.749  19.476   4.948 -0.0593 -0.0670  0.0595
14465W        W31312  11.831  11.634  10.570 -0.1265  0.0521  0.2117
14466W        W31313   2.601   0.209   2.729 -0.5436 -0.1025 -0.0021
14467W        W31314  14.211  18.029  13.047  0.3871  0.0502  0.0631
14468W        W31315  11.843  14.257  11.607  0.1987  0.1459  0.0670
14469W        W31316   6.868   2.647  14.548  0.0358 -0.1639  0.1170
14470W        W31317  15.022  13.974   5.927  0.1900  0.2715  0.2446
14471W        W31318  10.091  18.653   5.316 -0.0865  0.0472  0.0576
14472W        W31319   0.166   4.022   4.335  0.0226  0.1234 -0.0809
14473W        W31320   3.644   4.904  11.991 -0.1683 -0.3782  0.3308
14474W        W31321  16.496   7.532   1.640 -0.0920 -0.3261  0.0952
14475W        W31322  16.512  13.254  10.169  0.1920  0.1967 -0.0025
14476W        W31323  15.853   6.342   9.542 -0.1922  0.4647 -0.0373
14477W        W31324   4.625  16.400  10.951 -0.2805  0.1491 -0.1218
14478W        W31325   5.128  16.597  11.051 -0.1240 -0.2033  0.0050
14479W        W31326  14.852   3.740  12.002  0.0140  0.2152 -0.1174
14480W        W31327   1.286  17.709  14.401 -0.0922  0.0241  0.0537
14481W        W31328  16.292   9.186   0.929  0.0800  0.0521  0.0240
14482W        W31329  10.694  17.382   3.313  0.1122  0.0252 -0.0579
14483W        W31330  11.223   5.784   1.726 -0.1711 -0.2115 -0.0854
14484W        W31331   3.222   5.428  11.935  0.0190 -0.4902 -0.2274
14485W        W31332   6.885  14.155  12.800 -0.1813 -0.2150 -0.3195
14486W        W31333  15.888  13.214   3.289 -0.3086  0.0674  0.3071
14487W        W31334  12.899   8.898  10.271  0.0612 -0.0539  0.1579
14488W        W31335   1.770   8.202  13.012 -0.1917 -0.2434 -0.0281
14489W        W31336   2.686   0.471  10.472 -0.1341 -0.0661 -0.1178
14490W        W31337   4.775  19.531  12.485 -0.0130  0.2567 -0.2040
14491W        W31338   5.295   1.014   0.001  0.0031 -0.1888  0.1867
14492W        W31339  18.475  17.160   3.369  0.0508 -0.2203 -0.5273
14493W        W31340  14.454  10.004  11.789 -0.4324  0.1881  0.1878
14494W        W31341  18.451  10.095  11.992 -0.0399 -0.0284  0.2827
14495W        W31342  10.379   1.224   3.308 -0.0572 -0.1582 -0.1709
14496W        W31343   1.047  17.625   2.370 -0.0394  0.0054 -0.0146
14497W        W31344  12.837   4.101  11.745 -0.3836 -0.2413 -0.1896
14498W        W31345  14.438   7.468  13.592 -0.0118  0.0774  0.0439
14499W        W31346  18.209   7.941  14.287  0.1712  0.0205 -0.0338
14500W        W31347  11.528   0.813  12.134  0.2498 -0.0816 -0.0429
14501W        W31348   4.167  10.277   2.018  0.0382 -0.0368 -0.0849
14502W        W31349  12.460  14.938   2.450 -0.1323  0.1390 -0.0415
14503W        W31350  13.617  18.932   0.377 -0.3566  0.0999  0.1675
14504W        W31351   4.179  15.811   1.938  0.1390  0.2016  0.0693
14505W        W31352  19.586   4.871  11.985 -0.0731  0.2102 -0.1551
14506W        W31353  11.446   8.186   4.464 -0.0685 -0.4359 -0.0149
14507W        W31354   6.399  19.339  12.691  0.1022 -0.0953  0.0800
14508W        W31355   8.889   7.177  10.836 -0.2454 -0.3638  0.0544
14509W        W31356  15.460  14.193  14.505 -0.1855 -0.0414  0.1390
14510W        W31357   0.480  14.150   2.290  0.2622  0.1240  0.1155
14511W        W31358   5.540   0.900   5.159  0.0948 -0.1239  0.0769
14512W        W31359  14.280   8.737   1.583 -0.2712 -0.4182 -0.1056
14513W        W31360  15.045   6.193   3.631 -0.1314 -0.0275 -0.0301
14514W        W31361  13.518   7.922   2.929 -0.1409  0.1072  0.1218
14515W        W31362  18.351  16.135   5.294 -0.0310  0.0496  0.2609
14516W        W31363   4.369   1.066  14.476 -0.0421  0.0562  0.1499
14517W        W31364  17.668   4.362  11.264  0.0542 -0.1254 -0.1650
14518W        W31365   4.900  10.625  13.914 -0.3465  0.3407 -0.0953
14519W        W31366   7.601  17.511  14.234 -0.0213  0.2682 -0.1270
14520W        W31367   2.974  11.249   3.267 -0.0194  0.0071 -0.2413
14521W        W31368   9.726  18.822   1.757  0.5277  0.0409  0.1433
14522W        W31369  17.084   5.106  12.000  0.0556  0.0518  0.2223
14523W        W31370   2.974  18.937  13.893  0.0764  0.2870 -0.0921
14524W        W31371  15.316   0.847   2.467 -0.1451 -0.0093 -0.1570
14525W        W31372  11.786  11.837  11.416  0.1182 -0.0223 -0.0896
14526W        W31373  17.467  19.176  14.489 -0.2418  0.1750  0.0277
14527W        W31374   8.610   3.688   3.475 -0.3377  0.1327 -0.0893
14528W        W31375  17.153   0.247   1.953 -0.1669  0.1407 -0.2977
14529W        W31376   6.158   8.734   0.081 -0.0204 -0.1166  0.4378
14530W        W31377  17.568   7.105  13.604  0.1884  0.0833 -0.0449
14531W        W31378   8.908   0.439   3.496 -0.0442 -0.1267  0.3628
14532W        W31379   7.013  15.700   1.771  0.0582 -0.1435  0.3565
14533W        W31380   9.850  14.207  10.726  0.1765  0.0189  0.0704
14534W        W31381  18.775  11.705  13.432 -0.1976 -0.2083 -0.2079
14535W        W31382   6.689  15.427   3.339  0.1119  0.0516 -0.0291
14536W        W31383   9.177   8.562  11.536 -0.2115 -0.1529  0.2359
14537W        W31384   1.059   2.337   2.968 -0.0342 -0.1517 -0.2637
14538W        W31385   7.811  18.519   9.043 -0.1267 -0.0602 -0.0522
14539W        W31386  11.935   2.041   3.877 -0.0994  0.0621 -0.1675
14540W        W31387   9.712   3.644   4.299  0.0613 -0.0493  0.2850
14541W        W31388   3.594  13.235   1.379 -0.0125 -0.0641 -0.2425
14542W        W31389   6.484   0.298  12.601 -0.0547  0.0220  0.3341
14543W        W31390  14.819   2.480   4.384 -0.1375 -0.1167 -0.0832
14544W        W31391   0.959   1.117  11.161 -0.0059 -0.2285 -0.3836
14545W        W31392   1.960  18.385   4.709  0.0751 -0.2409  0.2481
14546W        W31393  16.316   0.010  10.715  0.1259 -0.1796  0.0458
14547W        W31394  10.243   3.779   9.637  0.1899  0.1729 -0.1442
14548W        W31395   8.123   3.394  12.451  0.0998  0.1170  0.0730
14549W        W31396  14.804   6.966  13.498  0.2962  0.0617  0.0009
14550W        W31397  10.344   1.608  13.529  0.0374  0.2113 -0.4158
14551W        W31398   1.658  11.499  10.003  0.2664  0.3271 -0.0584
14552W        W31399   7.228   6.237   2.827 -0.0449 -0.3103 -0.0765
14553W        W31400   0.372  13.725  11.442 -0.1363  0.1124  0.0487
14554W        W31401   6.661  18.336  12.784 -0.2416 -0.1896 -0.1010
14555W        W31402  11.634  17.938  14.234  0.1821 -0.0848  0.1776
14556W        W31403  19.631   9.279  13.127  0.2507  0.3611 -0.1431
14557W        W31404   5.948  19.462   1.356 -0.1203 -0.1875 -0.0482
14558W        W31405   0.226   4.783  13.325 -0.1061  0.1022  0.2140
14559W        W31406   0.192  19.578   4.298  0.0760 -0.1190 -0.0169
14560W        W31407   7.379   0.920   1.012  0.0509 -0.1516 -0.1737
14561W        W31408  10.956   7.546  14.461 -0.0959  0.1267 -0.2605
14562W        W31409   0.235  18.855   1.998 -0.3872 -0.2930 -0.1341
14563W        W31410  16.649   4.006  12.751  0.3908 -0.0374  0.0213
14564W        W31411   2.500   1.044  14.238  0.1713  0.0296  0.1793
14565W        W31412   6.967   0.168   3.985 -0.1118  0.1814 -0.2110
14566W        W31413  10.886  17.244  14.449 -0.0700  0.1252 -0.2326
14567W        W31414  19.193   7.977   3.593  0.1074 -0.1614 -0.4338
14568W        W31415  16.761   9.923   0.771 -0.4178 -0.0579 -0.0386
14569W        W31416  12.648   9.234  10.787 -0.0388 -0.1970 -0.0409
14570W        W31417  17.619   8.866   1.574  0.1930  0.0862  0.3964
14571W        W31418   1.668   4.018   2.421 -0.2984  0.4278 -0.0353
14572W        W31419   0.218   3.937  10.701 -0.1495  0.0368  0.0982
14573W        W31420  14.806   7.270   2.730  0.1541 -0.1357 -0.1655
14574W        W31421   6.164  17.553   3.219 -0.2276 -0.3277  0.2012
14575W        W31422  12.664   9.459   3.883 -0.1834 -0.0725  0.3549
14576W        W31423   0.097   3.175   3.388 -0.3253  0.0135 -0.0179
14577W        W31424  16.562  18.238   2.968  0.0307 -0.1401  0.1291
14578W        W31425  16.471   3.862  14.104 -0.3140 -0.1026  0.4918
14579W        W31426  12.993   1.153   1.096 -0.1737 -0.3160  0.1015
14580W        W31427  18.013  11.111   4.249  0.0051  0.2361 -0.0165
14581W        W31428  15.463   0.938   4.606 -0.1405  0.0705  0.0316
14582W        W31429   0.145  10.077   4.151  0.2808 -0.1593  0.3767
14583W        W31430   0.676  17.866  11.236 -0.0835 -0.0545 -0.2418
14584W        W31431   8.943   0.863   3.133  0.0027 -0.0864  0.2797
14585W        W31432   0.426   7.516  14.579  0.3390 -0.1536  0.1584
14586W        W31433  18.092  18.443   1.648  0.4152  0.0061  0.0748
14587W        W31434  15.187  13.873   2.970  0.2672  0.1950  0.1734
14588W        W31435  15.151   8.367   3.367 -0.0016 -0.1815 -0.1662
14589W        W31436  13.799   7.648   4.928 -0.1660 -0.0799 -0.1201
14590W        W31437   5.720   3.412   0.216 -0.2262 -0.0130 -0.0208
14591W        W31438  10.008   2.291   2.590 -0.1978 -0.0358  0.0619
14592W        W31439  14.453  10.032  12.286 -0.0373  0.2204 -0.0457
14593W        W31440   9.297  19.270   4.578  0.1118 -0.1865 -0.0902
14594W        W31441  18.026  14.084   3.016 -0.1914 -0.0469 -0.2494
14595W        W31442   1.330  12.116   4.736  0.3924 -0.0572  0.0372
14596W        W31443   2.650  13.411   3.214  0.1882 -0.0635 -0.0960
14597W        W31444  12.337  13.531  13.199  0.2946  0.0161  0.2361
14598W        W31445   3.763   9.835   4.356 -0.1681 -0.2044 -0.1411
14599W        W31446   9.893   0.756   0.083 -0.3444  0.3173  0.1333
14600W        W31447  15.345  14.364  10.189 -0.2048 -0.2275 -0.0487
14601W        W31448  19.371   4.694   1.806  0.6681  0.1884  0.4149
14602W        W31449   8.601   6.654   3.494  0.0925 -0.1170 -0.1510
14603W        W31450   7.870   2.289   1.045 -0.0188  0.1600  0.1386
14604W        W31451  11.290  17.634  13.959  0.3120  0.1451  0.1838
14605W        W31452  12.881   0.991  13.539  0.2039  0.0662 -0.1306
14606W        W31453  18.511   7.139  13.505  0.1901  0.3176  0.1834
14607W        W31454   5.567   1.919  10.977 -0.0562 -0.2189  0.0551
14608W        W31455  11.392   9.588   4.295  0.3338 -0.2876  0.3165
14609W        W31456  13.495   0.828   2.311 -0.1386  0.3015  0.0795
14610W        W31457   7.177  16.287   2.532  0.2053 -0.1347 -0.5216
14611W        W31458  13.384   7.792   1.712  0.1386  0.1846 -0.3780
14612W        W31459   0.999   7.620   3.622 -0.0626 -0.0221 -0.1723
14613W        W31460  12.811  10.749   4.550  0.0383  0.2062 -0.2703
14614W        W31461  18.239  14.241   4.329 -0.3070 -0.1411 -0.0209
14615W        W31462   6.160   2.675   0.510 -0.0827  0.1717  0.0319
14616W        W31463   7.725   3.440  13.944  0.2238  0.3075  0.2210
14617W        W31464  16.262   6.015  14.112 -0.0861 -0.1736  0.1174
14618W        W31465  14.245   1.368  13.612  0.4126 -0.0731 -0.1937
14619W        W31466  13.742  18.243   1.334 -0.2787  0.0866 -0.0602
14620W        W31467  14.785  11.686   4.138 -0.1017  0.2456 -0.0071
14621W        W31468  15.965  17.986   2.103 -0.0986 -0.0833 -0.2710
14622W        W31469   3.139  15.158  13.098  0.3709 -0.0432  0.1687
14623W        W31470  19.149  14.115   4.666  0.0477  0.0622 -0.1476
14624W        W31471   7.129  15.550   4.283 -0.3383  0.0884  0.0907
14625W        W31472  14.855  13.476  11.096 -0.1197  0.0748 -0.2078
14626W        W31473   3.110   9.890   0.270 -0.0502 -0.0353 -0.3673
14627W        W31474   9.693  11.884   1.640  0.4730  0.2234  0.0846
14628W        W31475  14.860   9.439  10.813 -0.0420  0.0098  0.1639
14629W        W31476  19.227  15.874  10.831  0.1231 -0.1511  0.2104
14630W        W31477  18.557   4.156  10.131  0.0009 -0.3170 -0.2341
14631W        W31478   1.367  15.771  13.007 -0.0097  0.3412  0.0928
14632W        W31479  19.298   4.116  10.586  0.3776 -0.3742 -0.0986
14633W        W31480  12.027  10.507  12.684 -0.1955  0.1979 -0.1780
14634W        W31481  18.090   1.981   3.943 -0.3134  0.0211 -0.0987
14635W        W31482   4.188  12.613   1.667 -0.0400 -0.2864 -0.0528
14636W        W31483  12.786   4.221   0.196  0.1360  0.2872  0.0747
14637W        W31484  10.736   4.915  11.840  0.0184 -0.0016  0.0716
14638W        W31485   6.733   1.180  12.141 -0.1967  0.0327 -0.5402
14639W        W31486   6.844   3.461   0.630  0.1544 -0.0966 -0.0362
14640W        W31487   2.801   9.670  13.855 -0.0791  0.2306  0.1633
14641W        W31488   4.416  15.012  11.470 -0.1798 -0.1165  0.6185
14642W        W31489  17.185  16.107  10.666  0.2460 -0.0313  0.0199
14643W        W31490  10.690   9.929  11.390 -0.1870  0.1132  0.2093
14644W        W31491   6.895   7.270   2.828 -0.3741 -0.3288 -0.1023
14645W        W31492  14.009   0.812  12.271 -0.0500  0.0367 -0.0675
14646W        W31493   9.139  14.458  12.341 -0.0704 -0.0627  0.1021
14647W        W31494  16.929   2.915   1.205  0.1527  0.2120 -0.1894
14648W        W31495  14.945   0.723   4.523 -0.1446  0.2917  0.2397
14649W        W31496  13.589  11.238  14.000 -0.2819 -0.1115  0.1031
14650W        W31497  15.786   3.097  11.250 -0.3045  0.1452  0.1756
14651W        W31498  13.313   4.681   2.891 -0.2496 -0.1321 -0.2506
14652W        W31499   9.390  12.388   2.951  0.0809 -0.2428 -0.1695
14653W        W31500  10.847  14.295   2.290 -0.1296  0.0740  0.2051
14654W        W31501   0.552   6.502  13.376  0.2904  0.0129  0.0718
14655W        W31502  17.500  19.583   1.242 -0.0166  0.3374 -0.1242
14656W        W31503  10.356   1.163   9.902  0.2351 -0.0120 -0.3709
14657W        W31504  15.311  18.878  12.071 -0.2142  0.0686 -0.3291
14658W        W31505  13.908  10.846   2.412  0.3188 -0.3044  0.0261
14659W        W31506  13.626   7.649   0.640 -0.0927  0.1329  0.0823
14660W        W31507   8.502   8.571   3.592 -0.1116 -0.2148 -0.3586
14661W        W31508  19.352   6.620   4.077  0.2281 -0.2591  0.1999
14662W        W31509   2.615   4.295  12.244 -0.3813 -0.0932 -0.1735
14663W        W31510  18.308  16.097   4.482 -0.0119  0.0491  0.1330
14664W        W31511   9.858  16.971   5.279 -0.3034 -0.4416 -0.0634
14665W        W31512   8.103   7.760   4.063 -0.0975  0.2010  0.2227
14666W        W31513   1.895  10.481  12.586 -0.1482  0.2489  0.0871
14667W        W31514   1.410   9.165   1.968  0.2396 -0.0400 -0.0589
14668W        W31515   6.395   5.916  14.194  0.1703  0.0815 -0.0174
14669W        W31516   2.870  13.810  14.349  0.1136  0.0027 -0.1905
14670W        W31517   0.608  18.057   0.409  0.3397 -0.0073  0.0702
14671W        W31518  13.442   5.789  13.310 -0.2711  0.0238  0.1574
14672W        W31519  17.185  18.932   0.682  0.0305 -0.4537 -0.0089
14673W        W31520  14.285   3.155  13.762  0.0294 -0.5239 -0.1085
14674W        W31521   5.653   4.102   4.116 -0.0847  0.1036 -0.1774
14675W        W31522   9.887  13.968   4.721 -0.0667  0.0199 -0.1607
14676W        W31523  12.403   6.089  13.263 -0.1799  0.0198  0.1722
14677W        W31524  14.825   6.016  11.621  0.2580 -0.0126  0.2490
14678W        W31525  19.159   9.428   5.297  0.1125  0.1817 -0.1224
14679W        W31526   6.110   5.723   0.313  0.1336 -0.1990 -0.0913
14680W        W31527   7.028   6.685   4.988 -0.1673 -0.1656 -0.2173
14681W        W31528  17.686   2.288  12.382 -0.0659  0.0873  0.1008
14682W        W31529  15.938  11.076   9.952  0.4308  0.0110 -0.1345
14683W        W31530  17.362   8.470  11.871 -0.1542  0.0359  0.1533
14684W        W31531  15.299  14.622   3.626 -0.2542  0.0977  0.1270
14685W        W31532   4.658   0.519   4.872 -0.0534  0.0338  0.3857
14686W        W31533  12.225   4.917   1.024  0.1975  0.1820 -0.0513
14687W        W31534   3.183  16.307   3.711  0.0732  0.0563 -0.0759
14688W        W31535   5.183  18.968  11.466  0.0539  0.1297  0.0012
14689W        W31536  10.489   1.733  12.552  0.0047 -0.0842 -0.0028
14690W        W31537   9.158  10.307   9.598  0.2109 -0.2112  0.1040
14691W        W31538  17.093   0.969   9.782  0.2182  0.0194 -0.0287
14692W        W31539  14.130  14.741   2.636 -0.0506 -0.3748  0.3156
14693W        W31540  16.557   7.205  14.015  0.0345 -0.1948 -0.1061
14694W        W31541   2.676   2.836  10.802 -0.2687 -0.1697  0.1954
14695W        W31542  18.886   6.389   3.753 -0.3504  0.1283  0.1718
14696W        W31543   8.094   2.418  13.666  0.0223 -0.2699 -0.0022
14697W        W31544  14.841  14.194   3.144  0.0179 -0.1883 -0.2547
14698W        W31545  16.987  13.250  13.650 -0.0322 -0.3085 -0.1896
14699W        W31546  10.213   5.225   2.702 -0.0151 -0.1885 -0.0390
14700W        W31547   0.783   2.419   0.764 -0.2259  0.0480 -0.1871
14701W        W31548  18.157  17.655  14.059  0.0697  0.0833 -0.1131
14702W        W31549  11.109  18.602   3.595  0.1568 -0.2533  0.0073
14703W        W31550  18.019   4.074   2.795  0.0881 -0.3788 -0.5476
14704W        W31551  10.176   4.602   3.290 -0.1433 -0.0727 -0.1382
14705W        W31552   2.787  16.702  11.480 -0.0588 -0.3769 -0.1880
14706W        W31553   3.205   8.799   2.082  0.1507  0.0182 -0.1627
14707W        W31554  18.489  17.226   1.214 -0.2979  0.1368  0.1230
14708W        W31555   8.128  12.129   3.136  0.0956  0.1365  0.1219
14709W        W31556   7.894   3.428   2.029 -0.2353  0.1031  0.0671
14710W        W31557   2.502   7.052  13.190 -0.0834  0.1367  0.3899
14711W        W31558   7.776   2.589  13.252 -0.2510  0.0906 -0.1417
14712W        W31559  10.889  16.802   1.927  0.0334  0.0244 -0.1898
14713W        W31560  17.471   8.405   1.662  0.1081  0.4238  0.0715
14714W        W31561  10.388   6.007  11.540  0.1728  0.1680 -0.0846
14715W        W31562  14.599   8.155  12.554  0.0181 -0.1541  0.1621
14716W        W31563  13.434  10.159  13.776 -0.1508 -0.1131 -0.1414
14717W        W31564  14.272  10.121   4.767  0.4142 -0.1541 -0.2360
14718W        W31565   3.515   5.853   1.702 -0.0195 -0.0953 -0.2313
14719W        W31566   0.353  12.177   3.723 -0.3868 -0.0904  0.2012
14720W        W31567   1.764  12.752   9.987  0.3307  0.0003 -0.0493
14721W        W31568   9.688  15.772  11.924 -0.0375  0.2731 -0.1391
14722W        W31569   5.316   4.386  12.118  0.3232  0.0872  0.1723
14723W        W31570   1.768   0.461   0.406 -0.0407  0.3035 -0.2421
14724W        W31571  12.580   8.751  11.191  0.2439 -0.0321 -0.0538
14725W        W31572   4.485   6.201  11.886 -0.0103 -0.0723 -0.4270
14726W        W31573   4.735   4.675  10.178 -0.0122  0.3898 -0.0641
14727W        W31574  18.833  19.371   4.486 -0.0921  0.0628  0.0308
14728W        W31575   7.177   0.090  14.268 -0.3394 -0.0574  0.3080
14729W        W31576   6.468  14.908   4.105 -0.0290  0.0855 -0.3877
14730W        W31577   2.779  11.066   0.727 -0.2098  0.2333  0.1044
14731W        W31578  15.298   3.803  12.319  0.2631  0.2391 -0.0777
14732W        W31579   4.878   8.341   1.808  0.0751  0.3231 -0.0479
14733W        W31580   9.453  10.528   1.884 -0.1270 -0.0980  0.0702
14734W        W31581  10.547  13.002  14.363 -0.1707  0.0885  0.0656
14735W        W31582  12.956   2.242   0.895 -0.2312  0.2365 -0.2103
14736W        W31583  12.224   7.117  13.968 -0.2138  0.0439  0.1413
14737W        W31584  13.548  18.854   5.062  0.0667 -0.2736 -0.3740
14738W        W31585  14.619   7.811  14.018 -0.1679 -0.1155  0.2137
14739W        W31586   7.101  13.131  11.563  0.1560  0.3772  0.0698
14740W        W31587   1.477  17.074  11.668  0.0275  0.1927 -0.3676
14741W        W31588   4.634   3.931   3.921 -0.0196  0.2651  0.0049
14742W        W31589   4.905  13.242  12.559 -0.1989 -0.1492  0.2271
14743W        W31590   4.242  18.803   3.448  0.2977  0.1613 -0.4886
14744W        W31591   5.126   0.402  13.428 -0.2153  0.2730 -0.2512
14745W        W31592   4.178   6.375  12.248  0.4526 -0.1376 -0.0790
14746W        W31593   0.199   0.312   3.945  0.1949  0.1086  0.1677
14747W        W31594  14.880  19.261   0.755 -0.2851 -0.0052  0.4018
14748W        W31595   9.228  17.471  13.744  0.3271  0.3119 -0.3211
14749W        W31596   1.605  10.711   1.831 -0.0941  0.2494  0.1580
14750W        W31597  11.305   8.453   0.260  0.1351 -0.5580 -0.0141
14751W        W31598  11.232  15.717   1.864 -0.2287  0.0071 -0.0110
14752W        W31599  17.875   3.441  13.756 -0.3686  0.2316 -0.0639
14753W        W31600  10.184  15.967  10.533 -0.2490  0.0125 -0.2936
14754W        W31601   2.976   0.978   4.290 -0.2287  0.1931 -0.0082
14755W        W31602   0.760  12.273   5.395 -0.2921 -0.1170  0.0845
14756W        W31603   9.187   7.017   4.281 -0.3678  0.1897 -0.3037
14757W        W31604  17.828  17.874   4.396  0.0054  0.0440  0.0248
14758W        W31605   2.391  19.285  10.263 -0.5519  0.0435 -0.3957
14759W        W31606   3.501   7.192  14.114  0.1933  0.0636 -0.1312
14760W        W31607   0.798  16.337   2.010  0.2039  0.1343  0.0952
14761W        W31608   2.664   2.402  13.327 -0.1119  0.0276  0.0856
14762W        W31609   1.623   7.285   4.302  0.0361 -0.0284 -0.1347
14763W        W31610  16.379  14.387   1.606 -0.1072  0.2279 -0.2049
14764W        W31611  14.669  13.552   3.901  0.1069  0.0927  0.3555
14765W        W31612  19.491   4.756  10.362 -0.1313  0.0548  0.0084
14766W        W31613   1.816   4.251  14.261  0.1777  0.2410  0.1196
14767W        W31614  14.889   4.717   2.567 -0.0035  0.1060  0.3055
14768W        W31615   5.175  19.134  14.112  0.2357  0.1805 -0.1913
14769W        W31616  10.446   4.449   4.257  0.4247  0.1717 -0.2210
14770W        W31617   4.831  19.436  10.653 -0.0876 -0.2998 -0.1773
14771W        W31618   7.517   3.510   0.164 -0.2014  0.0791  0.0848
14772W        W31619  15.388  13.395  10.472  0.3968  0.1424 -0.0334
14773W        W31620   1.648   0.943  11.975 -0.0329 -0.1647  0.1268
14774W        W31621  12.100   1.512   3.686  0.2553  0.3083  0.1295
14775W        W31622  19.309   1.847  10.727 -0.1465 -0.1170 -0.0100
14776W        W31623  13.405  16.148   0.727 -0.1547 -0.0040  0.1047
14777W        W31624  19.603  14.521  11.887 -0.0603 -0.1645  0.2395
14778W        W31625  14.322   2.294  10.295 -0.0364 -0.3109  0.1417
14779W        W31626   3.304   7.331   5.228 -0.0578  0.2835  0.0238
14780W        W31627  14.688   3.861   3.227  0.3175 -0.2262  0.0497
14781W        W31628   2.745  12.938   9.483 -0.1193  0.0201  0.0263
14782W        W31629   4.998   9.657   4.133  0.0025  0.1805  0.3641
14783W        W31630  17.972   6.277  11.737 -0.0781 -0.3971  0.1701
14784W        W31631   9.462   6.180   3.771 -0.0702 -0.3277 -0.3210
14785W        W31632   0.253  12.490  10.938  0.0963 -0.2612 -0.2844
14786W        W31633  11.585   1.421   0.057  0.5836  0.4037  0.0835
14787W        W31634   6.217  15.159   0.237 -0.1845  0.1610  0.0405
14788W        W31635  16.846  11.151   0.323 -0.1627 -0.1624 -0.1025
14789W        W31636  16.894   2.513  14.571  0.2706 -0.0796  0.3728
14790W        W31637   0.513   0.211   3.506  0.2050 -0.1083  0.1145
14791W        W31638  18.023  18.435  10.398 -0.2334 -0.1337 -0.0165
14792W        W31639   2.158  19.492  12.719  0.0946 -0.1280 -0.1253
14793W        W31640  11.009  12.504  12.484 -0.5077 -0.3590 -0.1210
14794W        W31641   7.675   9.312  13.558  0.0574  0.2229 -0.0134
14795W        W31642   2.732   6.163  11.572  0.0247  0.2526 -0.1123
14796W        W31643   2.610  17.551  10.424 -0.2793 -0.1186 -0.0074
14797W        W31644   0.788   7.380  10.371 -0.2487  0.3624 -0.2995
14798W        W31645   3.386  16.149  11.472 -0.1826 -0.1330 -0.3129
14799W        W31646  14.092   9.711   5.082  0.0741 -0.1071  0.0682
14800W        W31647  15.691  10.865   3.019  0.0622 -0.1492 -0.1109
14801W        W31648   0.582   2.120  13.606  0.1468  0.0788 -0.0508
14802W        W31649  18.516  16.506  10.645 -0.0327 -0.0488  0.2224
14803W        W31650  12.994   4.798  14.446  0.1454  0.3376 -0.4932
14804W        W31651   7.957  18.810  11.314  0.0539 -0.0946 -0.3898
14805W        W31652   5.295   3.438   9.050 -0.0156 -0.0287 -0.0137
14806W        W31653   2.066  13.456  13.367 -0.1203  0.0819  0.1067
14807W        W31654  10.572  10.714   1.106 -0.0864  0.2037  0.0367
14808W        W31655  11.428  12.544  11.272  0.1542 -0.4932  0.1165
14809W        W31656   3.627  15.399   1.050  0.2144 -0.0724 -0.0422
14810W        W31657  14.166   2.455  10.776  0.1105 -0.3308 -0.0146
14811W        W31658  15.478   3.657   1.055  0.1782  0.2304 -0.0183
14812W        W31659  18.566  17.472  13.772 -0.0195 -0.1121 -0.1523
14813W        W31660  11.461   0.336   4.791 -0.1023  0.1442 -0.2106
14814W        W31661  15.945   7.710   4.001 -0.0193  0.0041  0.0167
14815W        W31662  17.744   0.090   4.003  0.2961 -0.2736 -0.1133
14816W        W31663   4.729   8.743   2.962 -0.0111  0.3295  0.0891
14817W        W31664  12.426   7.878  13.943  0.3187 -0.2347 -0.0787
14818W        W31665  13.335   5.066  10.901  0.1778  0.1961  0.3183
14819W        W31666   7.286  17.577  13.559 -0.1786 -0.0707  0.1720
14820W        W31667   0.787   8.100   3.363  0.0744 -0.1987 -0.0350
14821W        W31668   2.374  13.752   3.024 -0.0112 -0.1077 -0.2548
14822W        W31669   1.176   6.223   3.739 -0.3089  0.2092  0.0520
14823W        W31670  18.027  15.448  11.378  0.1990 -0.0151  0.2558
14824W        W31671   0.942  15.568   2.584 -0.2709  0.1962 -0.1974
14825W        W31672   9.067  17.871   1.754 -0.1000 -0.0914 -0.1446
14826W        W31673  17.276   3.202  10.794 -0.0764  0.1614  0.0736
14827W        W31674  18.114  10.574   0.186 -0.1368  0.1615  0.0130
14828W        W31675   6.667   6.080  10.755 -0.3033 -0.1540 -0.2200
14829W        W31676   6.942   9.461  13.416 -0.1507  0.2698  0.1244
14830W        W31677   9.776   1.705  13.398  0.2556 -0.3813 -0.2683
14831W        W31678   9.286   2.645   2.898 -0.3273  0.0565  0.0564
14832W        W31679   1.248   8.955  11.082  0.0305 -0.1467  0.0759
14833W        W31680  13.946  17.682  12.657  0.0418 -0.0248  0.0241
14834W        W31681  11.545   6.228  12.710 -0.2437 -0.0039 -0.0006
14835W        W31682   8.151   9.269   3.993 -0.0956 -0.2092  0.4471
14836W        W31683  15.920  12.439   1.004  0.0711 -0.0385 -0.3291
14837W        W31684  18.498  18.712  10.387  0.0729  0.2507 -0.0750
14838W        W31685  10.509   6.082  14.242  0.0048  0.0594 -0.1624
14839W        W31686   2.428   3.257  10.363  0.1383  0.0660 -0.1360
14840W        W31687   6.262  17.321  10.255  0.3098  0.1758 -0.0468
14841W        W31688   3.273   6.353  10.540 -0.1293  0.1681  0.4063
14842W        W31689   9.949   1.836   2.404  0.3749  0.0170  0.1268
14843W        W31690   1.048   3.482  11.069  0.3534  0.1630  0.1289
14844W        W31691  10.979  13.526   5.284  0.1824  0.1988 -0.1352
14845W        W31692   0.933   9.154   4.657 -0.0915  0.0086 -0.1451
14846W        W31693  13.845  18.305   2.624 -0.0653 -0.0646 -0.1127
14847W        W31694   1.194  16.480   0.975  0.2492 -0.1169 -0.1700
14848W        W31695  11.868   0.530  13.522 -0.3959 -0.0732 -0.3134
14849W        W31696  17.825   5.913  11.073 -0.0558 -0.1228  0.0312
14850W        W31697   0.621  18.199  14.394  0.1923  0.1299 -0.2215
14851W        W31698   6.656   8.951   3.825  0.2963  0.2610 -0.0591
14852W        W31699   5.834  10.203  12.199 -0.3960 -0.0829 -0.3386
14853W        W31700   1.449  16.899   0.651 -0.0915  0.3201 -0.0938
14854W        W31701   7.226  11.714  12.764  0.0593  0.1491  0.2644
14855W        W31702  13.722   2.360  10.982  0.3757  0.2608 -0.2060
14856W        W31703   8.517   9.323   9.998 -0.2189 -0.1072 -0.0532
14857W        W31704   1.046   8.680   3.555 -0.0674 -0.1053  0.1357
14858W        W31705  15.174   8.266  10.851 -0.1018 -0.2653 -0.2616
14859W        W31706   7.453  11.274   1.967 -0.1448 -0.1199  0.0917
14860W        W31707  15.439  17.422   0.666 -0.2334 -0.6207 -0.3098
14861W        W31708   0.122  12.918   0.378 -0.2844  0.2000 -0.1007
14862W        W31709   9.364   2.897   2.399  0.3040  0.1779  0.0311
14863W        W31710  18.391  13.172  11.481  0.1714  0.0893  0.2081
14864W        W31711  16.374   4.153   0.333  0.2278  0.1192  0.0136
14865W        W31712   8.800   1.475   4.424  0.0615 -0.2985 -0.1087
14866W        W31713  17.069   7.254  10.492 -0.0817  0.2479  0.1095
14867W        W31714   7.008  11.539  14.017  0.0529  0.0094 -0.1756
14868W        W31715   7.427  15.636  11.243  0.0431  0.0926  0.0247
14869W        W31716  18.572   1.062   2.332 -0.0247  0.0254 -0.2393
14870W        W31717  19.320  16.668   0.713  0.1381  0.0062  0.1331
14871W        W31718   6.006   0.236   1.087 -0.0267  0.0708 -0.0103
14872W        W31719   7.823   0.938  11.090  0.0020 -0.0153 -0.0037
14873W        W31720  14.521   1.013   0.167 -0.0300 -0.2834  0.1955
14874W        W31721   0.399   2.022   1.444 -0.3977  0.1615  0.6063
14875W        W31722   3.344  14.035  11.738 -0.0436 -0.4105 -0.1539
14876W        W31723   5.031   5.751   4.812 -0.0752  0.0700 -0.0768
14877W        W31724   1.766  17.589   2.890 -0.0433 -0.2938 -0.2023
14878W        W31725  11.706  15.567   5.055  0.1767  0.0565 -0.1301
14879W        W31726   4.224   7.438  12.990 -0.2333 -0.0989  0.0539
14880W        W31727   6.856  13.625  12.138  0.1993  0.3226  0.1820
14881W        W31728   6.191  13.618   0.024 -0.1312  0.0828  0.1563
14882W        W31729   5.602  12.394   2.076 -0.1583 -0.1881 -0.1171
14883W        W31730  13.201  10.571   0.047 -0.0883  0.1015 -0.2756
14884W        W31731  15.026  12.673   0.303 -0.4493  0.0136 -0.0633
14885W        W31732  16.245  12.319   5.216 -0.0771 -0.2559  0.0751
14886W        W31733   3.836   5.681  13.056 -0.0786  0.1576  0.0489
14887W        W31734   9.832   5.130   4.484  0.0004 -0.0122 -0.3101
14888W        W31735   1.648  16.847   2.360 -0.0560  0.3158 -0.0584
14889W        W31736   7.768  10.258   5.271 -0.0014 -0.2923  0.1476
14890W        W31737  18.709   7.386   0.545  0.2245  0.4119  0.2682
14891W        W31738   9.341   5.232  13.177  0.4400 -0.1174 -0.2922
14892W        W31739   8.330   8.592  11.153  0.0414  0.2821 -0.2109
14893W        W31740   6.464  12.454   2.489  0.0698  0.2703  0.3025
14894W        W31741   6.677  12.124  13.241 -0.1031 -0.0752 -0.2353
14895W        W31742   4.152   5.478   1.606 -0.2364  0.1740 -0.0695
14896W        W31743   2.290  14.685  13.162  0.0834  0.0054 -0.2809
14897W        W31744  17.651   1.145  12.613  0.1428  0.2009  0.0776
14898W        W31745  18.276   7.283   4.968  0.0297  0.0912  0.0464
14899W        W31746  17.822   8.322  12.246 -0.1877 -0.1057 -0.3892
14900W        W31747   8.980  15.806  13.240 -0.0603 -0.0213  0.0846
14901W        W31748   9.456  17.733  11.949 -0.2652  0.0533 -0.0848
14902W        W31749   6.494   6.848  14.590  0.0896  0.2956 -0.2569
14903W        W31750  13.948  19.275   1.277  0.3433  0.1907 -0.1710
14904W        W31751   5.481  18.458   4.039  0.5409  0.1631  0.2986
14905W        W31752  17.662   0.677   0.973 -0.1003 -0.0313 -0.0252
14906W        W31753   2.382   3.126   3.775 -0.0022  0.0633 -0.3512
14907W        W31754  13.701   3.653   9.814 -0.2234  0.3185  0.0961
14908W        W31755  14.641   3.283   4.543  0.0239  0.0547  0.1668
14909W        W31756   5.210   6.965   1.672  0.0233  0.0327  0.1597
14910W        W31757  16.562  12.647   2.300 -0.1966 -0.0078 -0.4179
14911W        W31758   9.143   0.793  13.978  0.0094  0.0200  0.1356
14912W        W31759  15.527   8.177   9.981  0.2776 -0.1555 -0.0300
14913W        W31760  16.014  11.289   2.742  0.0876  0.0563  0.1628
14914W        W31761  17.555   9.876   1.165 -0.0784  0.0646  0.0974
14915W        W31762  16.951  18.640  12.423 -0.1956  0.2364  0.0335
14916W        W31763  13.436  10.948   2.343 -0.0133  0.0926  0.1427
14917W        W31764  18.079  18.499  14.339  0.2116 -0.2291 -0.0866
14918W        W31765  11.231  11.628  10.206 -0.2831  0.2901  0.4045
14919W        W31766   6.187   4.564  14.400 -0.1886  0.0762 -0.2790
14920W        W31767   6.654  14.051  12.331 -0.4503  0.1923  0.0376
14921W        W31768  17.480   1.126  10.721 -0.2178 -0.0102  0.2632
14922W        W31769  13.510  16.496  13.785  0.0222 -0.1640 -0.0817
14923W        W31770  17.215   0.181   2.490 -0.2754 -0.1659  0.0688
14924W        W31771   0.211   2.748  12.897  0.2517 -0.0946  0.1010
14925W        W31772  14.059  16.561   2.353 -0.3881 -0.0847  0.1633
14926W        W31773  10.238   5.732  13.369  0.1050 -0.3262  0.0811
14927W        W31774   2.015   2.502  12.996  0.2503  0.0336  0.2207
14928W        W31775   8.516  17.517   1.160 -0.1872  0.2275  0.3726
14929W        W31776   1.704   0.917   2.849 -0.0866  0.0291 -0.3028
14930W        W31777   4.273   8.519   4.152  0.3243  0.0187  0.2791
14931W        W31778   3.320   9.000   0.598  0.0413  0.1025 -0.0520
14932W        W31779   6.423  11.256   2.022  0.3963  0.3505 -0.0440
14933W        W31780   2.925   7.582  11.910  0.3332 -0.0814 -0.0906
14934W        W31781   2.207  17.718   2.460  0.3004 -0.0362 -0.2194
14935W        W31782  18.460   0.965   3.336  0.0972  0.1445 -0.0388
14936W        W31783  12.670   7.031  13.770 -0.1795 -0.2178  0.0808
14937W        W31784   6.539  15.434   1.861  0.2102  0.2172  0.3121
14938W        W31785   2.915  19.291  14.283 -0.2948 -0.0016 -0.0350
14939W        W31786   8.881  17.927   4.317 -0.1800 -0.0926  0.1365
14940W        W31787   4.625  12.676   1.949  0.1540  0.1429  0.2489
14941W        W31788   8.201  12.567   3.973 -0.0267 -0.1960  0.2348
14942W        W31789  13.062   5.475   3.397 -0.0987  0.0164  0.0804
14943W        W31790   0.907   4.816   1.192 -0.1935 -0.0934 -0.3972
14944W        W31791   3.186  15.778  13.882 -0.0507  0.0748 -0.1853
14945W        W31792  19.164  16.420  13.021 -0.3742  0.1878 -0.1892
14946W        W31793   9.531   1.758   3.735  0.0097  0.1349  0.3415
14947W        W31794  13.434   9.002  13.279 -0.1015 -0.0084 -0.1161
14948W        W31795   4.664  17.632   1.369 -0.2226  0.1661 -0.1169
14949W        W31796   2.926  12.880   2.642 -0.1217  0.1715  0.1703
14950W        W31797  19.033   2.386  10.994  0.0904 -0.2479  0.1219
14951W        W31798   0.978   8.284  14.203  0.0618 -0.0460  0.2042
14952W        W31799   3.347   3.490  13.452  0.2438  0.0037 -0.3477
14953W        W31800   1.109   2.699  14.415  0.1977 -0.1531  0.0018
14954W        W31801  10.435  16.341   4.298 -0.3556 -0.0668 -0.0962
14955W        W31802   8.405  10.381   1.348  0.2966 -0.1619  0.0939
14956W        W31803   1.597  12.210   0.801  0.2166 -0.2306 -0.1593
14957W        W31804   6.669   5.585   0.640 -0.0778 -0.1571 -0.0799
14958W        W31805  16.115  19.494   1.987  0.2219 -0.2987  0.1889
14959W        W31806  11.511  13.572   1.448 -0.1845 -0.1343  0.0246
14960W        W31807  12.822   6.407  10.560  0.1093  0.1312 -0.0552
14961W        W31808  15.785  14.209  11.019  0.2299  0.0105  0.3247
14962W        W31809   0.195  14.917   2.675 -0.1277 -0.0961 -0.1352
14963W        W31810   2.920   5.057   1.777  0.0090  0.0810 -0.1545
14964W        W31811  16.401  14.257   2.091  0.1972  0.0686 -0.0497
14965W        W31812   1.233   8.187  10.451  0.4060 -0.1093  0.1372
14966W        W31813  12.556  18.640   3.014 -0.2738  0.2449 -0.1947
14967W        W31814  17.110  14.163   2.621  0.0567  0.0973 -0.3306
14968W        W31815   5.181   9.026   1.263  0.0124  0.0059 -0.1169
14969W        W31816   3.724  18.401  14.236  0.0829 -0.0065 -0.3034
14970W        W31817  14.633   9.519   3.866  0.0635  0.2588  0.0338
14971W        W31818  16.181   2.080   2.036  0.1494  0.3215  0.2283
14972W        W31819  17.921   0.758  10.285  0.3047  0.0688 -0.0808
14973W        W31820   4.607   8.309  11.552  0.1388  0.1758 -0.1966
14974W        W31821  17.117   6.530   0.967 -0.5537 -0.1420  0.0059
14975W        W31822   5.269  19.053  13.616  0.1334  0.0857  0.2010
14976W        W31823  11.703  16.723   4.052  0.2050  0.1451 -0.1313
14977W        W31824   4.686  18.726  12.985  0.0494  0.1564 -0.0748
14978W        W31825  16.610  18.495   0.611  0.1713  0.0120 -0.1764
14979W        W31826  15.113  12.626   5.134 -0.0391 -0.3449  0.1872
14980W        W31827   0.370   8.871  13.018 -0.1803 -0.0913  0.1958
14981W        W31828   8.005  16.428   2.573  0.2227 -0.0802 -0.0021
14982W        W31829   6.380  14.133  12.711  0.2153  0.0371  0.0377
14983W        W31830  16.866  19.562  11.333  0.0501 -0.1326 -0.2778
14984W        W31831  19.197   0.612  10.404  0.1481  0.0862 -0.1395
14985W        W31832  14.883   6.344  10.665 -0.2077 -0.0108 -0.3295
14986W        W31833  17.478  12.181   4.147 -0.1654  0.0121  0.0221
14987W        W31834  12.110   9.808  10.908 -0.2963 -0.2671  0.1393
14988W        W31835   3.342   6.323  14.018 -0.2526 -0.2817 -0.3830
14989W        W31836  10.155   1.154  14.401  0.2168 -0.3316  0.3602
14990W        W31837   7.022   3.189  10.979  0.2406  0.1592 -0.2313
14991W        W31838   5.839  12.000   2.272 -0.0217 -0.0381 -0.0691
14992W        W31839  15.562  13.264   3.959 -0.0412  0.1137  0.2759
14993W        W31840  15.469   7.785   0.061  0.1630  0.3524  0.1110
14994W        W31841   4.143  17.956  11.510 -0.2660 -0.0972  0.2006
14995W        W31842  14.186   0.697  12.935  0.0264  0.3188 -0.2379
14996W        W31843  18.207   7.602  11.993  0.0801  0.1643  0.0193
14997W        W31844   0.217   8.071   3.597  0.0020  0.2248  0.2753
14998W        W31845   4.531   0.169  10.137  0.1001 -0.0319 -0.2131
14999W        W31846   8.291   2.416   0.796 -0.1985 -0.2433 -0.0814
15000W        W31847  12.677  14.360   0.252 -0.1121 -0.0080 -0.0738
15001W        W31848  11.341  10.673   2.519 -0.4269 -0.0158 -0.2564
15002W        W31849  17.972  15.048   3.444  0.2209  0.0021  0.0224
15003W        W31850  16.551   3.817   0.675  0.1814  0.0487  0.1276
15004W        W31851   4.859  17.351  13.927  0.1673  0.2555  0.1463
15005W        W31852  14.417   3.160  12.539  0.2124 -0.1994  0.0402
15006W        W31853  19.590   7.324   1.718  0.2149 -0.2614  0.1315
15007W        W31854   3.951   2.062  13.321  0.0930 -0.0896  0.0809
15008W        W31855  13.531  17.732   4.969  0.0140  0.0661  0.2053
15009W        W31856   8.972  13.137  11.693  0.2940  0.1682 -0.2217
15010W        W31857   8.504   2.458  10.147  0.3665 -0.2374  0.3664
15011W        W31858   3.937  15.217  13.229 -0.1008  0.0689 -0.0293
15012W        W31859   3.662  13.203   4.792  0.1803  0.3825  0.1849
15013W        W31860  11.224   3.878  12.381 -0.3582 -0.0906 -0.1549
15014W        W31861   3.157  19.261   1.590  0.3541  0.1527 -0.1749
15015W        W31862  17.014   5.252  14.133 -0.0052  0.3009  0.3101
15016W        W31863  16.290  16.935   1.628 -0.0092 -0.4700  0.1038
15017W        W31864  14.735   3.516   4.034 -0.1690 -0.3231  0.3073
15018W        W31865   0.636  19.271  11.865  0.3056 -0.1264  0.1075
15019W        W31866  15.664   3.261  10.806  0.2357 -0.1783 -0.0038
15020W        W31867   1.012  12.603  14.098 -0.1571 -0.1561 -0.1405
15021W        W31868   1.951   8.712  10.545 -0.3015 -0.2071  0.0038
15022W        W31869  19.461   5.438   0.278 -0.0289 -0.0462  0.2228
15023W        W31870   9.442  12.413  11.141  0.2311  0.5411  0.1882
15024W        W31871  18.270  18.313   3.680  0.5193  0.2326 -0.0337
15025W        W31872   7.362  11.424   4.298 -0.0537  0.1137 -0.0336
15026W        W31873   7.410   6.306  14.167  0.2774  0.2163  0.0132
15027W        W31874   7.968  10.476  11.253  0.0663 -0.1539 -0.0478
15028W        W31875  14.097   3.883   0.035 -0.0857 -0.6544 -0.2406
15029W        W31876  11.186   5.302   9.373  0.2116 -0.0859  0.0493
15030W        W31877  15.548   8.684   3.702 -0.0021 -0.2640  0.1561
15031W        W31878   6.142  10.318  12.557  0.0060  0.3891  0.0558
15032W        W31879   1.042   0.350  11.717 -0.3741 -0.1099  0.0213
15033W        W31880  18.277   8.170  10.470  0.0946  0.1110  0.0834
15034W        W31881  10.832  15.811  12.799 -0.2466 -0.0317  0.1255
15035W        W31882  14.673  14.230  13.893 -0.1672 -0.2112 -0.1020
15036W        W31883  10.773   0.071  11.623 -0.0621  0.0044 -0.2077
15037W        W31884   0.989   0.046  12.085  0.1002  0.0675  0.5495
15038W        W31885  14.334  19.542   3.460  0.1899  0.1224 -0.0711
15039W        W31886   6.953   1.897   2.452 -0.0355  0.0836  0.0611
15040W        W31887  18.270  11.527  13.758 -0.3537 -0.0130 -0.3315
15041W        W31888   1.979  18.767   4.155 -0.2334  0.0557  0.0484
15042W        W31889   8.496   2.279  11.465 -0.1157 -0.1836  0.1296
15043W        W31890  19.359  10.346  11.029 -0.3068 -0.0363  0.1503
15044W        W31891   3.992   3.055   2.762  0.0019  0.4733  0.2999
15045W        W31892  14.288  17.425   2.628  0.0462 -0.2506  0.2307
15046W        W31893   3.902  18.866  11.922 -0.3324 -0.1426  0.0029
15047W        W31894  10.505  17.234  10.330  0.0144  0.2072 -0.2392
15048W        W31895  10.359  11.769  10.368 -0.0594  0.2388  0.0862
15049W        W31896   9.593  16.007   1.926 -0.1754  0.0553 -0.0518
15050W        W31897  16.161  13.008  11.528 -0.1916 -0.0347  0.0879
15051W        W31898  17.804   2.075  11.099  0.0845 -0.0349  0.0766
15052W        W31899  15.516   2.410  12.978  0.0388 -0.1002 -0.0383
15053W        W31900  14.169  10.856   3.930 -0.1979  0.3118  0.1612
15054W        W31901  16.219   2.161  10.283  0.0020 -0.3411 -0.2576
15055W        W31902   2.176  12.191  14.225  0.1414 -0.0544  0.0399
15056W        W31903  14.264   8.268  14.148 -0.0542  0.0284  0.2369
15057W        W31904  16.801   8.868  13.623 -0.1590  0.1489 -0.0505
15058W        W31905  10.690   2.422  14.081 -0.2423  0.0126 -0.1211
15059W        W31906   2.658  14.025   2.147 -0.0766  0.1772 -0.0436
15060W        W31907  16.849   8.407  14.462  0.1945 -0.1464  0.0886
15061W        W31908   2.881   5.182  12.222 -0.0483 -0.0191  0.1974
15062W        W31909   0.317   0.646   1.666 -0.2355 -0.0660  0.0346
15063W        W31910   7.977   7.029   0.415  0.2311  0.1487 -0.0029
15064W        W31911   5.366   0.052   4.395  0.1549 -0.1404 -0.1157
15065W        W31912  15.881   1.793   4.843 -0.0717 -0.0390 -0.2653
15066W        W31913   3.525   8.236  12.926 -0.1192 -0.4815  0.2623
15067W        W31914  15.335   2.204  13.929 -0.0429 -0.0025 -0.0796
15068W        W31915   2.920   9.150  12.280 -0.0178 -0.0011  0.1213
15069W        W31916  16.277   0.200  12.364 -0.0977  0.0600  0.0715
15070W        W31917  15.192   4.604   5.436 -0.1553 -0.1260  0.0274
15071W        W31918  16.739   3.903   4.810 -0.2917  0.3468 -0.2343
15072W        W31919  18.802  13.307   5.575 -0.0147 -0.1204  0.1523
15073W        W31920  15.639   5.536   3.996 -0.0074 -0.0971 -0.1867
15074W        W31921  10.202  15.577   0.363  0.2640 -0.4611  0.0655
15075W        W31922   2.891   1.269   2.331 -0.0237 -0.0525 -0.0369
15076W        W31923   7.335  12.435  10.342  0.2274  0.0555  0.4115
15077W        W31924  16.690   3.205   3.678 -0.1597  0.0794 -0.3001
15078W        W31925  11.524  14.697   3.366  0.0182 -0.0616 -0.1898
15079W        W31926   2.727   2.343   2.959  0.1833  0.3538  0.2013
15080W        W31927  18.062   4.751  10.538 -0.1460 -0.1571  0.1926
15081W        W31928  15.925  15.333  13.897 -0.2774  0.0932 -0.0016
15082W        W31929  16.892   6.224   9.476 -0.0627  0.2448  0.0394
15083W        W31930   5.574   6.482   9.663 -0.1422 -0.1630  0.2821
15084W        W31931  12.205  16.488  13.941  0.1053 -0.0541 -0.1836
15085W        W31932  18.973  18.276  11.430  0.0575 -0.0323 -0.2562
15086W        W31933   3.329  12.166  11.037  0.1348  0.1139  0.1383
15087W        W31934  11.094   8.900   2.636  0.0337 -0.0887 -0.1576
15088W        W31935   9.732  17.655  13.840 -0.0546 -0.0451  0.1556
15089W        W31936  15.328  12.728  14.166  0.2027  0.1823  0.3393
15090W        W31937  10.491  15.183   4.993  0.4197  0.2535 -0.4200
15091W        W31938  13.980   4.270   2.651  0.0271 -0.3117 -0.0926
15092W        W31939  15.413   5.600  14.381 -0.0396  0.1501  0.2002
15093W        W31940  14.544  17.058  11.891  0.0775 -0.2643  0.0313
15094W        W31941   9.530   4.581   1.383 -0.0039 -0.0090  0.0851
15095W        W31942   6.723  17.519  14.551  0.1878  0.4171 -0.0549
15096W        W31943   6.850  16.804   3.174  0.0254  0.3013 -0.1635
15097W        W31944  14.428   3.386  12.033  0.2952  0.3321 -0.0372
15098W        W31945  12.660  14.809  14.189  0.2101  0.1236  0.1527
15099W        W31946   8.897  15.242   2.878  0.0405 -0.2955  0.1114
15100W        W31947  15.983   6.231   4.041 -0.0331 -0.0123 -0.0439
15101W        W31948  10.696   5.519   4.423 -0.0291 -0.1848  0.2597
15102W        W31949  12.884   3.289   2.814  0.0264 -0.1696  0.0305
15103W        W31950   0.629   8.367   0.772 -0.1629 -0.0153 -0.0515
15104W        W31951  16.947   6.584  13.011  0.0624  0.2308 -0.2150
15105W        W31952   2.975   4.975   0.447 -0.0423 -0.0089  0.2056
15106W        W31953   6.884  12.574   2.895  0.0673 -0.1349 -0.0964
15107W        W31954  11.855  10.977   1.901 -0.0986 -0.1209  0.1525
15108W        W31955  18.778   6.421  13.524  0.2801  0.0207  0.1395
15109W        W31956  17.469  15.686  10.265 -0.0258  0.0482  0.0741
15110W        W31957  12.776  18.401  12.742 -0.2725 -0.1501  0.1074
15111W        W31958  14.177   8.144   2.576 -0.3087 -0.1290  0.3011
15112W        W31959  10.097   8.523   0.375 -0.1434 -0.0941  0.0349
15113W        W31960   3.878  10.176   4.864  0.2507  0.1592  0.3264
15114W        W31961  16.107  11.568  14.294 -0.2247  0.0819 -0.1365
15115W        W31962   4.661   8.974   1.274  0.2593  0.1472 -0.0706
15116W        W31963   2.325   7.918   4.329  0.0045 -0.2168 -0.0460
15117W        W31964   9.324   9.960  11.609  0.0103 -0.2711  0.1106
15118W        W31965   4.889   6.084   1.438 -0.1297  0.0492  0.0947
15119W        W31966   0.409  19.204   1.067  0.3703 -0.1219  0.2957
15120W        W31967  18.919  14.680  13.600 -0.1987  0.1132  0.0148
15121W        W31968   6.509   0.039  14.534  0.1633 -0.6300 -0.0560
15122W        W31969  10.028   8.845   4.489 -0.1308 -0.1523 -0.1075
15123W        W31970  19.130  14.247  10.223 -0.2876  0.2256 -0.2255
15124W        W31971  17.678   9.752   0.588  0.0890  0.0227 -0.0167
15125W        W31972  13.794   6.847  13.371  0.1196  0.0487  0.2648
15126W        W31973  14.953  18.508   2.068 -0.1279 -0.0516  0.0877
15127W        W31974  14.376  12.910  13.600 -0.0087  0.1895  0.3928
15128W        W31975  19.219  12.057   5.116  0.0105  0.1949  0.0109
15129W        W31976   0.551  12.718  10.515  0.1649 -0.0927  0.0957
15130W        W31977  16.447   4.545   2.901  0.0473 -0.0116  0.2924
15131W        W31978   6.931   6.344   2.136 -0.1106  0.1836  0.0349
15132W        W31979   5.760  10.903   0.529  0.3704  0.1139 -0.4198
15133W        W31980  10.137   3.227  11.040  0.2060 -0.1252 -0.1883
15134W        W31981  19.018   2.817  12.446 -0.2727 -0.2039 -0.3205
15135W        W31982  13.620   5.945   2.936  0.1766 -0.0548  0.0050
15136W        W31983   9.499  13.550   4.402  0.0535 -0.0124 -0.0105
15137W        W31984   6.984  14.310   3.793  0.2024  0.3757  0.1036
15138W        W31985  10.957   8.057  10.214  0.0791  0.2184  0.3692
15139W        W31986   9.227  19.581   1.474  0.1790  0.0088  0.2088
15140W        W31987   9.006   9.081  13.810  0.0233  0.1438 -0.1770
15141W        W31988   1.097  18.126  12.195 -0.0104 -0.3337  0.1831
15142W        W31989  17.664  11.185  10.877  0.0846  0.4457 -0.3962
15143W        W31990  13.747  10.429  14.580  0.2812 -0.0675 -0.2462
15144W        W31991   5.027   0.131  13.863 -0.5637 -0.0742 -0.0944
15145W        W31992  17.252  11.775   9.470  0.2733 -0.0016  0.0153
15146W        W31993  14.150  16.630  12.756 -0.0405  0.1979  0.2937
15147W        W31994  12.688   3.458   4.340  0.0394  0.2757 -0.0754
15148W        W31995  12.362  12.153   1.665 -0.1680 -0.1722  0.0754
15149W        W31996   9.189  10.822  11.537  0.0298 -0.0243  0.2643
15150W        W31997  19.292  12.723  12.099 -0.0450 -0.2357 -0.0929
15151W        W31998  13.425   3.601  12.179 -0.2417 -0.1913 -0.1523
15152W        W31999   9.016   5.891   0.954 -0.1352 -0.3197  0.0145
15153W        W32000  13.852  19.450  11.448  0.1098 -0.3366 -0.0462
15154W        W32001   6.901   1.096  10.626 -0.1199 -0.0186  0.2182
15155W        W32002   4.250   9.848  13.124  0.0608 -0.0464  0.0449
15156W        W32003   8.593   8.691   1.518  0.2118  0.1548  0.1150
15157W        W32004   1.274  12.346  11.055 -0.0136 -0.0528 -0.1519
15158W        W32005  12.043  13.761  11.660 -0.0375 -0.1573 -0.2279
15159W        W32006  16.009   7.621   0.818  0.2018  0.2721  0.2763
15160W        W32007   0.927   8.329  11.833 -0.0623  0.4193  0.5017
15161W        W32008   0.890   4.270  13.662  0.1220 -0.1114  0.0038
15162W        W32009   1.508   4.795  11.687 -0.1957 -0.3461  0.2241
15163W        W32010  16.994   1.740   1.741 -0.0434 -0.0397 -0.0878
15164W        W32011   5.183  11.583   2.857 -0.2848 -0.1144  0.2502
15165W        W32012  13.575  12.923   9.409 -0.4324 -0.2281  0.3349
15166W        W32013  10.744  18.963   3.699  0.0163  0.1228 -0.0893
15167W        W32014   9.170   7.576   2.901  0.2710  0.0311  0.1860
15168W        W32015   8.693  11.345   3.509 -0.1656 -0.1335 -0.0740
15169W        W32016   5.032  13.103  10.179 -0.2616  0.0358 -0.2202
15170W        W32017   9.988   6.436   5.187 -0.1623  0.2044  0.1060
15171W        W32018  14.977   4.449  12.552  0.1975 -0.2280 -0.3144
15172W        W32019   6.396  13.545  12.322  0.4373  0.3495  0.0687
15173W        W32020   0.958   5.484   4.234 -0.3884 -0.1324 -0.3314
15174W        W32021  13.514  17.664   0.438 -0.1682 -0.4477  0.0313
15175W        W32022  12.966  14.954   2.298  0.0646  0.0181  0.2106
15176W        W32023  18.706   2.030  12.134  0.3534 -0.2823 -0.0321
15177W        W32024  11.602  13.610  13.777  0.0412  0.0684  0.2385
15178W        W32025  14.193  11.077  13.063 -0.1255 -0.2244  0.5963
15179W        W32026  15.963  16.845   3.473  0.1907  0.0238 -0.4383
15180W        W32027  19.476   5.096   2.134 -0.1630  0.0405  0.0373
15181W        W32028   0.273  18.051  10.268  0.0314  0.1430  0.1827
15182W        W32029  19.392  18.411  11.077  0.0385 -0.1011  0.2196
15183W        W32030   9.609   1.106   1.672  0.0378  0.2030 -0.1571
15184W        W32031  15.898   7.836  11.815  0.1541 -0.0617 -0.1879
15185W        W32032   3.506  18.774  13.877 -0.0154 -0.1246 -0.0923
15186W        W32033  18.097  11.617   5.079  0.0678 -0.0615 -0.1011
15187W        W32034  12.800   5.529  10.647  0.3492 -0.0858  0.0320
15188W        W32035   7.264   1.289  12.346 -0.1870  0.2243 -0.0435
15189W        W32036  18.942  18.456  10.838  0.5021 -0.1027  0.3439
15190W        W32037   2.081  15.866  12.479  0.0540 -0.0936  0.1416
15191W        W32038   6.519   3.720  11.965  0.0731  0.0608  0.3612
15192W        W32039  11.880   0.021  12.555  0.0927 -0.2087  0.2465
15193W        W32040  15.617   5.410   1.495 -0.1183 -0.2078 -0.2273
15194W        W32041   3.324   5.939  13.641 -0.0001  0.1880  0.1692
15195W        W32042  14.878   8.671   0.008  0.0289 -0.0144 -0.2263
15196W        W32043  12.254  12.578  13.188 -0.1780 -0.3214  0.1778
15197W        W32044   8.540   5.820   4.100 -0.0167  0.0612  0.2797
15198W        W32045   3.827   4.000  13.894  0.0086  0.1821 -0.0826
15199W        W32046   8.011   7.475   1.625 -0.2347  0.0199 -0.2506
15200W        W32047  10.742  11.122   5.626  0.0847  0.0851 -0.0555
15201W        W32048  15.696   3.713   4.753 -0.1292  0.2294 -0.1968
15202W        W32049  10.336   3.586   3.450 -0.0082 -0.2100 -0.0383
15203W        W32050  12.172   5.201  11.173 -0.0857 -0.4044  0.1357
15204W        W32051   4.538   5.542  13.631 -0.1148  0.2157 -0.2225
15205W        W32052   2.948  17.670   3.551 -0.2320  0.2067 -0.1456
15206W        W32053  18.598  12.398  12.761  0.0955 -0.1458 -0.2735
15207W        W32054  16.781   2.619   2.994 -0.5925 -0.0648  0.0865
15208W        W32055   8.345   2.540   5.307 -0.0124  0.1548  0.1437
15209W        W32056  17.637   2.586  12.004 -0.0084  0.0894 -0.1121
15210W        W32057  12.071  16.068   9.541 -0.0286  0.1642 -0.3271
15211W        W32058   0.637  14.012  11.082  0.3018 -0.0083  0.1862
15212W        W32059   3.654  17.454  10.093  0.1716 -0.0120 -0.0720
15213W        W32060  10.024   2.778   4.583  0.2685  0.3680  0.2609
15214W        W32061   9.828  14.576  13.669 -0.0964  0.2751  0.0338
15215W        W32062   0.195   8.402   2.695 -0.0772 -0.0989  0.4146
15216W        W32063  15.468   1.349  12.855  0.0469  0.2363 -0.1689
15217W        W32064   2.030  13.628  14.589  0.0018  0.1866  0.2799
15218W        W32065   9.834   8.261   0.019  0.1825  0.1414 -0.0821
15219W        W32066   1.703   5.550   0.397  0.2538 -0.1928  0.0613
15220W        W32067  17.835   4.801   3.483 -0.1564  0.1091  0.0118
15221W        W32068   9.626   0.848  13.859 -0.0655  0.1645 -0.0606
15222W        W32069   4.568   0.106  11.476 -0.0483 -0.1757  0.0037
15223W        W32070   6.807   4.695   3.438  0.2004 -0.1963 -0.1050
15224W        W32071  18.069   4.355   1.088  0.0307  0.0374 -0.4043
15225W        W32072  16.461   0.549   2.053 -0.1097  0.0824  0.1024
15226W        W32073  13.810  17.813   1.645 -0.0993  0.3885  0.1722
15227W        W32074   8.747   9.982   3.541  0.1409 -0.0650  0.2588
15228W        W32075   5.656  10.236   3.983 -0.1277  0.0254 -0.0060
15229W        W32076   8.085   6.094   1.265 -0.3612  0.1059 -0.1457
15230W        W32077  13.770  12.153   2.470  0.0241 -0.3737 -0.0635
15231W        W32078  10.563   8.245  13.928  0.1787  0.1455  0.0851
15232W        W32079  14.575   6.429   2.744 -0.0074 -0.0378 -0.0792
15233W        W32080  17.471   4.578   3.002  0.1886  0.0249 -0.2003
15234W        W32081  11.335  18.978  10.732 -0.0349  0.0523 -0.0254
15235W        W32082  18.265   8.213  11.444 -0.1099  0.0395 -0.1795
15236W        W32083  18.094  13.326  10.252  0.4375 -0.0347 -0.0751
15237W        W32084  12.892  18.296   3.021 -0.0670  0.0176  0.1487
15238W        W32085  18.448   7.481   1.664 -0.0862  0.0010  0.2850
15239W        W32086  13.238  16.210   0.278  0.0106 -0.3804  0.1751
15240W        W32087  18.820   0.090   3.226  0.0363  0.1040  0.0257
15241W        W32088   6.607   9.364   2.922 -0.4281  0.0594  0.1828
15242W        W32089   9.277   3.424   2.216  0.0322  0.1216  0.1529
15243W        W32090  13.044  18.340  14.465  0.1326  0.0269  0.1715
15244W        W32091  15.374  16.557  10.843 -0.1556  0.2284  0.2890
15245W        W32092   1.450  10.808   4.639  0.1249 -0.1875 -0.0577
15246W        W32093  13.954   7.286   4.697 -0.0117  0.0903 -0.2075
15247W        W32094   0.524  11.403   5.555  0.1366 -0.0546  0.0053
15248W        W32095   9.747  15.501   5.502  0.1601 -0.1029 -0.0566
15249W        W32096   2.341   7.852   3.367 -0.1519 -0.0054  0.2515
15250W        W32097   7.778   5.709  10.258 -0.0454  0.1660  0.0729
15251W        W32098  15.000   9.322   1.798  0.1376  0.5461  0.1628
15252W        W32099   0.511   5.960   1.051 -0.2906 -0.1957  0.1977
15253W        W32100  12.773   2.202  14.120 -0.2800 -0.0289  0.2172
15254W        W32101   8.496   0.483  14.364 -0.2239  0.2975  0.0377
15255W        W32102   3.764   1.789  14.202  0.0335 -0.0540  0.0093
15256W        W32103   5.225   8.769   0.024 -0.0076 -0.0149  0.1321
15257W        W32104   0.691   5.951   3.450 -0.3198 -0.1262 -0.2848
15258W        W32105  17.052   9.563   3.238 -0.1417 -0.1752 -0.1366
15259W        W32106  11.610   1.212  10.785 -0.1691  0.3743  0.1454
15260W        W32107  17.342   0.707  13.582 -0.0717  0.1801 -0.0602
15261W        W32108  14.208   6.565  11.293  0.0840  0.4091 -0.0691
15262W        W32109   4.074  17.691  11.052  0.0269 -0.0886  0.1344
15263W        W32110   1.305  13.623  11.000  0.0149  0.2597  0.0586
15264W        W32111  11.446   3.332  11.769 -0.2200  0.1455 -0.1277
15265W        W32112   9.704  14.937   3.935  0.0485 -0.0905 -0.1590
15266W        W32113   5.903   8.851  12.823  0.2343 -0.0504  0.0641
15267W        W32114   1.843  16.365   2.246 -0.1491  0.3207 -0.1629
15268W        W32115  11.246   4.457  12.579  0.1334 -0.0311  0.0445
15269W        W32116  13.745  10.144  12.231 -0.0415 -0.0090  0.2103
15270W        W32117   8.115   9.952   1.309 -0.0944  0.1409 -0.2078
15271W        W32118   0.621   6.804   4.008  0.1677  0.0062 -0.2417
15272W        W32119   2.387  17.408  13.373 -0.1713 -0.2236 -0.2241
15273W        W32120  17.296   0.435   4.183  0.0263 -0.1554  0.0632
15274W        W32121  17.242  11.988   2.218 -0.1041 -0.0765 -0.0652
15275W        W32122  16.162  13.254   1.651 -0.0140 -0.2752 -0.2104
15276W        W32123  15.037  18.631  10.738  0.1034 -0.3209  0.1705
15277W        W32124  18.295   2.018   2.063  0.1818  0.0131 -0.3367
15278W        W32125   0.482   6.446   3.251  0.1761 -0.3570 -0.1813
15279W        W32126   0.394  13.764  13.181  0.2812  0.1487  0.3318
15280W        W32127   4.541   8.799  13.683  0.2946 -0.1532  0.0895
15281W        W32128   2.467  10.131   1.517 -0.4483 -0.1022  0.1790
15282W        W32129   5.169  15.551  11.772 -0.1594  0.0659 -0.0264
15283W        W32130   5.068   5.629   1.369  0.1784  0.0829  0.1827
15284W        W32131   5.013   3.850   0.254 -0.1563  0.0142  0.2239
15285W        W32132   4.687  12.038  13.135  0.2492  0.0619  0.0501
15286W        W32133   9.070   3.072  12.788  0.0538  0.0017  0.1900
15287W        W32134  13.518  18.627  14.590 -0.1474  0.1032 -0.0888
15288W        W32135   4.281  18.797   1.915  0.0068 -0.1557  0.2591
15289W        W32136   7.834   1.842   1.253 -0.0231  0.2025  0.0957
15290W        W32137   9.203   9.682  13.531 -0.0205 -0.0474  0.3550
15291W        W32138  18.359   2.804   4.781 -0.2485  0.0126 -0.2611
15292W        W32139   9.524   1.925   0.701 -0.0250  0.2797  0.2919
15293W        W32140   3.857  16.666   3.030  0.0783  0.3596  0.0197
15294W        W32141  19.349   8.950   0.799 -0.1819  0.0171  0.2580
15295W        W32142   8.931  17.696  12.103 -0.2512 -0.1332  0.0637
15296W        W32143   3.097  18.428  14.146 -0.0414 -0.1317 -0.0399
15297W        W32144   0.385  14.619   3.616  0.3641  0.2401 -0.1776
15298W        W32145   5.463   1.522  10.725 -0.0019 -0.1814  0.1454
15299W        W32146  18.781   5.145   3.362 -0.2485 -0.2027  0.2111
15300W        W32147  15.133   8.305   4.252  0.0932  0.2354 -0.3087
15301W        W32148  13.484  15.485   5.108  0.1487  0.1666  0.0191
15302W        W32149   4.235   2.471  13.051  0.3197  0.2419  0.0496
15303W        W32150   1.522   9.399   1.220  0.0507 -0.0846  0.1547
15304W        W32151  14.932   7.443   0.825 -0.1008 -0.0531  0.1407
15305W        W32152   3.136   0.062   3.380 -0.1679  0.3502  0.0615
15306W        W32153  12.711  15.422   1.563 -0.3069 -0.0891 -0.2330
15307W        W32154  16.798  11.547  13.695 -0.1005 -0.3813  0.3647
15308W        W32155  19.136   5.219  13.431  0.3138  0.1288  0.2044
15309W        W32156  11.179   5.235   3.517  0.0599 -0.0515 -0.1287
15310W        W32157  10.235  13.847   3.387  0.2310 -0.0998  0.0790
15311W        W32158   8.765  18.850   1.675 -0.1606  0.0355 -0.0840
15312W        W32159   6.203  15.255   0.744  0.0416  0.0533  0.0465
15313W        W32160   6.176   3.236  11.667  0.0079  0.2348  0.1666
15314W        W32161   1.654  16.355   1.332 -0.2808  0.2652 -0.0451
15315W        W32162  17.201  13.841   4.678  0.1530 -0.1971  0.2453
15316W        W32163   6.228  18.884   0.311  0.3851 -0.1332  0.1136
15317W        W32164  18.198   6.770   4.822  0.2338 -0.0330  0.2629
15318W        W32165  11.215   2.046  11.317  0.1722  0.3386  0.0897
15319W        W32166   2.997   8.707  14.389  0.1589 -0.1208 -0.4054
15320W        W32167  11.563  10.150   2.772  0.0075 -0.2627  0.1094
15321W        W32168  14.528  17.166   3.790  0.0035 -0.2773 -0.1990
15322W        W32169  14.157   5.999  13.830  0.0063  0.0933  0.1452
15323W        W32170  16.108   4.309   4.945  0.0391 -0.1835 -0.1002
15324W        W32171  15.513  18.133  12.291  0.3918 -0.4610  0.2981
15325W        W32172  10.374  16.716  10.268 -0.2793  0.0674  0.0387
15326W        W32173  17.718  10.090   4.951 -0.1055 -0.1164  0.1101
15327W        W32174  13.275   0.761  13.435  0.0271  0.3352 -0.2414
15328W        W32175  15.305  10.625  12.544  0.0236 -0.1789 -0.2416
15329W        W32176  19.451  15.951   4.902 -0.0862  0.4707  0.1422
15330W        W32177   8.183   8.745  13.842 -0.0891 -0.2042  0.0362
15331W        W32178   5.196  11.827   0.600  0.0508 -0.0751 -0.1514
15332W        W32179  13.048  18.370   2.048  0.1657  0.0427 -0.1496
15333W        W32180  17.018  10.144   1.138  0.0398 -0.2255  0.0421
15334W        W32181   6.854  12.700   0.954  0.1341 -0.1416  0.0665
15335W        W32182   3.223   3.250  14.274  0.3669 -0.0090 -0.1958
15336W        W32183   3.583   1.071   3.519 -0.0637  0.1849  0.0528
15337W        W32184   4.939   6.279   4.547 -0.1472  0.1193  0.3693
15338W        W32185  19.609  13.220   3.249  0.2157  0.1124  0.2946
15339W        W32186  18.528  16.054   4.053  0.1848  0.0689  0.2287
15340W        W32187  18.840  13.783  13.512  0.1188  0.2449  0.2862
15341W        W32188   9.040   3.679  11.687  0.1265  0.0747  0.3148
15342W        W32189   1.538  14.884  14.401  0.1802 -0.0565 -0.1273
15343W        W32190   6.032   0.505   1.518  0.1704  0.1400 -0.1761
15344W        W32191  19.144   0.992  10.842  0.3083  0.1751 -0.0069
15345W        W32192   8.213   7.008   3.772 -0.1988  0.0863 -0.1992
15346W        W32193  17.804  16.045   3.647  0.2536 -0.1748  0.0962
15347W        W32194   0.970   8.189  13.182 -0.0251 -0.1025  0.0395
15348W        W32195  13.030   0.631   1.210 -0.1413  0.1131  0.0320
15349W        W32196   1.160   2.949   4.744  0.2100 -0.1082 -0.1352
15350W        W32197   2.143  12.169   1.380  0.3207  0.0292  0.0017
15351W        W32198  12.303  16.329   0.429  0.2975 -0.1229  0.0268
15352W        W32199  15.578  13.831   3.768  0.0200  0.2347  0.2147
15353W        W32200  13.758   4.013   1.310  0.3086  0.0117  0.0148
15354W        W32201  19.281  16.992   4.320 -0.2482 -0.0659  0.0827
15355W        W32202   3.543  10.500  14.144 -0.1236 -0.0186  0.0469
15356W        W32203  10.663  18.133  11.416 -0.2057 -0.1298 -0.0629
15357W        W32204  10.110  14.231   5.398  0.1433  0.2663 -0.0580
15358W        W32205  12.676  12.131  14.399 -0.0426 -0.2286 -0.1442
15359W        W32206   8.772  13.985  13.270 -0.1836  0.0782 -0.1299
15360W        W32207  18.484   6.580   1.914 -0.1634 -0.2082  0.3180
15361W        W32208   2.192  14.718   0.237 -0.1698 -0.0601 -0.1677
15362W        W32209   3.823  10.973  11.475  0.0133 -0.2337  0.1008
15363W        W32210  17.381   8.794  13.621  0.0552  0.2534  0.0362
15364W        W32211   3.099  15.856   1.326  0.0257  0.0976  0.1528
15365W        W32212   3.787   1.063   2.548 -0.0094 -0.1399  0.2565
15366W        W32213   9.570   6.992   2.155  0.1812 -0.1092  0.6195
15367W        W32214  12.911  18.633  12.010 -0.0457  0.0149  0.2307
15368W        W32215   4.662   2.361  12.226 -0.0069 -0.1527  0.1441
15369W        W32216   4.737  10.533   4.681 -0.0148  0.2398 -0.1634
15370W        W32217  15.747   5.586  12.969 -0.3684 -0.0304  0.1110
15371W        W32218   7.391   9.256  10.775 -0.1790  0.0101  0.2421
15372W        W32219   8.479  13.330   1.214 -0.0573  0.2662 -0.0310
15373W        W32220   6.963   5.515   2.389  0.3146  0.0461 -0.1129
15374W        W32221  11.413  14.292  14.556  0.0707  0.2944 -0.3009
15375W        W32222  12.086   9.172  14.543 -0.0692 -0.3341  0.0256
15376W        W32223   9.615   4.408  10.980 -0.1964  0.3529 -0.1743
15377W        W32224  13.194  16.653  14.484  0.2204 -0.3258  0.0590
15378W        W32225   4.954   8.092   0.361 -0.0925 -0.2799  0.2997
15379W        W32226  15.228   8.876  12.630 -0.0055 -0.3382 -0.0476
15380W        W32227   6.372  17.607   3.957 -0.0258 -0.1921  0.1871
15381W        W32228   1.300  18.203   3.946  0.0351  0.0668  0.0363
15382W        W32229   9.111   0.808  12.625 -0.3150  0.1090  0.0019
15383W        W32230   1.896   9.162   1.812  0.1182 -0.0132 -0.1813
15384W        W32231   2.379  17.904  10.640 -0.1814 -0.0336 -0.2159
15385W        W32232  11.447   3.836   1.905  0.1924 -0.1084 -0.0193
15386W        W32233  18.044  15.997   4.084 -0.0550 -0.0123 -0.0533
15387W        W32234   6.698  11.189  10.347  0.2615  0.0383 -0.0158
15388W        W32235   2.688  11.001   3.977  0.1505 -0.0739  0.0496
15389W        W32236   6.438  12.670   9.411  0.3636  0.0128 -0.3545
15390W        W32237  11.324   0.830   0.489  0.0587 -0.1997  0.1004
15391W        W32238  18.451  10.233  13.352  0.2278 -0.3069  0.1043
15392W        W32239  11.997  12.849   5.307  0.4946 -0.0972 -0.0338
15393W        W32240  12.655  16.793   2.777 -0.0349  0.0953  0.0040
15394W        W32241  14.118  18.990  11.823 -0.0823 -0.2407 -0.0062
15395W        W32242  14.108  10.772  14.486  0.0099  0.1395 -0.0433
15396W        W32243  17.545   5.131   3.729 -0.0355  0.1000 -0.5964
15397W        W32244   7.623  12.730  14.368  0.0823 -0.2476  0.2632
15398W        W32245  18.241  11.936   0.578  0.0107  0.0692 -0.0907
15399W        W32246  10.666  13.762   3.527 -0.1767 -0.1991 -0.1846
15400W        W32247  16.604  10.523   0.532 -0.2631  0.1729 -0.0902
15401W        W32248   5.944   8.412  14.287  0.2207 -0.2018 -0.6281
15402W        W32249  11.925   3.181   3.115  0.0214  0.0213  0.0573
15403W        W32250   1.102   1.876  11.771  0.4366 -0.0692  0.0247
15404W        W32251   8.939  18.214   3.445 -0.1553  0.1301  0.0269
15405W        W32252  17.821  17.086  11.300  0.0513  0.1281 -0.0761
15406W        W32253  11.350  14.412  10.730  0.0831  0.0329  0.0058
15407W        W32254  12.715   2.417  12.638  0.2102 -0.1764 -0.2480
15408W        W32255   3.746  18.211  12.796  0.1488 -0.0545  0.1805
15409W        W32256   3.179   9.158   4.174 -0.2077 -0.0204 -0.0437
15410W        W32257   3.409   9.730   3.391 -0.0688 -0.0383  0.1276
15411W        W32258   3.284  12.535   0.569  0.0290 -0.0112 -0.0924
15412W        W32259  19.389  12.799   4.359 -0.2528  0.1570 -0.0561
15413W        W32260   2.107   9.817  13.086  0.0378  0.4275 -0.3318
15414W        W32261   8.024  16.465  12.166  0.1757 -0.1234 -0.2247
15415W        W32262   3.049  13.216   2.994  0.0632 -0.3614  0.1912
15416W        W32263   5.020   1.621  11.900 -0.0198  0.0609 -0.0206
15417W        W32264  18.821   3.029  13.893  0.0264  0.1397  0.0944
15418W        W32265  11.242  10.661  13.802  0.1673 -0.0078 -0.2498
15419W        W32266  18.585   1.078  11.536 -0.3939  0.0761 -0.1474
15420W        W32267   9.914  11.242   2.814  0.2369  0.0289  0.0096
15421W        W32268  17.695   0.994   3.019 -0.1313 -0.0578 -0.0086
15422W        W32269   3.810   5.689   3.328  0.0989  0.6486  0.4359
15423W        W32270  10.060  10.803   4.182 -0.3533  0.1385  0.0758
15424W        W32271   9.057  16.282   4.824 -0.2398  0.0537 -0.0290
15425W        W32272  14.959  11.589  10.234 -0.4327 -0.2013 -0.0668
15426W        W32273  10.505   7.561   3.889 -0.0408 -0.3336 -0.1756
15427W        W32274  18.081  10.951  11.965 -0.1639  0.1527 -0.0360
15428W        W32275  12.596   8.977   1.519 -0.1577  0.0572 -0.0319
15429W        W32276   2.417  13.711  12.388 -0.0068 -0.1245  0.1920
15430W        W32277   6.534   3.849  11.348  0.0708 -0.1192  0.4257
15431W        W32278  18.910  16.567  10.181 -0.0198 -0.2473  0.2275
15432W        W32279   5.792   4.788  13.078 -0.1181 -0.1116  0.5264
15433W        W32280  19.100  18.734  12.251 -0.2849 -0.0476 -0.0649
15434W        W32281   9.805   6.285   3.330 -0.0868 -0.3100  0.0021
15435W        W32282  18.479  11.199   3.890 -0.1493  0.0294 -0.1029
15436W        W32283   4.386  13.225  13.559 -0.3196  0.1018 -0.0547
15437W        W32284   7.947  17.736  10.190 -0.0657 -0.0146 -0.3774
15438W        W32285   2.424   5.389  14.521 -0.0984 -0.2989 -0.2258
15439W        W32286  10.741   2.947   2.382 -0.1637 -0.1447 -0.1125
15440W        W32287   1.687   6.518  12.882 -0.3123  0.0488 -0.2184
15441W        W32288  18.608   0.233   2.254  0.1908  0.0260  0.1847
15442W        W32289  14.619  19.011  13.496  0.0723 -0.3174  0.1345
15443W        W32290  19.241   5.011   0.803  0.3334 -0.1690 -0.0483
15444W        W32291  12.846  17.783  12.654  0.0529 -0.0549 -0.3465
15445W        W32292   3.358  10.208   4.735  0.2809 -0.3609  0.0980
15446W        W32293  17.779   9.446   0.938 -0.3043 -0.0256 -0.2277
15447W        W32294  12.574   7.370   0.945  0.3104  0.0110 -0.0435
15448W        W32295  18.036   0.023  13.405  0.0439  0.1471  0.4797
15449W        W32296  19.014   7.684  13.270 -0.2514  0.0688 -0.2366
15450W        W32297  12.713   3.649   4.796  0.3383 -0.2864  0.1694
15451W        W32298  15.415  10.754   4.491  0.1380 -0.0070  0.1042
15452W        W32299  18.945  11.912   3.658 -0.2883 -0.2931  0.0718
15453W        W32300  10.696   5.277   3.112  0.1130 -0.0871  0.2310
15454W        W32301  13.197   1.196  12.782 -0.1877 -0.1819  0.0866
15455W        W32302   8.804   7.822  12.286  0.0913 -0.1396  0.0479
15456W        W32303  19.588   8.983   2.044  0.2417  0.2337  0.1834
15457W        W32304  13.861  19.026   0.847 -0.0606 -0.0001 -0.1279
15458W        W32305  15.436  14.046   4.519 -0.0545 -0.1270  0.1294
15459W        W32306   0.337  17.675  14.119  0.1301 -0.4022  0.1767
15460W        W32307   5.033  13.211   2.997 -0.3173  0.0186  0.3277
15461W        W32308  18.892   3.720  12.378  0.3366  0.0885  0.0903
15462W        W32309   7.733   6.153  10.479  0.0243  0.0102  0.0907
15463W        W32310  14.926   8.137   2.972 -0.2481 -0.1179 -0.3008
15464W        W32311  14.911   1.622   4.098 -0.0801  0.0141  0.0445
15465W        W32312   7.397   0.212  12.799 -0.2611  0.0918  0.4193
15466W        W32313  10.248   3.191  12.580  0.0081  0.3114  0.1572
15467W        W32314  18.757   1.992   1.894 -0.1648 -0.1667  0.2319
15468W        W32315  13.318  10.096   0.803  0.0621  0.0647 -0.1797
15469W        W32316  17.728   8.434  11.229  0.2173 -0.0222 -0.3058
15470W        W32317   8.003   0.102   3.035  0.1236  0.0065  0.2492
15471W        W32318   0.111   0.701  12.880 -0.1131  0.2227 -0.0735
15472W        W32319  16.371  16.681   0.201 -0.2101 -0.0846  0.0440
15473W        W32320   9.468   7.831   2.171  0.0994 -0.0591 -0.0101
15474W        W32321   7.508   6.770   0.464  0.1239 -0.0488 -0.1793
15475W        W32322   1.525   5.761  13.988  0.3040 -0.0194 -0.3724
15476W        W32323  10.927  12.788   2.658 -0.4158 -0.2915 -0.0187
15477W        W32324   4.260   6.520   0.794  0.1857 -0.0779 -0.0195
15478W        W32325   7.351   1.372   3.543 -0.1994 -0.0882  0.3262
15479W        W32326   0.311  15.424  10.109  0.3609  0.2444  0.0098
15480W        W32327   6.411   4.883  10.349  0.0782 -0.0722 -0.0814
15481W        W32328   4.120  10.801   2.404  0.2222  0.2538  0.0648
15482W        W32329   2.339   3.330   2.451  0.0599  0.0151  0.0221
15483W        W32330  18.847   4.614   4.662 -0.0576 -0.4104  0.1361
15484W        W32331  13.363   0.866   1.802  0.1321  0.1642 -0.0019
15485W        W32332  14.575   0.635   2.188  0.0233  0.1000 -0.4819
15486W        W32333   5.765  11.121  10.452  0.0192 -0.1349  0.0942
15487W        W32334  16.655   7.515   2.147  0.2589 -0.2001 -0.0597
15488W        W32335   3.508   9.436   0.324  0.0838 -0.1844 -0.2151
15489W        W32336  10.090   0.149   2.838  0.4092  0.0580  0.1020
15490W        W32337  18.288  13.419   5.519  0.1622 -0.3882  0.0889
15491W        W32338   3.820  11.073   3.365  0.0090 -0.0967  0.1262
15492W        W32339  13.004  12.990  11.118 -0.2063 -0.2582  0.0162
15493W        W32340   5.798  16.238  11.754 -0.0225 -0.1683 -0.4791
15494W        W32341  14.655   2.827   1.450 -0.3882  0.0534  0.2845
15495W        W32342  13.152  11.619   5.433 -0.1560 -0.0672  0.1668
15496W        W32343  19.476  10.013   3.476 -0.2244 -0.0540 -0.0741
15497W        W32344   4.975  11.002  11.256 -0.1714  0.2114  0.2520
15498W        W32345   7.725   7.600  11.690 -0.0333  0.2461  0.3871
15499W        W32346  10.992   2.849   4.256  0.3399 -0.4811 -0.1653
15500W        W32347   7.153  13.972   2.857 -0.0197  0.1566  0.0752
15501W        W32348  18.826  13.573  10.531  0.1582 -0.0712 -0.3441
15502W        W32349  14.194   7.729  14.314  0.0894  0.3236 -0.2240
15503W        W32350  13.074   0.664  12.947 -0.2572 -0.0196 -0.2207
15504W        W32351  12.478  11.373   3.622 -0.1687 -0.0439  0.1651
15505W        W32352  11.601  11.478  13.858 -0.2011  0.0932 -0.2133
15506W        W32353   9.255  17.961  13.816 -0.1014  0.1662 -0.5099
15507W        W32354  11.680   8.749  13.633  0.0242 -0.1643 -0.2271
15508W        W32355   1.742   5.201   1.632 -0.0105  0.0685 -0.1521
15509W        W32356   8.921   8.117   5.091  0.1890  0.1541  0.1797
15510W        W32357  13.617  14.670   2.016 -0.1024  0.1185  0.3273
15511W        W32358   4.208   1.868  10.735 -0.0383 -0.1253 -0.0154
15512W        W32359   5.459   3.297   2.260  0.1429  0.3540  0.0775
15513W        W32360   4.562  10.513   2.314 -0.0154 -0.0126 -0.0970
15514W        W32361   9.159  19.490  13.180 -0.2453  0.1393  0.3592
15515W        W32362  12.505  13.292  10.888  0.0426 -0.0250 -0.3000
15516W        W32363  13.441  10.951  11.622 -0.3608  0.0869  0.3412
15517W        W32364   7.314   0.833   3.123 -0.0725 -0.1432 -0.0251
15518W        W32365  11.693  12.071   2.457  0.0225  0.3582 -0.1245
15519W        W32366   4.786  11.126  10.800 -0.2364 -0.1180 -0.3875
15520W        W32367   5.623   9.302  13.403 -0.2786  0.1571 -0.1329
15521W        W32368  16.865  11.882  12.981 -0.3140  0.2987 -0.0498
15522W        W32369  15.445   7.154  12.167  0.1577 -0.0793 -0.3889
15523W        W32370   4.022  19.206   3.254 -0.2836  0.1905  0.1600
15524W        W32371  10.777   5.034   2.324  0.1881 -0.1421 -0.1039
15525W        W32372   5.472   7.936  14.196 -0.0675  0.0435  0.1005
15526W        W32373   8.514  16.224   1.918 -0.1066 -0.0312  0.3970
15527W        W32374  12.422  16.403   3.489  0.4774  0.4547 -0.2554
15528W        W32375   4.492   0.401   0.919  0.1073 -0.0697  0.4111
15529W        W32376  14.750   7.155  12.616  0.2573 -0.2190  0.3308
15530W        W32377  17.127   1.515   0.705 -0.0170 -0.1307  0.1457
15531W        W32378  16.976  18.474   4.304  0.0605  0.4186  0.2213
15532W        W32379  12.554   7.124   1.812 -0.1535  0.0043  0.1000
15533W        W32380  14.289  11.311   2.591 -0.1985 -0.0077 -0.2853
15534W        W32381   8.368   7.724   1.298 -0.0690  0.4342  0.2272
15535W        W32382  17.960   3.607  11.213  0.2697 -0.1636  0.0229
15536W        W32383  19.019  14.724   3.989 -0.0225  0.1239  0.2507
15537W        W32384   2.622  10.230  12.874 -0.2244 -0.2069 -0.0661
15538W        W32385   3.511  12.863  13.182  0.3573  0.1126 -0.0147
15539W        W32386  15.353  12.328  11.351 -0.1957  0.2783  0.1319
15540W        W32387   3.144  11.421   4.710 -0.6357  0.0794  0.0767
15541W        W32388   6.167   2.708   1.881 -0.0872  0.2728  0.0537
15542W        W32389  15.852  19.417  10.481  0.0684  0.1573 -0.2925
15543W        W32390  17.045   0.207   0.411 -0.1755 -0.2096 -0.1265
15544W        W32391   3.145   7.861   3.838 -0.2053  0.1449  0.1319
15545W        W32392  17.384   5.056   3.228  0.2519 -0.2267 -0.0186
15546W        W32393  10.972  16.119   1.953 -0.1417  0.0844  0.0710
15547W        W32394   7.997   6.536   1.330 -0.0439 -0.0712  0.0592
15548W        W32395   3.819  12.038   4.875  0.0141 -0.0290 -0.4713
15549W        W32396  10.188  10.572  10.617 -0.2797 -0.0256 -0.2317
15550W        W32397   5.907   0.075   3.582 -0.1199  0.0630 -0.1741
15551W        W32398   7.016   0.857  14.303 -0.2837  0.0899 -0.4621
15552W        W32399  13.053  15.185   3.946 -0.0051  0.1410  0.0733
15553W        W32400   5.566   4.310   2.768 -0.0252  0.3312 -0.0316
15554W        W32401  11.574  10.647  10.686  0.2668 -0.2047 -0.0692
15555W        W32402  11.591  16.685   1.289 -0.2590  0.2251  0.1008
15556W        W32403   8.708  11.152  10.878 -0.2617  0.3365  0.1152
15557W        W32404  14.210  19.372   1.782  0.1011 -0.0054 -0.0769
15558W        W32405  19.030  10.329   4.532 -0.2306  0.0035 -0.0044
15559W        W32406   9.473  14.815  11.262  0.3665 -0.1446 -0.0789
15560W        W32407  18.982  17.778  11.953  0.2078 -0.3670 -0.1445
15561W        W32408  11.277  11.036  13.074 -0.2203  0.0639 -0.2106
15562W        W32409  15.361  16.409  11.422 -0.0639 -0.0393 -0.0902
15563W        W32410   3.371  13.497   3.255  0.0760  0.1196  0.0245
15564W        W32411  15.151  10.517   1.218 -0.0370 -0.0338 -0.1821
15565W        W32412  10.122  17.264   1.902  0.0250 -0.0180 -0.0175
15566W        W32413   5.988   4.002  14.400  0.0090  0.2465  0.0273
15567W        W32414   3.774   4.908   2.752  0.0262 -0.1975  0.3109
15568W        W32415  13.686   7.219  13.015 -0.0487  0.1414 -0.1781
15569W        W32416  18.276  17.376  10.416  0.3960 -0.1042  0.1039
15570W        W32417   5.728   2.630   0.332 -0.2178  0.2071 -0.0045
15571W        W32418  16.275   9.387  12.973 -0.1183 -0.0158 -0.2214
15572W        W32419  15.312   2.857  12.113  0.3195 -0.2962 -0.0432
15573W        W32420  13.695  17.964   4.504  0.2685  0.2570 -0.1108
15574W        W32421   2.915  10.166   4.536  0.2026  0.2966  0.1967
15575W        W32422  16.582   2.995   2.194  0.1466  0.2621 -0.2314
15576W        W32423  18.027  17.038  10.751  0.1253 -0.2038  0.2471
15577W        W32424  14.795   9.668   2.556  0.0798  0.1878 -0.4335
15578W        W32425   8.494  19.044   4.076  0.2472  0.0784 -0.0613
15579W        W32426   2.758  15.625  11.939  0.1982 -0.0755 -0.0728
15580W        W32427   5.722  15.355   2.596 -0.2296 -0.4661 -0.2040
15581W        W32428  15.524  11.023   3.971  0.1725  0.1655  0.0008
15582W        W32429  16.454  14.870   1.658 -0.0453  0.0930 -0.2458
15583W        W32430   5.906  13.296  13.595 -0.2187  0.2037 -0.0308
15584W        W32431   6.488  14.721   0.021  0.0375  0.5536 -0.1311
15585W        W32432   9.356  18.294   1.672  0.1503 -0.2063  0.1334
15586W        W32433   0.358  14.801  12.202  0.3066 -0.3140 -0.1012
15587W        W32434   5.267   7.283  13.376 -0.0432 -0.1738  0.0668
15588W        W32435  13.575   9.275  13.757 -0.1057 -0.2687 -0.0850
15589W        W32436   3.401  10.544  13.209 -0.1854  0.0725  0.0610
15590W        W32437  17.338   7.759   0.866  0.0163 -0.0348 -0.1681
15591W        W32438  12.438  16.023  11.379  0.1562 -0.0234 -0.1112
15592W        W32439  10.703   2.574   3.924  0.2993  0.0636 -0.2529
15593W        W32440  18.987  10.141  11.762 -0.0766  0.0197  0.0746
15594W        W32441   7.528   2.370  11.202  0.0691  0.1561  0.0753
15595W        W32442  10.613  14.960   5.517 -0.0936  0.0555  0.1709
15596W        W32443  13.021   7.502  11.130 -0.1447 -0.3918  0.0186
15597W        W32444  13.249  11.589  13.750  0.1038 -0.1195 -0.3406
15598W        W32445   6.837  11.409  14.458  0.0805 -0.4251  0.2105
15599W        W32446  15.422  11.087  12.202 -0.0100  0.0644 -0.0556
15600W        W32447   9.843   0.183   4.503  0.0250 -0.2659  0.2122
15601W        W32448   3.032   4.873   3.357  0.0065  0.1800 -0.2369
15602W        W32449   5.708   2.134  12.323 -0.0463 -0.1975 -0.0592
15603W        W32450   2.430  16.028  13.719  0.0620 -0.0226 -0.1908
15604W        W32451  11.155   5.003  11.328 -0.0785  0.0807 -0.2712
15605W        W32452  12.815   2.724  12.075 -0.2525 -0.1165 -0.3030
15606W        W32453   6.766   4.105  12.161  0.1036 -0.0586 -0.3146
15607W        W32454   6.704  12.552   4.099 -0.0331  0.2245 -0.2693
15608W        W32455   7.455  11.713   0.737 -0.2974 -0.1271 -0.0458
15609W        W32456   5.855  14.719  13.806 -0.0577  0.0216  0.2731
15610W        W32457   8.794   2.271  12.911  0.0760  0.1469  0.1415
15611W        W32458   5.034  14.918   0.441  0.3792  0.1307 -0.0867
15612W        W32459  14.058   5.413  11.605 -0.2843 -0.0883 -0.0049
15613W        W32460  13.158  13.682   2.703 -0.1374 -0.0725 -0.1373
15614W        W32461  13.921  14.591  11.681 -0.2419 -0.2249  0.2824
15615W        W32462  13.584   2.073   5.173 -0.0351 -0.0657  0.1019
15616W        W32463   8.381  13.709   4.338  0.1800  0.0266  0.0112
15617W        W32464  13.290  11.381  11.785  0.0585 -0.0928 -0.3059
15618W        W32465  16.483  18.194  11.641 -0.3260  0.1431 -0.0027
15619W        W32466   6.742   5.703   5.330  0.0504  0.1701  0.1095
15620W        W32467   1.352   0.383   1.785 -0.4878 -0.1929  0.1316
15621W        W32468  16.091  19.051  11.385 -0.0806 -0.1613 -0.1635
15622W        W32469  14.935  11.364   4.508 -0.3668 -0.0221 -0.1438
15623W        W32470  14.368  14.151  10.139 -0.0143  0.1418  0.2001
15624W        W32471   7.377   0.315   3.648  0.0400  0.0369  0.0259
15625W        W32472   2.323  16.285   4.076  0.1302  0.2731 -0.1884
15626W        W32473  18.494   1.539  10.697  0.0414  0.1897  0.2014
15627W        W32474  19.010  13.610  14.126  0.0690  0.0227  0.1864
15628W        W32475  13.784  11.437   5.209 -0.4906  0.1248  0.0329
15629W        W32476  11.164  14.942   2.098  0.3019 -0.0834  0.0356
15630W        W32477   7.064  11.436   1.562 -0.0834 -0.0894 -0.3551
15631W        W32478   3.427  19.315  14.109  0.1385 -0.0560 -0.2267
15632W        W32479   7.134  18.271  10.278 -0.1188 -0.1820 -0.0009
15633W        W32480   8.666  12.904   9.266 -0.0255 -0.0177 -0.1512
15634W        W32481   3.952   4.686  11.680  0.1386  0.3947 -0.1215
15635W        W32482  18.235   4.285  10.668 -0.1902  0.1152 -0.4358
15636W        W32483   9.484   3.906   2.925  0.3052  0.2334  0.1699
15637W        W32484  18.743  11.318  13.847  0.4441  0.0859 -0.1154
15638W        W32485   7.567  13.604  12.419 -0.0934 -0.2035 -0.0663
15639W        W32486   9.880   7.649   4.552 -0.1907 -0.0658  0.2208
15640W        W32487  17.402   5.426  13.305  0.0566  0.1313 -0.0854
15641W        W32488  12.545  19.528  12.352 -0.0168 -0.3697  0.2427
15642W        W32489   5.782  18.781  11.106  0.1987  0.1154 -0.1915
15643W        W32490  16.387   5.118  13.880  0.3769 -0.0606 -0.0579
15644W        W32491   1.096   8.476   3.123 -0.2614 -0.2762 -0.0323
15645W        W32492   8.100   1.730   0.521  0.0170  0.4046  0.0813
15646W        W32493  10.114  15.033   1.132 -0.0995  0.0693 -0.0188
15647W        W32494  10.248  14.637  12.359 -0.0560  0.0211  0.1622
15648W        W32495  14.030  15.965   9.893 -0.2044 -0.0514 -0.2129
15649W        W32496   1.193  18.786  10.834  0.3942  0.1606 -0.1098
15650W        W32497  13.166  15.965   4.363 -0.1172  0.2610  0.2740
15651W        W32498  17.172   2.537   4.248 -0.2039 -0.0408  0.1550
15652W        W32499  10.958   4.064  10.537 -0.0086 -0.2346 -0.0493
15653W        W32500   7.373   3.892  11.531 -0.1786 -0.1601 -0.4619
15654W        W32501  15.517   1.182   3.736 -0.0653  0.0272  0.1569
15655W        W32502   8.663   9.217  11.566 -0.1362 -0.1299  0.4139
15656W        W32503  19.629   3.061   0.547 -0.0534 -0.2025  0.0185
15657W        W32504  19.335  16.553   3.082  0.0541 -0.3088 -0.5740
15658W        W32505  19.127  11.325   3.194 -0.0693  0.1019 -0.2225
15659W        W32506  18.492  11.179   1.124 -0.0233 -0.4012 -0.0424
15660W        W32507  16.411  15.477  11.893 -0.0186 -0.1800  0.0291
15661W        W32508  10.253   3.176  11.988 -0.0800  0.3129  0.1309
15662W        W32509   6.405  19.025   0.779 -0.0879 -0.1552 -0.2170
15663W        W32510  12.374   7.110  12.824 -0.1963 -0.3954 -0.0840
15664W        W32511  14.698  18.026   2.022  0.1718  0.2085 -0.1819
15665W        W32512  14.216  18.366   1.315  0.0944  0.0569  0.0835
15666W        W32513  19.470  19.007  10.262 -0.3931 -0.1243  0.3982
15667W        W32514  10.396   2.419  10.114  0.1132  0.3405 -0.3816
15668W        W32515   2.344   3.530  13.053 -0.1671  0.3118 -0.0016
15669W        W32516  15.089  15.124  10.490  0.1422 -0.1860 -0.0082
15670W        W32517   3.735   7.246   0.296 -0.3417  0.1690  0.2573
15671W        W32518  17.662  13.909  13.526  0.2644  0.1710  0.1044
15672W        W32519  17.905  14.077   2.415  0.3558  0.2528 -0.4472
15673W        W32520  13.344  10.112   5.032  0.1129 -0.3787 -0.0690
15674W        W32521   2.568  13.231   3.858  0.4134  0.0518 -0.1680
15675W        W32522   4.691   3.987  10.596 -0.0501 -0.1204 -0.0633
15676W        W32523   5.992  16.823   0.220  0.4004 -0.0374  0.2561
15677W        W32524   5.626  16.119   9.923 -0.2738 -0.1159  0.1058
15678W        W32525   8.458  17.665   0.335  0.0405 -0.1174 -0.0854
15679W        W32526  17.539   6.575   0.632 -0.0615  0.2625 -0.1641
15680W        W32527   9.021   5.645   1.416  0.1413 -0.0658  0.0519
15681W        W32528   5.739   0.799  10.231  0.0715 -0.2071  0.1249
15682W        W32529   5.211   3.107  13.364  0.0948 -0.1093  0.2055
15683W        W32530   2.449   6.170   2.317 -0.1174 -0.0648 -0.0608
15684W        W32531  18.359   8.014   5.181  0.3305 -0.0183  0.1385
15685W        W32532   7.168  13.913  12.380  0.1528  0.0461  0.1642
15686W        W32533   9.405  19.297   1.032  0.0091 -0.0809  0.0725
15687W        W32534   2.077   4.233   0.699 -0.1389  0.1140  0.1731
15688W        W32535   4.039   3.321   1.090  0.1575  0.1696 -0.0578
15689W        W32536  13.807  15.733   1.609  0.0633 -0.0750  0.2222
15690W        W32537   6.088   3.273   4.142 -0.2037 -0.0224 -0.1237
15691W        W32538  14.661  18.482  13.835  0.1242 -0.4352 -0.0518
15692W        W32539   1.581  19.538  14.316  0.0616  0.0153  0.0009
15693W        W32540   2.530  10.285   2.005 -0.3102  0.0151 -0.0654
15694W        W32541   3.621  12.521  14.152  0.0561  0.2868  0.2869
15695W        W32542   1.343   4.264   1.905  0.1303  0.2072 -0.0521
15696W        W32543   4.419   6.943   1.765 -0.3931  0.1578 -0.0048
15697W        W32544   6.001   2.271   2.169  0.2830 -0.0666  0.1624
15698W        W32545   4.195  13.351   3.798 -0.1063  0.0144  0.0477
15699W        W32546  17.398  13.391   2.026  0.0534 -0.0561  0.0460
15700W        W32547  12.614   2.859   0.311 -0.0160  0.2585  0.2459
15701W        W32548   4.106  12.622  11.803  0.1091  0.2194 -0.1988
15702W        W32549   9.087  10.550  13.177  0.2526  0.0796 -0.1427
15703W        W32550   3.269  18.833   3.299 -0.0277  0.2025  0.0849
15704W        W32551  17.939  18.857  13.165  0.2889  0.0131  0.0279
15705W        W32552   6.481  15.832   3.060 -0.0684 -0.2829 -0.2363
15706W        W32553   5.460  10.453  12.475  0.1512  0.0330  0.1046
15707W        W32554  15.762   6.311  11.269 -0.1373 -0.1807 -0.0748
15708W        W32555   4.652   4.871  14.462 -0.0587 -0.1670  0.1458
15709W        W32556   0.330   8.068   3.118 -0.2004 -0.1547 -0.1717
15710W        W32557   7.152   7.965  10.899  0.1882 -0.5186 -0.0629
15711W        W32558   0.333   7.134  11.030  0.0442 -0.0728 -0.0999
15712W        W32559  17.029  18.575  11.015 -0.2419  0.5542 -0.3735
15713W        W32560  17.385   2.020  12.730 -0.0894  0.1713  0.2801
15714W        W32561  12.849   6.349   4.007 -0.3402 -0.0508  0.1863
15715W        W32562   6.439  18.341   2.042  0.2000  0.3868 -0.1883
15716W        W32563  13.520  17.294  11.807  0.2529  0.2026 -0.0646
15717W        W32564  16.937   5.757   4.316  0.1136 -0.0776 -0.0829
15718W        W32565   6.830  15.644   3.838  0.2983  0.2460  0.2175
15719W        W32566  16.385   2.195  12.515  0.0236  0.0846  0.2815
15720W        W32567   0.915  18.313  10.929 -0.1505  0.1235 -0.0374
15721W        W32568  10.215  12.349  10.064  0.2022  0.2167 -0.0636
15722W        W32569   3.761   4.070  11.479  0.0472 -0.1642  0.3493
15723W        W32570   8.388  16.099  11.262  0.2851  0.1213 -0.3963
15724W        W32571   8.228   9.672   4.236 -0.3053  0.1170 -0.1221
15725W        W32572   5.801  14.046   2.520  0.3752 -0.2175  0.0795
15726W        W32573   2.677  19.440  11.530 -0.3244 -0.1386 -0.2771
15727W        W32574  18.502  15.642  10.432 -0.1250 -0.2843 -0.0145
15728W        W32575  10.487   3.728  13.277  0.2238 -0.2240  0.0556
15729W        W32576   6.516   7.928   3.291  0.0248  0.0338 -0.3799
15730W        W32577  16.334  15.170   5.239 -0.0840 -0.0648  0.0952
15731W        W32578  16.997  18.925  11.881  0.1066  0.1949  0.0753
15732W        W32579   3.516   3.806  10.597  0.0188  0.0592 -0.0594
15733W        W32580   8.133  17.214   1.533 -0.1134 -0.2181 -0.3948
15734W        W32581   0.834  19.476  13.380 -0.2359  0.0476  0.0979
15735W        W32582  13.899   3.718   4.397 -0.1143 -0.0392 -0.1625
15736W        W32583  18.562   9.444   3.441  0.2290  0.1145  0.3771
15737W        W32584   3.806  18.917  10.807 -0.1779  0.1528 -0.0320
15738W        W32585   6.772  13.177   4.278  0.0752  0.3104 -0.2305
15739W        W32586  16.051   4.855  11.230 -0.3124 -0.1939 -0.0418
15740W        W32587   8.129  18.341  14.012  0.0440 -0.1689  0.1780
15741W        W32588  10.781   0.570   0.201 -0.1894  0.0365 -0.1656
15742W        W32589   2.498  16.348  14.471 -0.0498 -0.0750  0.0033
15743W        W32590   9.273   3.184   4.103  0.3756 -0.0201 -0.0214
15744W        W32591   7.661  10.218  12.457 -0.0089 -0.2100 -0.4073
15745W        W32592   2.581   5.774   4.584 -0.1323 -0.1116  0.2726
15746W        W32593  15.620  18.822  10.622  0.1171  0.4012 -0.2020
15747W        W32594   3.185   5.941  11.158  0.0286 -0.0429  0.0558
15748W        W32595  10.423   6.899   2.797 -0.1205 -0.2551 -0.0457
15749W        W32596  17.496  11.962   3.628 -0.1554 -0.2501  0.3070
15750W        W32597   8.998   0.933  11.642 -0.0365  0.0566  0.2398
15751W        W32598  18.804  16.004  12.911  0.0508 -0.1841 -0.1134
15752W        W32599  13.839   1.812   1.327 -0.1173  0.1912  0.0703
15753W        W32600  17.494  17.501   0.434  0.2312  0.0988  0.2670
15754W        W32601  10.704   6.555   0.831 -0.2036 -0.1107 -0.0532
15755W        W32602  17.225   0.879   3.019  0.1057 -0.0013  0.0032
15756W        W32603   1.016   9.482   1.974  0.2592 -0.0342 -0.0006
15757W        W32604   1.401   7.774   0.857  0.0959 -0.1102  0.1219
15758W        W32605  16.195  19.509  11.929  0.1866  0.2341  0.0921
15759W        W32606  18.215   1.164  13.123 -0.0569 -0.2610  0.0222
15760W        W32607  12.886  15.997   1.604 -0.0637  0.1464  0.1200
15761W        W32608   1.857  14.694  11.992 -0.0097  0.1037 -0.0328
15762W        W32609   2.560   7.355   4.598  0.2898  0.1559  0.0406
15763W        W32610  15.971  10.409  13.863  0.2090 -0.0060 -0.0456
15764W        W32611  19.099  11.467  11.894  0.0429 -0.2317  0.1594
15765W        W32612   5.741  16.102  13.755  0.0762  0.2845  0.0948
15766W        W32613   4.506  14.581  10.532 -0.1215  0.2717 -0.3142
15767W        W32614   6.738  13.656  10.136  0.5880 -0.1005  0.0913
15768W        W32615   9.981   4.993   1.957  0.2081 -0.2104 -0.0199
15769W        W32616  16.069   5.774  13.289  0.5182 -0.3064 -0.2273
15770W        W32617   0.274   4.659   1.321 -0.0761 -0.2124 -0.1484
15771W        W32618   6.510  13.247   0.688  0.2559 -0.0744 -0.1311
15772W        W32619  15.144   4.559  11.041 -0.1554 -0.1252 -0.1607
15773W        W32620  11.657   7.758  11.006 -0.1489 -0.2309 -0.1835
15774W        W32621  16.341   2.409   3.982 -0.1422  0.1769 -0.0762
15775W        W32622  13.366  14.032  12.159  0.3201 -0.0009  0.0524
15776W        W32623  17.244   5.527  14.528 -0.0670 -0.1494 -0.3308
15777W        W32624   6.237  12.518  12.902  0.0743 -0.2999 -0.2217
15778W        W32625  14.521   1.697   3.141 -0.1027  0.0954 -0.0855
15779W        W32626  15.312  16.606   4.096 -0.0787  0.2909  0.2689
15780W        W32627   0.867   0.521   3.638  0.1384 -0.2634 -0.0884
15781W        W32628  12.375  11.778  12.921  0.1800  0.0847  0.1270
15782W        W32629   1.235   5.514   1.739  0.0272 -0.1566  0.0348
15783W        W32630  17.126  13.849  12.772 -0.0012  0.4255 -0.3848
15784W        W32631   8.162  16.464  14.359  0.6031  0.0007  0.3811
15785W        W32632  11.291   0.932   9.988  0.1028  0.2165  0.3381
15786W        W32633  11.285   3.727   0.076 -0.0678  0.0006 -0.0499
15787W        W32634  13.148   3.363   4.868  0.0067 -0.1694 -0.0985
15788W        W32635  14.850  19.333  14.457  0.1598 -0.1025  0.0810
15789W        W32636   6.241   5.107  14.230  0.1496  0.2331  0.1056
15790W        W32637   4.495  17.933   4.335  0.1026  0.1776  0.0995
15791W        W32638   6.135  15.641  13.498  0.1873 -0.0494  0.1959
15792W        W32639  11.860   6.354   2.235  0.0580  0.2332 -0.0549
15793W        W32640   1.317   7.253   1.709 -0.1074 -0.1372 -0.0996
15794W        W32641   9.933   6.419   4.011 -0.0091  0.2603  0.1272
15795W        W32642  16.304   6.254   0.776 -0.1833 -0.0487 -0.1662
15796W        W32643   9.376  17.727   4.186  0.0074 -0.1109  0.4646
15797W        W32644   3.229   4.031   2.607 -0.0488 -0.0488  0.0792
15798W        W32645   5.443   3.945  12.344 -0.4405 -0.0418  0.0638
15799W        W32646   1.202   8.692  14.421 -0.0634  0.1012  0.0741
15800W        W32647   7.453   0.146   4.167  0.1929  0.0038 -0.1134
15801W        W32648   8.461   4.678   3.957 -0.1763 -0.2506  0.2927
15802W        W32649   2.709   1.300   0.042  0.1987  0.1642 -0.1197
15803W        W32650  11.379   2.515  11.154 -0.0037  0.0368 -0.3331
15804W        W32651   8.683   2.726  13.988 -0.2240  0.0023 -0.5917
15805W        W32652  12.106  16.156   2.055 -0.1562  0.1090 -0.1322
15806W        W32653  11.430   7.993   0.497 -0.0415  0.1934 -0.0736
15807W        W32654  14.178  15.986  14.610 -0.1228  0.2033 -0.2782
15808W        W32655  15.010  13.847   3.495  0.1197  0.1421  0.0201
15809W        W32656   7.935  13.655   0.162 -0.1318 -0.0273  0.0340
15810W        W32657  17.820  16.902  13.513  0.1438 -0.0695 -0.4865
15811W        W32658  14.727  14.367   0.576  0.0585  0.0598  0.1109
15812W        W32659   9.589   6.817  10.353  0.0497 -0.2365  0.0927
15813W        W32660  15.558   5.546   3.465 -0.2818 -0.1755  0.1538
15814W        W32661  15.831   0.097  10.980 -0.3365 -0.3599 -0.0316
15815W        W32662   1.698   6.457  12.412 -0.1801 -0.1654  0.1779
15816W        W32663  11.903  12.841  13.473  0.0387 -0.1772  0.1453
15817W        W32664   9.704  13.060   1.994 -0.2165  0.1618  0.0232
15818W        W32665  12.995   6.798   4.330 -0.0490  0.3150  0.0667
15819W        W32666  13.198   1.656  13.031  0.3586  0.1268  0.0774
15820W        W32667  14.012   2.443   8.725 -0.0317  0.1601 -0.0581
15821W        W32668  12.547  10.840  12.798 -0.4603 -0.2396 -0.3368
15822W        W32669  14.321   0.926   0.954  0.1436 -0.3443 -0.3251
15823W        W32670   2.165  11.025   3.607  0.0155 -0.2633  0.0605
15824W        W32671   7.195   6.897   1.791 -0.0401 -0.2354  0.2096
15825W        W32672   7.662   5.330   5.543 -0.1003 -0.0800  0.1918
15826W        W32673  12.759   8.125   3.368  0.4177 -0.5857  0.1897
15827W        W32674   7.710  16.809   0.731  0.1471  0.0830 -0.0122
15828W        W32675  10.255   4.067   3.459  0.1392  0.3473  0.0757
15829W        W32676   3.367   5.353  11.500 -0.1937 -0.2118  0.1672
15830W        W32677  16.596   4.309   9.916  0.0622  0.2305  0.5126
15831W        W32678   5.110   5.654  13.724 -0.1044 -0.3047 -0.0389
15832W        W32679   7.714   2.779  10.471  0.1428 -0.1518  0.1811
15833W        W32680   3.070  16.629   2.277  0.2045 -0.1358 -0.4530
15834W        W32681  13.362   5.408   1.603 -0.0545  0.0550 -0.1763
15835W        W32682   1.806  15.703  10.668  0.4174  0.1534  0.0688
15836W        W32683  16.250  12.251   0.644 -0.1060 -0.0801  0.0190
15837W        W32684  11.091  16.787   4.612 -0.0905 -0.1800  0.3999
15838W        W32685   3.628   9.676  11.266  0.0555 -0.1198 -0.0179
15839W        W32686  10.604   8.213  11.462 -0.2742  0.3543  0.1273
15840W        W32687  14.828  19.569   1.232 -0.0716 -0.2704 -0.0680
15841W        W32688   2.194  18.174   0.987  0.1182  0.0220  0.0989
15842W        W32689  11.736   7.628   0.638 -0.0659  0.1007  0.0398
15843W        W32690   5.276   2.124  10.233  0.0973 -0.3445 -0.0559
15844W        W32691  16.515  14.839  10.685  0.2189  0.2276  0.2173
15845W        W32692   2.491   8.062   2.404 -0.0129  0.0878  0.3171
15846W        W32693  10.902   7.425   2.254  0.4293 -0.1552 -0.1883
15847W        W32694  17.175   3.338  13.083 -0.0778 -0.2921  0.0565
15848W        W32695  11.974   7.631  13.907 -0.0458  0.3152  0.1322
15849W        W32696  16.011  16.448  11.395 -0.0015 -0.4127  0.1120
15850W        W32697   8.388   5.723   5.596  0.1654  0.0266  0.0866
15851W        W32698   4.728   7.750   0.704  0.1585  0.0977  0.2594
15852W        W32699   2.477   1.124  13.015 -0.1172 -0.1406  0.1772
15853W        W32700  12.961   0.206  13.589  0.1583 -0.0691 -0.2581
15854W        W32701  14.682  13.807  12.766 -0.0641  0.2005  0.0106
15855W        W32702  13.598  13.185   1.487 -0.0825 -0.2471 -0.2325
15856W        W32703  12.397  19.121   3.154 -0.0134 -0.0466  0.0547
15857W        W32704  16.059   0.362   1.788 -0.1550  0.2721 -0.0027
15858W        W32705  15.892   2.613   2.790 -0.0773 -0.2331 -0.1075
15859W        W32706  13.627   1.959  13.068  0.0763  0.1156 -0.1279
15860W        W32707   1.951  17.069   2.932  0.3180 -0.1857  0.4431
15861W        W32708   9.905   7.052   0.710  0.1914 -0.6816  0.1522
15862W        W32709   7.127   5.869   3.327 -0.1090  0.2523  0.2302
15863W        W32710  12.555   3.935  13.442 -0.0255 -0.0134 -0.1439
15864W        W32711   7.469   5.316  11.684  0.1007  0.0600  0.1997
15865W        W32712   7.203  12.835  14.158  0.0495  0.1600 -0.2530
15866W        W32713   2.143  10.522  11.597  0.1311 -0.0541  0.1744
15867W        W32714   3.722   5.953  13.980 -0.0566 -0.2850  0.0101
15868W        W32715   9.175  16.558   2.272 -0.0042 -0.1542 -0.0512
15869W        W32716  12.005  16.191  10.028  0.1215 -0.0049 -0.1143
15870W        W32717  14.708  18.390  14.350  0.0882 -0.2053 -0.2466
15871W        W32718  15.606   2.003  11.404  0.0258  0.0895 -0.1929
15872W        W32719  11.172   4.543   2.467 -0.2680 -0.0689 -0.0651
15873W        W32720   9.326   7.487  14.024  0.2368  0.1128 -0.2524
15874W        W32721   2.743   5.961   5.910  0.0198 -0.0294 -0.1645
15875W        W32722  15.860   8.907  10.890  0.0279  0.1908  0.2295
15876W        W32723   2.530  15.237   1.575  0.2459 -0.2577  0.0757
15877W        W32724  14.110   1.941  10.799 -0.0566 -0.1296  0.0212
15878W        W32725   2.080   9.114  12.348  0.0109  0.0869 -0.0174
15879W        W32726   1.154   9.886   0.530  0.0408  0.1801  0.0891
15880W        W32727   0.826  12.173   2.771  0.2328 -0.2388  0.2791
15881W        W32728   8.855  17.704  14.088 -0.1647 -0.1284  0.0439
15882W        W32729   3.794   2.710   0.423 -0.2916 -0.0246  0.1256
15883W        W32730   5.643  16.184   3.564  0.3629  0.1160  0.0566
15884W        W32731   0.532  10.266   1.152  0.3180 -0.1459  0.1079
15885W        W32732  10.704  11.617  14.285  0.2196 -0.0422 -0.0685
15886W        W32733   8.671   9.903   1.648  0.1476 -0.1300 -0.2562
15887W        W32734   0.871  13.872  13.201  0.1406 -0.1620  0.0811
15888W        W32735   3.739  17.036  13.111 -0.1190 -0.0779 -0.1805
15889W        W32736   1.500   6.574  14.195 -0.1142  0.0297  0.1524
15890W        W32737  18.246  10.379   5.634 -0.2104 -0.0698  0.1264
15891W        W32738   9.249  11.322  14.122 -0.0547  0.0108  0.0982
15892W        W32739   7.741   3.283  12.160  0.2647 -0.1172 -0.0622
15893W        W32740   2.430   6.813   2.061  0.1041 -0.2052  0.0262
15894W        W32741  11.511   7.122  11.316  0.3462  0.0947 -0.1823
15895W        W32742   9.891  10.212   1.264 -0.0331 -0.0387  0.0043
15896W        W32743  16.406  15.651  13.052 -0.0308  0.3644 -0.0190
15897W        W32744  16.898  11.029   2.320  0.0620 -0.1540  0.4212
15898W        W32745   5.059  12.954   1.289 -0.0274 -0.0845  0.1180
15899W        W32746   4.780   2.625  13.912  0.2288  0.2394 -0.1884
15900W        W32747  12.919   8.766  13.427 -0.0411 -0.0891 -0.0952
15901W        W32748  16.490  10.169  12.509  0.1832 -0.1060  0.0121
15902W        W32749   8.256  12.318  13.050 -0.0190  0.1952 -0.1974
15903W        W32750   3.995  15.038   0.994 -0.1716 -0.2528  0.2638
15904W        W32751   6.311   5.824  10.501  0.3591 -0.1035  0.4166
15905W        W32752   2.303   3.909  14.456  0.2375  0.0577  0.4289
15906W        W32753  17.405   8.469   4.718 -0.0807 -0.4476 -0.0572
15907W        W32754   6.759   0.408   3.592 -0.4480  0.1674 -0.0998
15908W        W32755   8.289  19.209  14.566 -0.0591  0.2656 -0.3039
15909W        W32756   0.039   4.441   5.136  0.1137  0.1900 -0.1163
15910W        W32757  11.914  16.357   3.659  0.1737  0.0640 -0.1255
15911W        W32758   3.107   2.620  14.162  0.5086 -0.2438 -0.0180
15912W        W32759   7.844  10.553   2.793  0.3490  0.3856  0.2338
15913W        W32760   8.694  14.211  14.169 -0.1899 -0.0503 -0.0625
15914W        W32761  11.740   8.196   1.728  0.0098  0.0533 -0.2058
15915W        W32762   0.595  13.964   0.042  0.3325  0.1517  0.1098
15916W        W32763  10.843   4.261  13.864 -0.0407  0.1347 -0.1698
15917W        W32764  15.794   4.119  11.168  0.0725 -0.3241 -0.0908
15918W        W32765  16.571  13.944   3.980  0.1268 -0.0555 -0.0018
15919W        W32766   0.375  16.421   5.041 -0.0190  0.1302  0.0846
15920W        W32767  11.063  14.112   5.218 -0.3737  0.2840  0.0576
15921W        W32768  14.881   6.832   3.620  0.3247  0.0116 -0.3652
15922W        W32769  16.900  11.362  11.722 -0.1813 -0.0191 -0.0026
15923W        W32770  17.986  14.738  10.585  0.0518  0.0616 -0.0265
15924W        W32771   1.325   5.459   5.322 -0.0586  0.1566  0.0233
15925W        W32772  13.658  14.801  12.601  0.1478 -0.1526 -0.0479
15926W        W32773   3.573   1.629   1.079  0.0209  0.3347  0.2411
15927W        W32774  12.335   2.886   1.302 -0.1005  0.0105  0.1574
15928W        W32775   3.113   0.806  12.287 -0.2191  0.2195 -0.1073
15929W        W32776  10.240  19.581   5.032  0.1160  0.0907 -0.3069
15930W        W32777  12.890   7.760   1.874  0.1744 -0.0419 -0.0169
15931W        W32778   8.439   3.799   3.041 -0.1935 -0.3097 -0.0614
15932W        W32779  13.748   0.892   3.770 -0.2892  0.1676  0.2356
15933W        W32780  18.696   2.260  10.626  0.2036  0.3621  0.0752
15934W        W32781  18.404  16.543   0.207 -0.1098  0.1273 -0.1735
15935W        W32782  16.341   3.575  13.643 -0.3557  0.1690 -0.3283
15936W        W32783  12.935  12.638   9.689 -0.1041 -0.0484  0.1449
15937W        W32784   8.060   6.440   1.813  0.2478  0.1461  0.0967
15938W        W32785  18.773   4.545   4.063  0.0382 -0.2975 -0.0598
15939W        W32786  10.613   8.615  12.049 -0.1338  0.4747 -0.0160
15940W        W32787  11.930  14.577   0.673  0.1127 -0.0373  0.2231
15941W        W32788   2.602   2.028   4.233 -0.1988  0.0148  0.0502
15942W        W32789   0.222  14.896   4.362 -0.1443  0.0664  0.2112
15943W        W32790  19.610  17.949   0.568 -0.1366 -0.0545 -0.0754
15944W        W32791   9.690   8.499  13.505 -0.1532 -0.1158  0.0727
15945W        W32792   2.636  10.515  13.861  0.0191 -0.2039  0.1776
15946W        W32793   0.924  11.054   1.018 -0.1390  0.2239 -0.2940
15947W        W32794  14.736  14.258  11.753 -0.0545  0.0074 -0.0190
15948W        W32795  19.444   5.755   0.649 -0.1551 -0.0034 -0.0897
15949W        W32796  13.822  15.696  13.861  0.1496 -0.1300 -0.0992
15950W        W32797  15.286  11.933  10.958 -0.1160 -0.0401 -0.1828
15951W        W32798   7.918   7.594   2.722  0.0201 -0.2822 -0.0884
15952W        W32799   5.712   5.139  14.076 -0.2508 -0.1503  0.1774
15953W        W32800   0.066  10.548  11.436  0.1381  0.1078 -0.0831
15954W        W32801   7.156   0.225  10.856  0.1791  0.1725  0.1450
15955W        W32802   7.230   4.463   4.510 -0.1467  0.3494  0.1094
15956W        W32803   6.624  17.988   0.036 -0.2299  0.0788  0.1592
15957W        W32804   1.324  12.147  11.882 -0.0873  0.1348 -0.1897
15958W        W32805  13.169  12.151  10.609  0.1823 -0.0275  0.3227
15959W        W32806   5.225  16.953  12.471 -0.0199  0.1445 -0.0518
15960W        W32807  11.091  19.099   4.534 -0.0983 -0.0087 -0.1182
15961W        W32808   5.618  14.572  12.830 -0.1041 -0.1929  0.0747
15962W        W32809  17.397   4.756  13.447  0.2991 -0.4002  0.2298
15963W        W32810   3.884  15.791  14.580  0.0106  0.1642 -0.2689
15964W        W32811  14.805  10.422   2.542  0.1294 -0.2792  0.0519
15965W        W32812  18.520   3.716   3.501 -0.0116 -0.0191  0.0615
15966W        W32813  16.851  12.833  11.887 -0.1856  0.0357 -0.2343
15967W        W32814   9.397  15.575  13.131 -0.0161  0.1799 -0.0034
15968W        W32815  11.269   9.131  14.376 -0.1267 -0.2191 -0.2094
15969W        W32816  18.324   8.111  12.773 -0.0220  0.1069 -0.0276
15970W        W32817  13.052  18.533   3.554  0.1265 -0.1870  0.2458
15971W        W32818   6.947  10.797   1.539  0.0957 -0.2314 -0.0042
15972W        W32819  13.296   8.995  12.701 -0.4208 -0.0490 -0.0142
15973W        W32820  11.648   1.281   4.375  0.1498 -0.2165  0.1730
15974W        W32821  11.554  14.582   2.856  0.0150  0.1392  0.0181
15975W        W32822  10.657  12.055  10.992 -0.1593 -0.0499  0.1055
15976W        W32823   3.120   5.110   4.996 -0.1312 -0.0648 -0.1297
15977W        W32824  13.883  16.641  13.456  0.1754 -0.0308  0.1598
15978W        W32825   2.548   5.509  10.809  0.0701  0.4583 -0.0656
15979W        W32826   0.243  18.391   0.159  0.1556  0.1172 -0.4196
15980W        W32827  13.988  16.244   1.992  0.2227 -0.1547  0.0082
15981W        W32828   3.401   9.258   2.164 -0.0998 -0.0976  0.1556
15982W        W32829   7.718   4.501   0.140  0.2926 -0.0787 -0.3051
15983W        W32830   7.969  11.445  14.292 -0.1725  0.1001  0.1215
15984W        W32831  13.675  18.970   2.264  0.1312 -0.5810 -0.0369
15985W        W32832  19.624   6.226  11.184  0.0816 -0.1937  0.0574
15986W        W32833   5.857   5.446   1.635  0.4188 -0.2136  0.1626
15987W        W32834   4.603  14.835   1.709  0.1699  0.1261  0.0014
15988W        W32835   7.800  10.202   4.752  0.0081  0.0394 -0.2497
15989W        W32836  13.061  11.202  13.985 -0.0692  0.2517 -0.0976
15990W        W32837  13.765   3.013  13.090  0.3766  0.1843 -0.0178
15991W        W32838  10.654  18.709   5.229  0.1554 -0.1080 -0.0514
15992W        W32839   7.721   9.418  10.357 -0.0661 -0.3205  0.0642
15993W        W32840  12.715  15.198   0.709 -0.3580 -0.0511  0.2889
15994W        W32841   6.179  17.948   2.580  0.3483 -0.2085 -0.0607
15995W        W32842  11.217  17.427   0.786 -0.5114 -0.0871  0.0930
15996W        W32843   8.702   1.002   4.329 -0.0863 -0.2779  0.0254
15997W        W32844  12.635  11.701   0.137  0.0960 -0.2245  0.1480
15998W        W32845  14.792  12.518  14.359 -0.2266  0.3535 -0.2641
15999W        W32846  17.156  17.012   4.532 -0.1405 -0.1656  0.1312
16000W        W32847   3.398   4.456  10.371  0.0849 -0.1206 -0.0898
16001W        W32848  12.771  17.063   3.550 -0.0767 -0.1041 -0.0089
16002W        W32849   0.355   3.814   0.254  0.3621 -0.1045  0.4419
16003W        W32850  10.042   3.682  10.096  0.1644  0.1856 -0.0374
16004W        W32851   7.871   5.658   4.882  0.3399  0.0854  0.0714
16005W        W32852   9.085   8.392   3.025 -0.2919 -0.1379 -0.0159
16006W        W32853   2.874  15.611  10.661 -0.1376 -0.2975 -0.3502
16007W        W32854   6.019   4.827   1.531  0.0175 -0.2121  0.0762
16008W        W32855  11.820  19.033   2.390 -0.0743 -0.0314  0.1956
16009W        W32856   4.151  15.683  11.167 -0.2152 -0.1164  0.0932
16010W        W32857  17.920   4.004  10.907 -0.1939 -0.1823  0.0654
16011W        W32858   3.275  10.488  12.219  0.3659  0.0210 -0.0929
16012W        W32859   2.166  12.618   5.605  0.2488 -0.3033 -0.1205
16013W        W32860   6.820   7.280   0.995  0.1288  0.1663  0.0634
16014W        W32861  18.453  17.853  10.232  0.1141  0.0067 -0.0561
16015W        W32862   5.658  17.924   1.635  0.0836 -0.4293 -0.2893
16016W        W32863  19.047  12.572   0.646 -0.0063 -0.1814 -0.2894
16017W        W32864  12.613   0.874   2.882 -0.4809 -0.1422  0.1018
16018W        W32865   4.385   1.171  13.237  0.0293  0.2393  0.2014
16019W        W32866  11.381  15.150  11.384 -0.0173 -0.1385  0.2910
16020W        W32867  13.566   5.313  10.471  0.0306  0.0907  0.1600
16021W        W32868  19.511   5.814   2.550 -0.0646 -0.1590  0.0205
16022W        W32869   9.910   6.070   0.734  0.1805 -0.0373  0.0898
16023W        W32870  13.225   7.092   5.111  0.4207 -0.1003  0.3502
16024W        W32871   0.246  16.416   1.371 -0.0659  0.1076  0.1168
16025W        W32872  12.912   1.762   3.107  0.4323  0.3149  0.1522
16026W        W32873  13.107   0.833   5.728  0.0607 -0.0900 -0.2091
16027W        W32874  17.898  10.970   2.744  0.0672 -0.0120 -0.0423
16028W        W32875  14.943  11.417   2.028 -0.3211  0.0923  0.2220
16029W        W32876   9.188  13.366  13.136 -0.3432 -0.3482 -0.0464
16030W        W32877   8.536   7.196   3.343  0.2211  0.0594  0.2055
16031W        W32878  17.170   6.444  12.246  0.0579  0.0580  0.1466
16032W        W32879   0.149  10.795  12.197  0.0625 -0.0512 -0.1654
16033W        W32880   2.024   9.495  14.378 -0.2945 -0.5402 -0.0896
16034W        W32881   8.830  18.761   1.189  0.0420 -0.0449  0.1913
16035W        W32882   7.026  12.719  10.029  0.1266  0.4180 -0.1868
16036W        W32883   9.256  11.847  12.364  0.0515 -0.1662 -0.1550
16037W        W32884   9.676  18.436  10.841 -0.1101 -0.1031  0.0675
16038W        W32885   5.937   5.312   2.077 -0.0504  0.2228 -0.1089
16039W        W32886  12.570   5.634   0.300 -0.2398 -0.1219 -0.0257
16040W        W32887   6.589   7.161   0.335 -0.0292  0.1577  0.1526
16041W        W32888   9.732   7.561   5.064 -0.0475  0.1699  0.0081
16042W        W32889   5.875   8.094   0.110  0.1698 -0.0764  0.2660
16043W        W32890  16.078   6.196   1.857 -0.2423  0.0337  0.0440
16044W        W32891   7.699   5.717  11.888  0.3357  0.1423 -0.0279
16045W        W32892  11.733  16.067   3.268 -0.1132 -0.4575 -0.0175
16046W        W32893   3.133  11.714   3.233 -0.0600  0.0806  0.2217
16047W        W32894   2.942   7.700  12.485 -0.3030 -0.0679  0.0803
16048W        W32895  14.782  11.417   0.860 -0.1481  0.0314  0.0772
16049W        W32896  14.206  16.571   1.320 -0.1699  0.2316 -0.3158
16050W        W32897  18.003   6.183  10.672  0.0675  0.1566  0.0522
16051W        W32898  16.120   8.954  11.798 -0.3482  0.2751 -0.1650
16052W        W32899  17.535  15.823  13.669  0.0499 -0.1499  0.0509
16053W        W32900  11.783  15.734  13.777 -0.2313 -0.1293 -0.1842
16054W        W32901  15.121   3.408   4.336  0.2122 -0.3093  0.1915
16055W        W32902  17.543  18.324  14.155 -0.1690  0.1467 -0.0037
16056W        W32903   3.868   5.711   4.695 -0.1405 -0.2197  0.0627
16057W        W32904   1.539  19.166   4.965  0.1260  0.1291 -0.0026
16058W        W32905  18.947   1.421   1.138  0.1275  0.1390 -0.0457
16059W        W32906   1.364   0.890  10.491  0.0528 -0.0136  0.0414
16060W        W32907   5.370  16.037   1.786 -0.0384  0.1556 -0.0007
16061W        W32908  14.895  11.918  12.196 -0.3967 -0.0787  0.1253
16062W        W32909  15.479   5.266   4.901  0.2063  0.4384 -0.0357
16063W        W32910   8.428  12.598   2.968  0.0701 -0.1779  0.1026
16064W        W32911   0.778  17.311   2.656  0.1629  0.1979 -0.0390
16065W        W32912   1.268   2.382   5.379  0.0199  0.2105 -0.1364
16066W        W32913   9.638   0.855  12.465 -0.0583  0.0573 -0.0072
16067W        W32914  18.287   2.518  10.705  0.0040 -0.0893 -0.1696
16068W        W32915   6.719  11.335   2.891  0.1645  0.1437 -0.0879
16069W        W32916  13.533  18.115  11.366  0.0383  0.1861  0.1863
16070W        W32917   9.768  15.251   0.884  0.0129  0.0747  0.1241
16071W        W32918  11.087   3.160   2.715 -0.1377  0.1543  0.0391
16072W        W32919  15.083   2.735  10.843  0.0120 -0.1575 -0.0147
16073W        W32920  14.284  18.030  10.821 -0.0209 -0.0337 -0.1110
16074W        W32921  13.667   4.397   3.137 -0.0962  0.0996  0.0634
16075W        W32922   3.951   8.443  14.345  0.1206  0.0180  0.0759
16076W        W32923  15.112  10.861  13.623 -0.0666  0.1468  0.4721
16077W        W32924  19.603  10.402  11.931 -0.1301 -0.0496 -0.0167
16078W        W32925   1.478  17.556  13.928 -0.0578 -0.0714  0.0154
16079W        W32926  12.897   5.578  13.640 -0.2322 -0.0089  0.5557
16080W        W32927  14.496   2.842   3.445  0.1352  0.0631 -0.0196
16081W        W32928  11.283  16.416  10.626 -0.2082  0.2397 -0.1443
16082W        W32929  17.296   5.848  10.880  0.0207  0.0287  0.1694
16083W        W32930  15.754   0.126  10.099 -0.1137  0.1038 -0.0546
16084W        W32931  15.311  11.934   9.974  0.2040  0.3046 -0.0050
16085W        W32932  11.894  10.774   0.911  0.2604 -0.0625  0.1868
16086W        W32933   0.229   6.656  10.812  0.2385  0.0375 -0.0718
16087W        W32934  13.800   0.569   1.781 -0.0975 -0.3162  0.0575
16088W        W32935   0.747  11.553   1.808  0.1157 -0.2270  0.0500
16089W        W32936  13.799   0.642  11.296 -0.2055 -0.0029  0.0917
16090W        W32937   9.330  16.873   2.819 -0.0588  0.0595 -0.4708
16091W        W32938  16.501   5.163  12.272  0.1126 -0.0517 -0.1691
16092W        W32939  15.051   5.103  11.049 -0.0417  0.0333  0.2214
16093W        W32940   2.752   7.261  13.580  0.0490  0.2152  0.1395
16094W        W32941  16.589  19.143  11.611  0.2897 -0.4343 -0.0177
16095W        W32942   4.582   5.098   3.484 -0.0199  0.0993  0.2404
16096W        W32943  13.310   6.159   3.308 -0.1127 -0.1093  0.3071
16097W        W32944  18.179   9.656   3.115  0.0838 -0.1772  0.3459
16098W        W32945  13.992  12.234   3.355 -0.3233 -0.2035 -0.0892
16099W        W32946  10.343   2.780   4.996 -0.0033  0.2908  0.1947
16100W        W32947   4.281  19.557  11.869  0.0078 -0.1474 -0.1159
16101W        W32948  10.234   2.961   1.093 -0.1978  0.1541 -0.0933
16102W        W32949  11.670   1.054   4.825  0.1684  0.0063 -0.2580
16103W        W32950  11.595  15.306   0.070  0.0576  0.0700 -0.2230
16104W        W32951   9.641   5.214  12.715 -0.0612 -0.0207  0.2129
16105W        W32952  14.916   0.410   4.156 -0.0269 -0.0413  0.1278
16106W        W32953  12.724  13.556   4.530 -0.2343  0.2150  0.4107
16107W        W32954  17.960   8.784   1.212  0.2835 -0.0709 -0.0720
16108W        W32955   3.541  12.705   5.672 -0.1566 -0.2252 -0.0147
16109W        W32956  12.088   7.226   2.511 -0.1279 -0.0138 -0.1354
16110W        W32957   9.251   2.671  10.595  0.3115  0.3258 -0.4474
16111W        W32958  10.719  16.934   5.139 -0.1739  0.0235 -0.0896
16112W        W32959   0.375  18.840   3.244  0.0327 -0.1329  0.2335
16113W        W32960   5.126   3.010  12.363 -0.1447  0.1972  0.1342
16114W        W32961   7.896  18.347   0.992  0.1702 -0.1650 -0.0753
16115W        W32962  18.945   1.038  12.757  0.0090 -0.2677  0.0436
16116W        W32963   8.944   9.819   2.510  0.1445 -0.0491  0.2100
16117W        W32964  11.819  18.075   2.850 -0.0865 -0.0929 -0.3360
16118W        W32965  17.026   1.720  13.538 -0.1609 -0.2685  0.1653
16119W        W32966  10.405   1.322   4.182  0.0607 -0.2050  0.2151
16120W        W32967   3.616   4.607  13.110 -0.2309  0.1637  0.0010
16121W        W32968  17.368  19.627   4.346  0.0337 -0.1260  0.2911
16122W        W32969  14.058  19.454   0.863 -0.2545 -0.0314 -0.1803
16123W        W32970   2.295   7.226   3.585 -0.1046 -0.1829  0.1022
16124W        W32971   5.790   5.768  11.805  0.3097 -0.2839 -0.1742
16125W        W32972  14.060  12.216   0.089 -0.0174 -0.1000 -0.0812
16126W        W32973  15.914   7.304  12.190  0.0596  0.0338  0.1527
16127W        W32974   3.551  18.350  11.951 -0.0230 -0.2190  0.0693
16128W        W32975   2.126  19.421  10.703 -0.0277  0.0984  0.0992
16129W        W32976  19.361  12.739  13.355  0.1619 -0.2890 -0.0771
16130W        W32977  18.038   4.108  12.593  0.0054  0.0478  0.1293
16131W        W32978  17.039   1.222  13.403 -0.2053 -0.2022 -0.0349
16132W        W32979  17.269   1.736  11.330 -0.2616 -0.0632  0.2158
16133W        W32980   6.301  16.268   2.889 -0.0406 -0.0056 -0.2219
16134W        W32981   4.472  15.116   3.286  0.0066 -0.3090 -0.0169
16135W        W32982  16.580  16.278   3.850  0.2740  0.0199  0.2872
16136W        W32983  12.807   4.215   2.197 -0.4259  0.2027  0.2148
16137W        W32984   9.347   9.986   1.029 -0.1217 -0.1233  0.1451
16138W        W32985  12.155   4.577  14.274 -0.0797  0.1667 -0.1573
16139W        W32986  14.207  19.221  10.753 -0.1805  0.0261  0.0817
16140W        W32987  14.513   6.494  13.591 -0.0131  0.1246  0.0645
16141W        W32988  14.359   2.284   3.708  0.1968  0.1871  0.2742
16142W        W32989  17.251   9.793   0.777 -0.0758 -0.1552  0.1456
16143W        W32990  11.205   0.441   3.478 -0.0621 -0.3611  0.1152
16144W        W32991  13.028   4.856   3.454  0.0639 -0.2701  0.2461
16145W        W32992   7.876   9.736  12.146 -0.1362 -0.0866  0.1869
16146W        W32993   3.261  11.822   5.029  0.0605 -0.0631 -0.0289
16147W        W32994   7.825   8.388  14.013  0.1431  0.1802 -0.1754
16148W        W32995   2.579   2.816   3.030  0.0528  0.0276  0.2753
16149W        W32996  16.347  18.032  12.440  0.0366 -0.1265 -0.2289
16150W        W32997   5.521  15.874   0.114 -0.1293 -0.0801  0.0437
16151W        W32998   9.320  17.243  13.238 -0.0400  0.1088 -0.0471
16152W        W32999   0.138  10.034   0.835 -0.0470  0.1320 -0.1721
16153W        W33000   2.100  12.101   3.088  0.4282  0.2690 -0.3312
16154W        W33001  10.457  15.985   0.686 -0.0802 -0.1220 -0.2982
16155W        W33002  19.355  17.392   2.900  0.1184 -0.1037  0.0986
16156W        W33003   6.656  14.931   0.461 -0.0671  0.0249 -0.2596
16157W        W33004   6.708   0.050  10.929 -0.1300  0.0211  0.2270
16158W        W33005  10.364  17.506   4.618 -0.0676 -0.1717 -0.0648
16159W        W33006   8.105   8.298   0.165 -0.4521  0.1649 -0.0004
16160W        W33007   6.912   8.713  13.519  0.1606 -0.1687 -0.1385
16161W        W33008  12.144  12.058   4.026 -0.0569  0.1759 -0.0132
16162W        W33009   2.360  18.621   3.396  0.1927  0.1667  0.0267
16163W        W33010   6.345  12.730   2.898 -0.1970 -0.4328 -0.0486
16164W        W33011   4.078   9.875   1.671 -0.0317  0.0045 -0.0796
16165W        W33012  18.831   3.034   9.411 -0.0443 -0.0097 -0.2115
16166W        W33013   3.426  18.910  11.202 -0.1463  0.3771  0.3714
16167W        W33014   7.184   2.217  13.373  0.0742 -0.2199  0.3470
16168W        W33015   3.002   5.922  13.304 -0.0047 -0.0101  0.2165
16169W        W33016   0.730  10.917  12.999  0.2185  0.0285 -0.0785
16170W        W33017   7.910   0.494  13.940  0.0600 -0.1285 -0.1503
16171W        W33018  12.989  10.261   2.041 -0.1233 -0.0407  0.1919
16172W        W33019   2.550  17.693   9.506 -0.0750 -0.1872  0.3123
16173W        W33020   3.176  16.666   4.535  0.2216  0.1003  0.0044
16174W        W33021  17.702   4.314   9.206  0.3331 -0.0953 -0.0412
16175W        W33022  10.220   2.071  13.484  0.0899  0.0047  0.0923
16176W        W33023   6.873   8.863   4.857 -0.1412  0.4496 -0.0305
16177W        W33024  11.892   8.033   4.687  0.0529  0.0297  0.0074
16178W        W33025   9.432  11.776   2.888 -0.1662 -0.0273 -0.2634
16179W        W33026   6.220  17.504   9.281  0.2124 -0.0156  0.1225
16180W        W33027  16.963  10.708   1.088 -0.0841 -0.1317 -0.4012
16181W        W33028   1.703   0.025   4.049  0.1402  0.0536  0.2601
16182W        W33029   5.823  12.985  14.084  0.1687  0.0502  0.0039
16183W        W33030  10.806  19.289   1.117  0.3525  0.2830 -0.3141
16184W        W33031  19.202   3.863   4.572 -0.0611 -0.1079  0.2323
16185W        W33032  15.181   1.965   3.234  0.0156  0.0461  0.0467
16186W        W33033   4.902  10.551  14.498  0.0585  0.3517 -0.1164
16187W        W33034  15.623  10.050  13.675 -0.0185  0.0425  0.2282
16188W        W33035   4.418  17.150  12.187  0.2407 -0.2124 -0.1713
16189W        W33036   7.658  15.229   3.745  0.2043  0.0244 -0.2786
16190W        W33037  11.927  15.063  10.585 -0.3693  0.0485  0.1494
16191W        W33038  17.547  19.028   0.402 -0.2621 -0.3419  0.1348
16192W        W33039   5.526   2.172   2.283  0.0370  0.4151  0.0554
16193W        W33040  13.614   6.418   3.740  0.1651 -0.1217 -0.0811
16194W        W33041   1.700  19.554  10.902 -0.1858  0.1227  0.0556
16195W        W33042  16.809   0.608   4.221  0.0627  0.0208  0.1767
16196W        W33043   2.329   9.173   0.470 -0.1654  0.0602 -0.2788
16197W        W33044  16.310   3.452  11.973  0.0971  0.1407  0.2209
16198W        W33045  18.427   9.944   3.483  0.1949 -0.1059 -0.0251
16199W        W33046   7.140   6.085   4.187  0.2533  0.2068  0.1225
16200W        W33047  16.770  16.655  12.227  0.3734 -0.1541 -0.3011
16201W        W33048  19.237  12.367  14.525 -0.0088 -0.0407  0.0728
16202W        W33049   0.960   8.156   2.238 -0.3721 -0.1175  0.2219
16203W        W33050   4.917   2.521  10.968 -0.0880  0.1548  0.1134
16204W        W33051   0.961  14.641  10.210 -0.1556 -0.1418  0.0672
16205W        W33052  14.297   8.666   1.133  0.1486 -0.0702 -0.1979
16206W        W33053   5.271  17.874   9.988 -0.1455 -0.0748  0.0378
16207W        W33054   4.286  13.825   1.022 -0.4227 -0.1626 -0.2136
16208W        W33055   8.034  10.104  11.740  0.1974  0.0698  0.0253
16209W        W33056   3.818  17.049   2.727  0.0268 -0.1259  0.0524
16210W        W33057  18.449   0.159  12.481  0.0437 -0.1025 -0.0159
16211W        W33058  17.084  15.739   0.516 -0.2357 -0.0007  0.0301
16212W        W33059  10.151   4.914  11.826 -0.0071  0.1046  0.1424
16213W        W33060  19.192  13.058   4.001  0.0520  0.0905 -0.1805
16214W        W33061  15.416   0.727  13.223 -0.0595 -0.2238 -0.2137
16215W        W33062   1.010  11.936  13.895  0.3282 -0.0037  0.3884
16216W        W33063  17.984   4.065   4.003  0.1805  0.2200 -0.1852
16217W        W33064   6.010  13.619   1.511 -0.3373  0.1769 -0.1633
16218W        W33065   9.695  16.079   4.319 -0.2481  0.1962  0.1702
16219W        W33066   1.210  15.331   1.991 -0.1118 -0.2025  0.1247
16220W        W33067   4.053  11.723   1.602 -0.3107  0.0459  0.0785
16221W        W33068  13.549  10.380  13.192  0.2160  0.4391  0.0909
16222W        W33069  12.314   8.161   1.387 -0.2164 -0.0513 -0.1353
16223W        W33070   3.351  17.702  13.737 -0.0185 -0.1580  0.2498
16224W        W33071   0.963   8.999   1.235  0.1640  0.2383  0.2278
16225W        W33072   5.052  19.544  13.396 -0.2617  0.0999 -0.4256
16226W        W33073  17.329   1.989   5.125 -0.1738 -0.2328  0.0444
16227W        W33074   2.245   3.696   3.538 -0.3076 -0.0993 -0.1506
16228W        W33075   4.514  19.172   0.627 -0.0307  0.2799  0.2973
16229W        W33076  13.868   0.822   4.577 -0.1152 -0.2115 -0.2282
16230W        W33077   1.404  13.960  13.897  0.0142 -0.0762  0.0503
16231W        W33078  12.523  15.862  10.850  0.0600 -0.1680 -0.2624
16232W        W33079   1.914  12.703   0.646 -0.1771  0.1197  0.0897
16233W        W33080   9.253   7.996  12.406 -0.1556 -0.0435  0.2083
16234W        W33081  17.833  11.655   1.721 -0.3833 -0.1348  0.1123
16235W        W33082  14.455   7.349  10.061  0.3202  0.4548 -0.1739
16236W        W33083  18.439  16.167   3.178 -0.1062  0.0064  0.2709
16237W        W33084   4.835  18.553   9.388 -0.0041  0.0406  0.0254
16238W        W33085  14.067  12.456   1.110 -0.2002  0.1480  0.0832
16239W        W33086   5.585   5.748  13.921 -0.1012  0.0962  0.0857
16240W        W33087  13.896  13.180  13.031  0.1607  0.2589 -0.0095
16241W        W33088   5.414  10.726   0.874 -0.1596 -0.1609 -0.1838
16242W        W33089  15.462   8.011  12.696 -0.0714  0.1615 -0.2149
16243W        W33090   0.991  16.862   0.518 -0.1445 -0.1468 -0.0431
16244W        W33091   0.476  11.475   0.249 -0.0265 -0.0431 -0.0828
16245W        W33092  10.862  16.944  12.800 -0.1429 -0.0143 -0.2087
16246W        W33093   1.095  10.565  12.420 -0.2935  0.0451 -0.0812
16247W        W33094   7.850   0.863   1.078 -0.1333  0.1397  0.0454
16248W        W33095  12.996   1.614  14.305 -0.3509  0.0894  0.0132
16249W        W33096  11.736   1.774   1.561 -0.2265 -0.2184  0.2396
16250W        W33097  16.724   5.455  13.795 -0.0340  0.0387 -0.1186
16251W        W33098  15.624  18.005  13.975  0.1025  0.1025  0.1256
16252W        W33099   6.843  13.798   3.213 -0.0509 -0.2861  0.3425
16253W        W33100  11.705  17.300   4.435  0.2454  0.0232 -0.0275
16254W        W33101  10.362  13.160   1.536 -0.0571 -0.1567  0.0956
16255W        W33102  17.788   7.282  11.335 -0.1968 -0.2395 -0.2349
16256W        W33103   4.521  10.855   2.765 -0.1630 -0.4107  0.0271
16257W        W33104  10.104  18.056  14.024  0.0267  0.1866 -0.0324
16258W        W33105   7.248   6.981   0.826 -0.0073 -0.3089 -0.1025
16259W        W33106  12.024   9.309   1.043 -0.2073  0.0100  0.1547
16260W        W33107   3.636  12.651   4.545 -0.0721 -0.2003 -0.1460
16261W        W33108  13.296  17.225   0.848 -0.1589 -0.0310  0.0441
16262W        W33109  19.398  17.593   0.348  0.0981 -0.0524  0.2007
16263W        W33110   7.517  11.585  11.514 -0.1404  0.1653 -0.1234
16264W        W33111  14.461   0.528   3.840  0.0839 -0.2247 -0.1546
16265W        W33112  15.319  17.857  12.816  0.2099  0.2006 -0.0421
16266W        W33113   1.749   6.431  10.669 -0.2351  0.1777 -0.0684
16267W        W33114  14.892  11.565  14.243 -0.0797 -0.0870  0.2842
16268W        W33115  17.392  14.549   0.240 -0.0231  0.2380  0.1228
16269W        W33116  15.839  15.368  11.615  0.0545  0.0174  0.3320
16270W        W33117   6.523  18.406   3.367  0.0157 -0.0711  0.2698
16271W        W33118  14.459   6.336  14.087  0.1037 -0.4061 -0.2499
16272W        W33119   9.198   6.037  14.247 -0.0680  0.2403  0.2784
16273W        W33120  13.192  16.360   2.953  0.0310  0.2230 -0.4338
16274W        W33121  13.358  12.894   0.143  0.1573 -0.0597  0.0865
16275W        W33122   8.206   0.951   3.055  0.1940  0.1297  0.2666
16276W        W33123   6.057  14.295  10.526 -0.0810  0.3893  0.1504
16277W        W33124   7.795  14.393   1.523  0.4350  0.0740 -0.0415
16278W        W33125   9.682   6.072   0.293 -0.1475  0.4608 -0.3154
16279W        W33126  17.261   2.537   2.436 -0.0886 -0.0466  0.2707
16280W        W33127   0.485   7.062  12.473 -0.2091  0.0100 -0.1850
16281W        W33128   8.701  10.515  11.062 -0.2872  0.1392  0.1950
16282W        W33129  16.737  17.965   2.571 -0.2038 -0.0745  0.0952
16283W        W33130  18.343   4.518  12.305  0.1538 -0.2211  0.2236
16284W        W33131  10.864   6.925   5.149  0.0637  0.2076 -0.1545
16285W        W33132  17.780   9.498  11.833  0.2214 -0.1262  0.1249
16286W        W33133   8.578   5.411   1.439  0.1491 -0.0655  0.0516
16287W        W33134   8.818  11.908   3.651 -0.0788  0.2667  0.0179
16288W        W33135   5.344  11.965   3.890  0.0255  0.1247 -0.2773
16289W        W33136  16.555  13.406   2.526 -0.1702 -0.1577 -0.1700
16290W        W33137   0.013   9.815  12.591  0.0603  0.3216  0.3957
16291W        W33138  13.333  13.618  10.613 -0.0001 -0.0084  0.3699
16292W        W33139   9.508  17.224   1.282  0.0257  0.1463 -0.2168
16293W        W33140   8.999  11.429  13.086 -0.0987  0.0754  0.1924
16294W        W33141   2.692   2.982  12.461 -0.1816  0.2649 -0.0079
16295W        W33142   2.123  14.215   4.177 -0.0882 -0.2004  0.2312
16296W        W33143   9.352   7.805  12.909  0.0689  0.1221 -0.1968
16297W        W33144   8.055  14.882   0.712 -0.2558 -0.3814 -0.2288
16298W        W33145  12.355  16.728  10.988  0.0168  0.5248  0.0316
16299W        W33146   9.930   5.847  13.994 -0.2362  0.2085 -0.2459
16300W        W33147   7.337   5.852  14.453 -0.0123  0.1447  0.1684
16301W        W33148  18.349   7.197  11.582  0.0220  0.2683 -0.2067
16302W        W33149  17.932  16.255  11.752  0.5893  0.1216  0.0884
16303W        W33150  18.781   6.637   4.192  0.4411  0.0107  0.0178
16304W        W33151   5.662   5.947   3.902  0.3354 -0.2093  0.1745
16305W        W33152  10.509   3.983   0.989 -0.3209 -0.0207  0.0826
16306W        W33153  19.149  10.876  10.197 -0.1097 -0.1837 -0.2700
16307W        W33154  14.052  11.128   1.423  0.2451 -0.2297  0.0205
16308W        W33155   3.380  16.140   0.976  0.2031  0.0878 -0.0700
16309W        W33156   6.774   6.098   9.343 -0.0197  0.0551 -0.1330
16310W        W33157  15.851  15.043   4.304  0.1730  0.0866 -0.1910
16311W        W33158   1.413   5.949   4.677 -0.3356  0.2369 -0.1396
16312W        W33159  15.822  11.576   1.435 -0.0576 -0.0728  0.0281
16313W        W33160   4.776   2.928   3.420 -0.2139  0.3922 -0.0908
16314W        W33161   7.354   9.824  12.266 -0.0562 -0.0950 -0.0593
16315W        W33162   3.005  12.253   3.239  0.0663  0.4356  0.1168
16316W        W33163   6.935   8.039  14.313  0.0940  0.0892 -0.1049
16317W        W33164  12.211  19.156  12.492 -0.1325  0.0085  0.2014
16318W        W33165   7.716  19.626   1.222  0.3344 -0.0011 -0.1260
16319W        W33166   5.549  15.012  14.162 -0.0936  0.1510  0.0425
16320W        W33167   0.161  15.205   1.719  0.2325 -0.1674 -0.0239
16321W        W33168   7.007  12.790   4.516 -0.2444 -0.2464  0.0137
16322W        W33169  10.487  11.014   0.703  0.0083 -0.0069  0.0219
16323W        W33170   6.953   3.186  10.221  0.2892 -0.1104  0.0379
16324W        W33171  12.751   7.756  13.124  0.2549 -0.0069  0.4128
16325W        W33172   2.028   2.763   3.774 -0.0041  0.2723  0.1298
16326W        W33173  13.723  10.873   4.127 -0.2319  0.1839 -0.0596
16327W        W33174   1.401  12.854   3.854  0.4347 -0.0013 -0.0395
16328W        W33175  11.363  13.822  10.976  0.1666  0.0016  0.0398
16329W        W33176   7.302   8.753  11.456 -0.0023 -0.0858  0.2871
16330W        W33177   8.315   3.149  11.953  0.0784  0.1989  0.0636
16331W        W33178   4.974  10.876  10.370 -0.2641 -0.0309  0.2034
16332W        W33179   2.922  17.244  13.189  0.3424 -0.2034  0.0405
16333W        W33180  13.300  12.338  14.597 -0.1696 -0.3426  0.0131
16334W        W33181  16.651   9.784  14.323 -0.2223  0.0600  0.0035
16335W        W33182   8.022  18.263   9.458  0.0553  0.0107 -0.1575
16336W        W33183   1.416   1.030  11.014 -0.1363 -0.0894  0.0815
16337W        W33184   3.914   2.103  12.768  0.1520  0.2506  0.1633
16338W        W33185   6.273   4.231  13.950 -0.3612  0.2869 -0.2945
16339W        W33186  13.999  10.213  13.450 -0.2580 -0.0798 -0.0959
16340W        W33187  17.279  13.513   3.373 -0.0630  0.0328  0.2582
16341W        W33188   1.213  12.371  13.674  0.1454 -0.1802 -0.1104
16342W        W33189   5.456  17.579   2.151  0.2808  0.0483 -0.1777
16343W        W33190  14.802   4.239  10.839 -0.3031 -0.3432 -0.0038
16344W        W33191  18.833   4.320  12.724 -0.1035 -0.2631 -0.0235
16345W        W33192  14.977  13.780  10.113 -0.1184  0.0410 -0.3307
16346W        W33193   0.432   3.437   5.561 -0.1044 -0.1058  0.2890
16347W        W33194   8.230   6.286   0.847 -0.3520 -0.3276  0.0654
16348W        W33195   8.086  10.304   0.790  0.2922  0.0131 -0.1252
16349W        W33196   5.371  10.727  14.412  0.0685  0.0399 -0.3006
16350W        W33197  10.848   0.327  12.765 -0.3882 -0.1270 -0.0233
16351W        W33198   4.647  10.844   0.714  0.3013  0.2904 -0.2099
16352W        W33199  16.015  11.180   3.948 -0.3395  0.0194 -0.1287
16353W        W33200   7.073   5.978  12.645 -0.0870  0.0538 -0.1760
16354W        W33201  19.344   5.878   3.019 -0.1465  0.0135 -0.0435
16355W        W33202   0.592  17.671  13.594  0.1269  0.2024  0.2107
16356W        W33203  17.418  13.314  10.246 -0.4986 -0.3933 -0.0112
16357W        W33204  15.483   6.981   4.436  0.0308 -0.1255 -0.2988
16358W        W33205   6.366  18.309  12.357 -0.0676  0.3775  0.3446
16359W        W33206  11.709  11.927   3.019 -0.2687  0.1169  0.0184
16360W        W33207   0.870  10.770   2.410  0.1459 -0.0671 -0.1344
16361W        W33208  14.495   3.880   3.822 -0.0151 -0.2464  0.0492
16362W        W33209  17.392  12.936   1.190 -0.1438  0.3264 -0.0850
16363W        W33210  13.641   8.515   5.907 -0.0470 -0.1028  0.0528
16364W        W33211  15.376   7.515  11.370  0.1968 -0.0623 -0.2314
16365W        W33212   5.267   6.591  13.892 -0.3339  0.1819 -0.0906
16366W        W33213  12.530   1.298   3.875  0.2741  0.2401  0.2648
16367W        W33214  14.934  17.287   0.687  0.1728 -0.1824 -0.1381
16368W        W33215  13.986  14.683   4.191  0.2799  0.0368 -0.1527
16369W        W33216  14.734  17.352   1.816 -0.1895  0.0245  0.0295
16370W        W33217   2.877  14.138  13.077  0.3352 -0.0433  0.0592
16371W        W33218  12.108  16.174  10.978 -0.1476 -0.0481  0.3019
16372W        W33219  16.592   1.616   0.248 -0.1599  0.1193 -0.2491
16373W        W33220  18.558   4.264  11.573  0.0280  0.0158 -0.2002
16374W        W33221  10.710  12.222  13.523  0.1884  0.2450  0.0806
16375W        W33222  16.666  12.691  13.881 -0.0810 -0.3331 -0.1240
16376W        W33223  15.418   9.168  13.077 -0.1420 -0.5280 -0.2294
16377W        W33224  18.854   0.931   3.599  0.0976  0.0919 -0.2128
16378W        W33225  16.436   9.377  12.026  0.1102  0.1788  0.0454
16379W        W33226  15.963   0.448   2.589 -0.4157  0.0270 -0.1026
16380W        W33227   0.142   9.214   5.519  0.3102  0.2734  0.0123
16381W        W33228   7.575  16.396   4.757 -0.2329  0.0252  0.1392
16382W        W33229  18.705   0.602  14.378  0.0610  0.0801 -0.0067
16383W        W33230   6.021   9.359  12.830  0.2633 -0.1070  0.1103
16384W        W33231   1.215  16.719  12.469  0.0379  0.3575  0.1081
16385W        W33232   0.737  11.565  10.931 -0.2069 -0.0381 -0.1939
16386W        W33233  16.786   4.739  12.123 -0.2604  0.2236  0.2269
16387W        W33234   9.712   6.196  11.667  0.3407 -0.0178  0.1643
16388W        W33235  14.041   4.921  10.384 -0.0627 -0.2059  0.1588
16389W        W33236  11.674  13.094   5.647  0.0116 -0.0668 -0.1219
16390W        W33237  14.722  12.276   4.879 -0.1797  0.1561 -0.2753
16391W        W33238  12.268  13.555  11.249  0.5674  0.1297 -0.0303
16392W        W33239   2.493   2.526  12.878 -0.2352 -0.3475  0.0110
16393W        W33240   2.608  13.039  11.063 -0.1209 -0.0743 -0.2987
16394W        W33241  12.624  12.225  13.933  0.0930 -0.2475 -0.1820
16395W        W33242  18.213  17.886   2.263  0.0348  0.0456 -0.0315
16396W        W33243   4.762   0.176  13.080 -0.1294  0.0593 -0.1918
16397W        W33244  17.238   9.541  13.223 -0.1340  0.1924 -0.4029
16398W        W33245   7.666   2.935   2.114 -0.1275  0.0232  0.2654
16399W        W33246   9.472   0.465  13.533  0.1428  0.2089 -0.0368
16400W        W33247  15.431  19.360  10.231 -0.1252 -0.0872  0.0344
16401W        W33248   7.792   8.134  10.207  0.0036 -0.1679  0.0908
16402W        W33249   6.239   6.877   4.891  0.1015 -0.1054 -0.2387
16403W        W33250   1.288   3.912   3.627  0.2505 -0.3514  0.1823
16404W        W33251  16.174  13.251   0.745 -0.2246 -0.4565  0.2176
16405W        W33252   0.017   2.568   0.540  0.0298 -0.1635  0.2371
16406W        W33253   5.349   2.532  14.585 -0.1326 -0.3152 -0.0911
16407W        W33254   0.738   9.640  12.846  0.0220  0.2688 -0.1556
16408W        W33255   1.505   0.237  11.334 -0.4268  0.0075  0.2663
16409W        W33256   5.048   5.993   3.751  0.2102 -0.1054 -0.1391
16410W        W33257  16.630  17.216  12.723 -0.3857 -0.1057  0.0976
16411W        W33258   4.655   5.950  10.612  0.1870 -0.2071 -0.0892
16412W        W33259  10.502   3.578  11.708  0.2653 -0.1659  0.3422
16413W        W33260   6.871   8.544  12.226  0.4351  0.3374 -0.0245
16414W        W33261   7.613   5.974   3.116  0.1588  0.1300  0.4216
16415W        W33262  15.853   3.033   3.342  0.0738  0.0262 -0.1175
16416W        W33263  17.472   7.356   3.618  0.2877  0.0613 -0.0967
16417W        W33264  16.223  13.690  14.123 -0.1331  0.1796  0.1042
16418W        W33265   7.373  12.861   4.932 -0.2539 -0.0188  0.1917
16419W        W33266   3.967  18.345  11.036  0.1341 -0.2907  0.0353
16420W        W33267   8.872  16.293   2.950  0.0576 -0.0736  0.2876
16421W        W33268  12.077  18.429   3.058  0.2052 -0.0581 -0.1043
16422W        W33269   2.160   2.969  11.207  0.1118  0.2519 -0.1795
16423W        W33270  19.150  15.418   0.692  0.0383  0.1113  0.2726
16424W        W33271   8.589  14.754  14.581 -0.0153 -0.0617 -0.3611
16425W        W33272  11.548   6.772   3.493 -0.0554 -0.0536 -0.0617
16426W        W33273   9.136   9.447   2.841  0.3696 -0.1666 -0.4109
16427W        W33274  14.280   8.588  13.703 -0.1812  0.1968  0.0183
16428W        W33275  17.297  15.480  11.818  0.2609  0.2277  0.1588
16429W        W33276  16.033   7.197  12.830 -0.2703  0.1520  0.4797
16430W        W33277  14.934   6.753   2.714 -0.4581  0.0005  0.1443
16431W        W33278  14.031   6.109   3.579  0.1893  0.3933  0.1359
16432W        W33279   4.384  13.893  13.582 -0.2069 -0.1981 -0.1048
16433W        W33280  10.419  11.573  10.813  0.0504 -0.3627 -0.0133
16434W        W33281  17.414   1.167  13.823 -0.2424  0.1039  0.0263
16435W        W33282  15.236  11.975   3.842 -0.3012 -0.1035 -0.0053
16436W        W33283  15.971  10.371  11.923  0.2076  0.3195  0.1740
16437W        W33284   4.989   7.305   2.436  0.2324 -0.1156  0.0144
16438W        W33285   6.205   7.425   1.673 -0.0645  0.1165  0.0521
16439W        W33286   4.903   3.732   3.104  0.2461 -0.0364  0.2280
16440W        W33287  12.980  16.176  11.267  0.2811  0.2527  0.1027
16441W        W33288  10.751   1.596   3.421  0.0224  0.0330  0.1289
16442W        W33289   4.713  12.935  11.968  0.1350 -0.2417  0.2993
16443W        W33290   2.332  13.336   1.024  0.0191  0.0238  0.0824
16444W        W33291   3.688   7.858   4.388  0.0656 -0.1277  0.3329
16445W        W33292   4.251  13.409  12.536 -0.0433  0.1583  0.2644
16446W        W33293   6.821   3.173  13.217 -0.1432  0.0106  0.0692
16447W        W33294  19.604  15.591  14.297 -0.2337 -0.1179 -0.2932
16448W        W33295   1.138   2.049   3.912 -0.0136 -0.3786 -0.0883
16449W        W33296  10.439   3.661   4.856 -0.0218  0.1377  0.1520
16450W        W33297  11.663  11.574  11.019 -0.1241 -0.1822 -0.0782
16451W        W33298  16.662  10.272   0.078  0.1030  0.0626 -0.0634
16452W        W33299  10.980   6.053  11.192 -0.1582 -0.0003  0.3286
16453W        W33300   0.919  14.265  13.954 -0.0002  0.1691 -0.0342
16454W        W33301  12.191  10.420   3.281 -0.2646  0.2049 -0.2323
16455W        W33302   2.624  15.941   4.332 -0.1761  0.4680 -0.2733
16456W        W33303  13.986   5.443   0.796 -0.0334 -0.0134 -0.0623
16457W        W33304  17.088   4.760   4.509  0.0338 -0.1048  0.2566
16458W        W33305   4.390  15.365  12.966 -0.0741 -0.0946  0.4378
16459W        W33306  18.726   0.185  11.174  0.4493 -0.0823 -0.1730
16460W        W33307   2.505  16.087   0.738  0.0422  0.0101  0.2998
16461W        W33308   1.484   8.202   2.013 -0.0540  0.0449  0.0604
16462W        W33309   0.756  14.350  13.230 -0.0532  0.0886 -0.2456
16463W        W33310   5.402   6.497   4.608  0.0221 -0.1248 -0.1327
16464W        W33311   7.428  14.998  14.530 -0.3302 -0.3001  0.1350
16465W        W33312   4.059  16.817  10.477  0.2909 -0.1388  0.3150
16466W        W33313  18.879   7.742  10.233  0.1232 -0.1885 -0.1547
16467W        W33314   1.160   6.626  13.030  0.4648  0.1901  0.4487
16468W        W33315  15.451  13.181   4.551 -0.4331 -0.1583  0.0922
16469W        W33316   2.206   6.263   4.441 -0.2748 -0.0490  0.1232
16470W        W33317   3.513  19.124  13.066  0.0788  0.0351 -0.0749
16471W        W33318  17.318  12.866  10.812 -0.2857 -0.1774  0.2380
16472W        W33319  12.009  17.732   3.240 -0.0257 -0.1893  0.1365
16473W        W33320   7.512  19.061  11.808 -0.1781  0.0298  0.0313
16474W        W33321   8.681  15.395   1.510 -0.0145 -0.0578  0.0297
16475W        W33322   8.194   8.752   9.380 -0.0693  0.1682  0.5447
16476W        W33323   3.124  14.900   0.328 -0.2304  0.1240  0.2453
16477W        W33324   2.548  13.219   2.363 -0.0944  0.1338  0.1386
16478W        W33325  10.696   3.607   0.053 -0.1295 -0.4106  0.0538
16479W        W33326   0.530   6.233  10.968 -0.0281  0.0103 -0.0579
16480W        W33327   2.446  16.987  12.672 -0.0123  0.0479  0.1051
16481W        W33328   6.805  15.040   3.690 -0.2896  0.2351 -0.0111
16482W        W33329   0.649   9.918   0.275  0.1835 -0.0267 -0.3112
16483W        W33330   2.979   4.056  12.536  0.5155 -0.1456 -0.0704
16484W        W33331   4.173  10.681  12.573  0.1382 -0.0218  0.2509
16485W        W33332  10.028   0.238  13.265 -0.1947  0.0631  0.0244
16486W        W33333  18.455  17.344   0.737  0.0470 -0.0282  0.2223
16487W        W33334  19.222  18.419  14.144 -0.4148  0.2074  0.2396
16488W        W33335  10.053  13.788  13.985 -0.0613 -0.2589 -0.2009
16489W        W33336   8.448  11.761   0.950  0.1347 -0.1656  0.3747
16490W        W33337  15.380   2.804   3.417 -0.3743 -0.1700  0.0429
16491W        W33338  14.389   0.265  12.510  0.4420  0.0425  0.2160
16492W        W33339   1.637  13.984   4.243  0.0867  0.2022 -0.0207
16493W        W33340  15.378  13.979   1.499 -0.1425  0.0418 -0.1005
16494W        W33341  15.958   3.552  12.289 -0.2793 -0.0689  0.1374
16495W        W33342   6.583   3.043   3.934  0.2455  0.1232 -0.1674
16496W        W33343  17.083   8.050   4.734 -0.3806 -0.2193  0.2119
16497W        W33344  17.433  18.528  13.014  0.0400 -0.0669 -0.1061
16498W        W33345   4.578   3.362   3.286  0.3432 -0.1725 -0.2091
16499W        W33346   9.853   0.269  14.380 -0.3801 -0.1509  0.2438
16500W        W33347  18.883  17.185   2.547 -0.0090 -0.0135  0.1637
16501W        W33348  13.353   3.077  11.059 -0.1194  0.0281  0.0557
16502W        W33349   3.115   2.767  12.275  0.3414 -0.0104 -0.0801
16503W        W33350   6.516   4.765  11.566  0.0201  0.2972  0.2475
16504W        W33351  19.041   5.809   0.955 -0.0112 -0.2395  0.1414
16505W        W33352  13.912   5.423  12.416 -0.1993 -0.0466 -0.0829
16506W        W33353   6.136  12.173  14.536 -0.3833 -0.1641  0.0215
16507W        W33354   5.265  12.171   2.894  0.2175 -0.1723 -0.1592
16508W        W33355   8.252  18.515  12.622 -0.1817 -0.1647 -0.0845
16509W        W33356  10.358  13.137  10.044 -0.0519 -0.0632 -0.2021
16510W        W33357   9.909   8.014   1.468 -0.1765 -0.0525  0.0643
16511W        W33358   4.986  12.717  11.486  0.6637  0.0332  0.5049
16512W        W33359   2.565   6.716   5.099 -0.1113 -0.0641  0.1782
16513W        W33360  19.028  12.759  12.536 -0.1242  0.3437 -0.1539
16514W        W33361   1.477   9.823   0.979  0.2168  0.0461  0.3047
16515W        W33362   6.457  19.511   1.455  0.1438 -0.3266 -0.0784
16516W        W33363  17.563   4.305  12.263  0.0814  0.2891  0.0511
16517W        W33364   8.574   9.238  14.047 -0.0681  0.3294 -0.0220
16518W        W33365  14.497  17.518  13.823 -0.2657  0.0759 -0.1878
16519W        W33366   8.608  10.181   2.136  0.0991  0.0148  0.0697
16520W        W33367   2.094  18.960   4.586  0.0245  0.1131 -0.0991
16521W        W33368   9.028   3.876  10.263  0.2044  0.2418 -0.0628
16522W        W33369  11.082  18.507  13.321  0.0884 -0.0839  0.3119
16523W        W33370   9.179  19.078  12.601 -0.1219  0.1458  0.3886
16524W        W33371  16.455  16.602  14.070  0.0693  0.1055 -0.3497
16525W        W33372  10.893   5.206  13.397 -0.0526  0.3151  0.0679
16526W        W33373   7.339  17.027   0.467  0.2777  0.0122  0.2711
16527W        W33374   3.765  16.536  13.993  0.0623 -0.0154  0.0334
16528W        W33375  18.283   5.051  11.498  0.1123 -0.1830 -0.0254
16529W        W33376  17.085   5.275  12.927  0.1269  0.1127 -0.2028
16530W        W33377  14.039  19.293   2.385 -0.3166 -0.1292  0.1239
16531W        W33378   7.652  14.325   4.820  0.2276 -0.0547  0.1280
16532W        W33379   9.855  14.245   1.320  0.2270  0.1184  0.2338
16533W        W33380   9.349  13.718  13.514  0.2741  0.1876  0.0660
16534W        W33381  18.285   6.341   4.129  0.1156 -0.0300  0.0709
16535W        W33382  10.553   4.366  14.243 -0.2206  0.1366  0.0191
16536W        W33383  12.546   0.189  11.238 -0.1524  0.1939 -0.1305
16537W        W33384  15.997   1.233   3.836 -0.0976 -0.2199 -0.0267
16538W        W33385   0.278   1.492   2.281 -0.3389 -0.0038  0.2494
16539W        W33386   6.089   6.850   9.786 -0.0725  0.2614  0.1760
16540W        W33387   0.187   4.933   2.448  0.1147  0.0445 -0.2110
16541W        W33388   2.824   1.022  12.675  0.1163 -0.1380 -0.3678
16542W        W33389   0.359  11.698  13.055  0.0373  0.0102  0.2234
16543W        W33390   0.309  15.428   4.350 -0.0963 -0.0858 -0.2573
16544W        W33391   2.095   0.573  11.542  0.0146 -0.2405  0.0534
16545W        W33392   3.518  17.652   2.584  0.0501  0.2369 -0.0616
16546W        W33393   6.898  13.223   1.026  0.0627  0.0342  0.0756
16547W        W33394   0.883   2.410  10.494  0.3662  0.2062 -0.0744
16548W        W33395   4.156   4.283   9.219 -0.0529 -0.0055 -0.1529
16549W        W33396  12.908   2.347  13.619  0.0586 -0.1493 -0.2352
16550W        W33397  11.284  16.908   0.901 -0.0229 -0.3291 -0.0092
16551W        W33398   3.616   5.014  14.327 -0.0716  0.2419  0.0587
16552W        W33399  12.510   1.893   0.854  0.0494  0.0987  0.0181
16553W        W33400   8.654   4.580   1.866 -0.1990 -0.1642 -0.2189
16554W        W33401  11.225   2.569  10.165 -0.1000  0.0889 -0.1119
16555W        W33402   3.842  16.299  14.504  0.2963  0.0734  0.0173
16556W        W33403   6.808   9.180  11.451 -0.1098 -0.0406  0.1049
16557W        W33404  13.990   6.518  12.936  0.1843 -0.1328  0.2161
16558W        W33405   9.978  13.413   4.601  0.0465  0.0188  0.0549
16559W        W33406  15.324  10.647   3.517 -0.0356  0.0375 -0.1927
16560W        W33407   2.986  11.923   4.127 -0.0368  0.1147 -0.4237
16561W        W33408  10.877  16.924   0.270 -0.0354  0.2789 -0.2067
16562W        W33409   7.385  15.109   5.059  0.2417 -0.1053  0.4773
16563W        W33410   9.385   3.039  13.379  0.3184 -0.2660  0.2087
16564W        W33411  10.319   5.049  14.074 -0.2829 -0.0766  0.0141
16565W        W33412   1.975  14.414  14.499  0.1962  0.0456  0.2764
16566W        W33413  10.784   0.200   1.034 -0.1944 -0.0263 -0.1386
16567W        W33414  12.627  11.975   1.290  0.0174  0.2711 -0.1480
16568W        W33415  11.613   2.245   4.335 -0.1128 -0.1045 -0.2213
16569W        W33416   6.581   7.570  13.355 -0.0343 -0.0714  0.0205
16570W        W33417  11.798   9.822   1.803  0.2224 -0.1070 -0.2628
16571W        W33418  12.075   6.397  12.797  0.1361 -0.0396 -0.1486
16572W        W33419   1.712  14.954   3.493 -0.0906 -0.0241 -0.0176
16573W        W33420   5.175  16.901  11.958 -0.3912 -0.0519 -0.0208
16574W        W33421  12.650   5.931   1.429  0.2689  0.1802 -0.1018
16575W        W33422  17.595  18.685  11.036  0.0087 -0.1611 -0.1760
16576W        W33423  16.867   7.900  10.262 -0.1069 -0.3563  0.0296
16577W        W33424  17.629  14.878  12.713  0.2292 -0.0476 -0.0217
16578W        W33425   5.702  18.157  14.321  0.2522 -0.2198 -0.1890
16579W        W33426   5.561   7.938   2.240  0.5707 -0.1889  0.1430
16580W        W33427  17.895  10.000  10.944 -0.1639 -0.1488  0.0787
16581W        W33428   1.883  19.420   2.134 -0.0918  0.2002 -0.3719
16582W        W33429   6.313  13.403  14.222 -0.0457  0.2018  0.2017
16583W        W33430   8.953  15.322  13.302  0.1801 -0.2233  0.2913
16584W        W33431  17.264   9.396   4.673  0.4815 -0.0483  0.1866
16585W        W33432  16.518   9.861   5.518 -0.2615  0.1000 -0.1413
16586W        W33433  10.937   3.696   0.953  0.2031 -0.0097  0.1225
16587W        W33434  11.306   9.727  14.272  0.3495  0.2805 -0.2453
16588W        W33435  16.911   5.960   2.683 -0.2620 -0.0863  0.0040
16589W        W33436  13.654  10.065   3.112 -0.4196  0.2157  0.3836
16590W        W33437  13.667  10.644  10.676 -0.2180  0.0700 -0.0941
16591W        W33438  10.381  12.013   2.860 -0.0958 -0.0130  0.1114
16592W        W33439   1.122   7.131  10.698  0.0733  0.2180 -0.0848
16593W        W33440   5.257   4.184  13.772  0.1834  0.0357  0.1349
16594W        W33441   4.133   4.921  12.953  0.1250  0.2611 -0.0331
16595W        W33442   7.043   7.381   1.747 -0.2422  0.0439 -0.0620
16596W        W33443  18.946   6.429   1.726  0.0663  0.0807  0.0161
16597W        W33444   1.422   2.982   2.381 -0.2341 -0.2654 -0.1888
16598W        W33445   3.148  14.497  13.580  0.1493 -0.1517  0.0893
16599W        W33446   1.654   9.593   1.891 -0.0701 -0.0635  0.0790
16600W        W33447  16.523  14.490   4.126 -0.2941 -0.1391 -0.1715
16601W        W33448   0.558  14.417  10.054  0.2563 -0.0915  0.1245
16602W        W33449  12.970   9.001  14.204 -0.1963  0.2689 -0.1212
16603W        W33450   4.947   0.500   2.182  0.0203 -0.0937  0.1563
16604W        W33451   8.753   6.233   3.789  0.0854  0.0798 -0.0957
16605W        W33452  10.127   8.345   1.141 -0.0614  0.0990 -0.1236
16606W        W33453  17.044  17.470   2.859  0.0332  0.5537  0.0012
16607W        W33454  18.719  16.805   2.878  0.0652 -0.1215 -0.0359
16608W        W33455  19.451   6.167   1.555 -0.2842  0.0403 -0.1017
16609W        W33456   0.912  19.516   1.238  0.1955 -0.1672  0.1542
16610W        W33457  17.766  10.884   1.257  0.0390  0.0362  0.0455
16611W        W33458  16.120   3.327  10.488 -0.0079 -0.0904  0.0160
16612W        W33459  15.978  10.311  13.402 -0.0656  0.0132 -0.1527
16613W        W33460  14.071   9.042   4.925  0.1562 -0.1536  0.0567
16614W        W33461   8.660   2.340   2.191 -0.3895  0.2003  0.2988
16615W        W33462  11.718   5.712  13.860  0.3825  0.1266  0.0625
16616W        W33463  15.406   7.367   9.144  0.1997  0.1428  0.1984
16617W        W33464  15.589   5.541  10.653 -0.0663  0.1624 -0.0041
16618W        W33465   4.155  12.648   0.558  0.2653 -0.0916  0.0384
16619W        W33466  16.809  14.552   1.839 -0.1397 -0.0219 -0.2450
16620W        W33467   3.650   0.736   2.084 -0.2659 -0.0099 -0.0947
16621W        W33468   1.502  17.802   9.058 -0.0755  0.2305  0.1311
16622W        W33469  18.188   1.415  11.638 -0.2861  0.2241  0.3703
16623W        W33470  11.107   5.860   9.385 -0.0310 -0.0049  0.1203
16624W        W33471  19.585  13.429   5.300  0.1001  0.1669 -0.3130
16625W        W33472   1.357   0.713   0.063  0.4639  0.2293  0.2824
16626W        W33473  18.920   1.647  14.368 -0.1846 -0.2190 -0.3373
16627W        W33474   4.570  14.183   3.604 -0.0409  0.0519 -0.0937
16628W        W33475  17.800   3.303   2.264 -0.1146 -0.0787  0.0360
16629W        W33476  15.234   6.991  13.842  0.0570 -0.3407  0.0518
16630W        W33477   5.154   0.754   3.856  0.0538 -0.2605  0.2856
16631W        W33478   1.153   8.726   9.582  0.1844 -0.0918  0.2826
16632W        W33479   7.799  12.640  11.062 -0.1090 -0.0900  0.4133
16633W        W33480  13.724   1.867  12.236 -0.1510  0.1567 -0.1976
16634W        W33481  15.558  13.432   0.144  0.1988 -0.1278  0.0143
16635W        W33482  10.143  16.143   1.189 -0.0516  0.1184 -0.1169
16636W        W33483  11.612   5.815   0.040  0.1201 -0.4520  0.0791
16637W        W33484   4.289  11.862   5.111  0.1650 -0.5454  0.1771
16638W        W33485  18.601  16.716   0.858  0.0550 -0.0705 -0.2081
16639W        W33486  11.507   0.595  14.076  0.0652  0.1666 -0.0470
16640W        W33487   2.731   9.350   1.091 -0.1258 -0.0223  0.0177
16641W        W33488  11.786   0.329   5.625 -0.1197 -0.0340 -0.1605
16642W        W33489  13.502  17.586  11.244 -0.0093  0.1435 -0.3565
16643W        W33490  10.647   6.764   0.230 -0.1033 -0.0570  0.1790
16644W        W33491   3.866  11.578  14.423 -0.0432  0.1821 -0.0113
16645W        W33492   8.583   4.274   0.101 -0.1193 -0.1141  0.0269
16646W        W33493  15.558   0.534   1.562  0.0742  0.0717  0.0337
16647W        W33494  13.938   1.708  13.746 -0.1253 -0.1039 -0.1687
16648W        W33495  10.260  17.458  13.701 -0.1745 -0.0365 -0.0573
16649W        W33496  11.780   6.967   1.380  0.1089 -0.1288  0.1560
16650W        W33497   8.622   1.638  14.258 -0.0348  0.0405 -0.1276
16651W        W33498   5.880  10.389   1.788 -0.3973  0.1121  0.1587
16652W        W33499   7.345   2.137   1.126 -0.2080 -0.0190 -0.0573
16653W        W33500  10.146  16.123  11.776  0.0405 -0.0325 -0.1099
16654W        W33501  12.077   1.645   2.733 -0.0142 -0.0735  0.1679
16655W        W33502   0.874  11.068  14.237  0.1278  0.0810  0.3554
16656W        W33503   0.990   2.024  13.863 -0.2654 -0.3528  0.4611
16657W        W33504  15.304   8.114   2.575 -0.2546  0.0155 -0.1683
16658W        W33505  10.872   6.884   2.978 -0.1983  0.1988 -0.0655
16659W        W33506   1.974   2.093   2.673  0.1344  0.0482  0.2467
16660W        W33507   8.518  15.537   4.924  0.4133  0.0325 -0.3657
16661W        W33508   9.408   5.765   1.711 -0.0213 -0.0822  0.0927
16662W        W33509   5.555  18.296  13.828 -0.2561  0.0020 -0.0603
16663W        W33510  16.899  18.451   2.676 -0.2042  0.1859  0.0494
16664W        W33511   3.596   7.791   9.426  0.0091 -0.0605  0.3773
16665W        W33512  19.021  11.817  12.605 -0.1703 -0.0277  0.2549
16666W        W33513   0.979  13.217  13.126 -0.2837  0.2044 -0.1714
16667W        W33514  15.007   6.423  11.885 -0.0078  0.3612 -0.1773
16668W        W33515   7.864   0.262  11.766 -0.2138 -0.2040 -0.4197
16669W        W33516  13.550   7.196   0.985  0.1701  0.2859 -0.0680
16670W        W33517  16.747  13.495  14.065 -0.0285  0.3731  0.0825
16671W        W33518   1.202  18.023   2.666  0.1203  0.1530  0.1198
16672W        W33519   5.066   4.003  11.274 -0.1929  0.2745  0.1376
16673W        W33520   8.853  10.126   1.195  0.0998 -0.0598 -0.4360
16674W        W33521   8.912  15.042   1.815 -0.5494  0.5550  0.1652
16675W        W33522   8.070   5.887   4.462  0.1453 -0.1209 -0.0951
16676W        W33523  16.638   4.511  11.256 -0.1705 -0.1333  0.2301
16677W        W33524   7.534  15.889   3.139 -0.3682  0.1585  0.0029
16678W        W33525  11.154  15.198  12.077  0.1337 -0.1123 -0.0154
16679W        W33526   0.665  12.921  13.757 -0.0197 -0.1086  0.1858
16680W        W33527   2.438  17.997  11.588  0.3831  0.0802  0.0677
16681W        W33528   0.573   1.158   5.231 -0.1138 -0.3179 -0.0223
16682W        W33529   5.257   2.175  11.996 -0.2884  0.1314 -0.0106
16683W        W33530  10.672  14.575  11.621  0.0782 -0.2710  0.0292
16684W        W33531  14.758  18.791   4.321  0.0624  0.2041  0.0057
16685W        W33532   2.042   3.264   4.537 -0.1690 -0.1648  0.2965
16686W        W33533  10.815   6.399  11.510 -0.1031 -0.0914  0.0696
16687W        W33534   3.618  11.971   1.240  0.0665  0.2115 -0.0229
16688W        W33535  12.775   6.347  13.384 -0.1115  0.0523 -0.2908
16689W        W33536  11.700   1.754  10.610 -0.1413 -0.0468 -0.1633
16690W        W33537   2.055  17.257   0.037  0.1843  0.1065 -0.1623
16691W        W33538  13.417   5.064  14.386 -0.1379 -0.1892 -0.0891
16692W        W33539  16.264   3.941  12.354 -0.3594 -0.3028  0.0608
16693W        W33540   8.015   6.334  14.428 -0.0322  0.2416 -0.0924
16694W        W33541   7.492   9.083   1.186 -0.0805  0.1466 -0.0374
16695W        W33542   8.700   4.253  13.561 -0.2629  0.1680  0.3056
16696W        W33543   2.943   4.603  10.605  0.5881  0.3008 -0.2431
16697W        W33544   9.541   3.521  13.974  0.0571 -0.0657  0.0728
16698W        W33545   1.260   9.496   5.533 -0.2014 -0.0023  0.1181
16699W        W33546   5.823   1.888   4.365  0.0109  0.1930  0.4602
16700W        W33547   2.413   6.734  10.940 -0.0350  0.0096 -0.0402
16701W        W33548  15.482   9.622  13.992  0.1222  0.0718  0.0461
16702W        W33549   1.125  12.411   3.148 -0.0987 -0.1929 -0.0764
16703W        W33550  12.118   6.733  10.265 -0.2107 -0.2727 -0.0664
16704W        W33551  11.156   4.213   5.536 -0.3753  0.0864 -0.1798
16705W        W33552  18.211  14.560   9.996  0.0315  0.4739 -0.2484
16706W        W33553  18.924  16.743  14.529  0.2525  0.1080 -0.4204
16707W        W33554   9.816  17.251   3.448  0.3386  0.1264  0.0415
16708W        W33555   6.897   0.774   2.843  0.3001 -0.0257 -0.0435
16709W        W33556  17.212   0.406  12.143  0.1126  0.1653 -0.0429
16710W        W33557   9.729   9.166   3.139  0.0894  0.0373  0.4766
16711W        W33558   9.491   6.907   4.757 -0.0405  0.4297  0.1851
16712W        W33559  19.038   7.544  12.543  0.2118 -0.2031 -0.1987
16713W        W33560   9.283  18.995   2.459  0.3271  0.3622  0.1076
16714W        W33561   7.076   5.736   0.305 -0.3109  0.5329 -0.2535
16715W        W33562   3.925   5.245  11.402 -0.0071 -0.1232  0.1873
16716W        W33563  17.148  14.483   1.069 -0.0202  0.2326 -0.0363
16717W        W33564   4.031  16.118   0.450 -0.3982  0.1750 -0.0105
16718W        W33565  14.901  18.337   4.004 -0.0856  0.2220  0.2113
16719W        W33566  11.053   5.690   2.582  0.2998  0.1113  0.0052
16720W        W33567  12.465   3.083   2.595 -0.0970  0.2020 -0.0026
16721W        W33568   1.399   3.630  11.912  0.0690 -0.1126 -0.1083
16722W        W33569   5.543  10.645   4.945  0.1003 -0.2679  0.0744
16723W        W33570  16.361  16.421   4.684 -0.1510 -0.2080 -0.0564
16724W        W33571  13.999   3.560   0.856  0.1764  0.1771  0.1712
16725W        W33572   8.234   3.476  13.961  0.1295  0.0427  0.0225
16726W        W33573  17.160  14.770   4.820 -0.1854  0.1369  0.4371
16727W        W33574   3.677  16.495   1.216 -0.2156  0.0150 -0.2382
16728W        W33575  11.576  19.373   1.457 -0.2325  0.0574  0.1468
16729W        W33576  14.498   8.164   0.977  0.1764  0.1244 -0.1284
16730W        W33577  11.039   3.961   4.097 -0.0205  0.1714 -0.0256
16731W        W33578  11.102   1.440   1.608  0.1401 -0.0382  0.0326
16732W        W33579  13.143   5.110   4.674 -0.1873 -0.0773  0.3733
16733W        W33580   1.661  10.695   0.502  0.1548 -0.0834  0.2927
16734W        W33581   7.218  18.265   2.659  0.0457 -0.0368 -0.3516
16735W        W33582  17.028  10.592   0.174  0.2403  0.0037  0.0119
16736W        W33583  17.266  11.654  13.712  0.2373 -0.3057 -0.0368
16737W        W33584  17.591  17.361   4.448 -0.1828  0.2837  0.0621
16738W        W33585  16.796  10.860  14.392  0.0399 -0.3247  0.0362
16739W        W33586   3.934   3.247   4.782  0.0261 -0.0532  0.0595
16740W        W33587  13.869  14.336   9.991 -0.2375 -0.1096  0.0210
16741W        W33588  17.191  19.394   2.200  0.0883  0.0759 -0.0154
16742W        W33589   3.334   8.033  13.899 -0.0467  0.0757 -0.0489
16743W        W33590   3.850  12.938   1.802 -0.0531  0.3144  0.3717
16744W        W33591  16.269  17.253   3.424 -0.2641 -0.0552  0.0318
16745W        W33592   7.788  18.136  12.076  0.0746  0.0019  0.3305
16746W        W33593   1.936   9.606   1.388  0.0967  0.0563 -0.0312
16747W        W33594   0.172   6.399   4.169 -0.5156 -0.1257  0.3600
16748W        W33595   7.711  11.656   4.699 -0.2818  0.0222  0.1097
16749W        W33596  18.965  18.091   3.513 -0.2313 -0.1430 -0.2065
16750W        W33597  13.163   7.862  13.381  0.0134 -0.0398  0.3402
16751W        W33598  16.787  13.333  10.871 -0.0430  0.0634 -0.0297
16752W        W33599   0.181  16.395   0.880  0.3479  0.1334 -0.1666
16753W        W33600   1.065   0.561   2.571 -0.5305  0.1156 -0.1422
16754W        W33601   7.433  18.057   1.146 -0.0840 -0.1570 -0.2802
16755W        W33602  14.174   6.494   4.858 -0.3126  0.1673 -0.1213
16756W        W33603   3.549   5.295   4.215 -0.0414 -0.0050  0.1454
16757W        W33604  15.318   9.720  13.013  0.2011  0.0592 -0.1831
16758W        W33605   4.218   1.556  12.949 -0.4139  0.1385  0.1082
16759W        W33606  18.945   8.741   2.694  0.0722  0.0869 -0.0835
16760W        W33607  12.642  19.383  12.808  0.3145  0.1621  0.0432
16761W        W33608  11.580  17.333   3.490 -0.0181 -0.1643 -0.2961
16762W        W33609   1.998  17.068  12.997 -0.4495  0.0085 -0.6446
16763W        W33610   8.617  10.055  10.873 -0.1247 -0.1675  0.4145
16764W        W33611  15.009   0.502   3.236 -0.1149  0.1996 -0.0452
16765W        W33612   2.662  14.354  13.512  0.0221  0.2788  0.2120
16766W        W33613  17.800   2.260   2.214  0.1298  0.2103 -0.1064
16767W        W33614   0.561  17.170  13.433  0.0753  0.1439  0.4240
16768W        W33615   0.677  18.339  10.337  0.0447 -0.0726 -0.0541
16769W        W33616   5.918  16.042   1.576  0.2803 -0.0796 -0.1545
16770W        W33617   3.276  17.130  11.358 -0.1402 -0.0392 -0.1369
16771W        W33618   1.661  15.203  10.452  0.0295 -0.2034  0.0655
16772W        W33619   3.055  16.328  10.256  0.0372  0.0675 -0.1666
16773W        W33620   8.016  18.798   1.141 -0.1026 -0.2181 -0.1507
16774W        W33621  14.056   7.158   3.195  0.2130  0.0487 -0.2461
16775W        W33622   9.022  19.282   1.826 -0.1127 -0.1291  0.0714
16776W        W33623   2.907  14.949  13.783  0.0766 -0.0016  0.1768
16777W        W33624   4.263  10.178  12.215 -0.0039 -0.0226 -0.3451
16778W        W33625  19.016   9.781  14.556  0.0393  0.0992  0.2277
16779W        W33626   7.412   7.972  11.611 -0.1635 -0.0891  0.2508
16780W        W33627  12.556  17.601   0.934  0.0557 -0.0830 -0.0194
16781W        W33628   6.972   2.609   0.797 -0.1862  0.2396 -0.1104
16782W        W33629  10.728  15.470   4.007 -0.2498 -0.5563  0.1151
16783W        W33630   0.473   1.889   1.955 -0.1659 -0.4435  0.0194
16784W        W33631  11.492   5.097   5.060  0.0686 -0.1169 -0.0331
16785W        W33632   9.543   8.373   1.300 -0.0182  0.1464  0.2723
16786W        W33633   9.811   5.391  13.188  0.0207 -0.3232  0.0623
16787W        W33634   1.551  11.198  12.948 -0.2785 -0.3048  0.1055
16788W        W33635   8.476  16.450   3.405 -0.2723 -0.0862  0.2577
16789W        W33636   7.615   2.032  13.129  0.0802 -0.0410  0.4615
16790W        W33637  11.196  10.909   3.285 -0.0114 -0.0432 -0.0127
16791W        W33638   4.058   8.989   1.155  0.1323  0.0791  0.0087
16792W        W33639  11.678   8.633  12.319  0.2202 -0.0512 -0.0158
16793W        W33640   1.423  15.421  12.063 -0.1384 -0.1441  0.1584
16794W        W33641  11.280   9.994   1.212  0.1587  0.2345  0.1936
16795W        W33642  17.234   9.959   2.450  0.0809  0.0351 -0.2664
16796W        W33643  11.290  14.057   4.188 -0.1009  0.3407  0.0218
16797W        W33644   9.955  16.727   0.446 -0.1182 -0.1075 -0.1429
16798W        W33645   6.725   7.079  12.448 -0.1556  0.3882  0.0221
16799W        W33646   6.958   9.314   4.627 -0.0723 -0.0537  0.2197
16800W        W33647  13.506   3.296   4.451 -0.1098  0.4696  0.3662
16801W        W33648  10.077  18.338   4.606  0.0467  0.1264  0.0370
16802W        W33649   9.667  18.281   0.254 -0.3680 -0.2361  0.0517
16803W        W33650   9.633  18.366  13.136  0.0029  0.0355 -0.4505
16804W        W33651  17.219   6.868  14.289  0.2649  0.3479 -0.2509
16805W        W33652  11.880   5.103   2.777 -0.0396  0.1920  0.1628
16806W        W33653   0.186  12.416   2.823  0.0735 -0.1907 -0.2295
16807W        W33654   0.563  17.744   2.247 -0.2640  0.1684  0.0887
16808W        W33655   3.899   0.691   2.973 -0.2641 -0.0039  0.3274
16809W        W33656   1.285  19.145  10.436 -0.0728  0.1199  0.1711
16810W        W33657   6.472   6.213  11.331  0.4209  0.0228 -0.0091
16811W        W33658   9.684  10.056   3.179 -0.0437 -0.2948  0.3738
16812W        W33659   4.559   8.346   4.656 -0.1411  0.0615  0.0807
16813W        W33660   2.397   0.504   2.393  0.1612  0.1241 -0.0001
16814W        W33661  11.474  18.055  13.213  0.1931  0.4022  0.1107
16815W        W33662  15.210  13.368   2.186 -0.2769 -0.1056  0.3904
16816W        W33663   4.642   6.751   1.051  0.0396 -0.1736 -0.2999
16817W        W33664  18.254  17.469  14.516 -0.0900  0.2549 -0.1090
16818W        W33665   6.112  18.732  13.257  0.0139  0.0838 -0.3112
16819W        W33666   5.062  17.443  12.382  0.0037  0.0316  0.1320
16820W        W33667   5.405  14.480   1.662 -0.1953  0.0433  0.2752
16821W        W33668   8.451  17.420  13.777  0.1257  0.1774  0.0210
16822W        W33669  18.187  17.032  14.003 -0.0274 -0.1154 -0.0589
16823W        W33670   1.167  19.232  14.505 -0.0930 -0.3344  0.4558
16824W        W33671  16.136   6.967   0.588 -0.0029 -0.0668  0.0573
16825W        W33672  11.260   5.924  13.645 -0.0603 -0.0941 -0.2740
16826W        W33673   6.004  11.171   1.319 -0.2985  0.1164  0.3789
16827W        W33674  16.691  13.305  12.166  0.0084  0.2778  0.0299
16828W        W33675  17.830  13.406  13.320  0.2544 -0.2852  0.1747
16829W        W33676   4.772   4.120   4.456  0.0707 -0.4846  0.1420
16830W        W33677   5.351  16.978   3.018 -0.2016  0.1334  0.0982
16831W        W33678   2.668  16.071  12.166 -0.0698 -0.4498  0.1031
16832W        W33679  18.041  14.843  11.496  0.3564 -0.2350  0.0876
16833W        W33680   6.862   0.573  13.405 -0.2801 -0.1869  0.2359
16834W        W33681  12.205   9.427  10.555 -0.2442 -0.2185 -0.1727
16835W        W33682  14.629  17.963  14.069  0.0890 -0.0550  0.2833
16836W        W33683   2.572  19.345   3.367  0.0641  0.2024 -0.0203
16837W        W33684   3.022   5.989  11.990  0.0974 -0.1258 -0.1664
16838W        W33685   6.809  10.663  12.018 -0.0508 -0.3568 -0.0936
16839W        W33686   9.569   4.436  13.765 -0.3583  0.1996  0.2713
16840W        W33687  14.837  14.093   0.186 -0.0595  0.1232  0.2948
16841W        W33688   4.709  18.663   0.619  0.0889 -0.0659  0.1352
16842W        W33689  19.204  18.931  11.810  0.0340 -0.1653  0.0284
16843W        W33690  18.201  18.334   0.194 -0.0187 -0.1154  0.2798
16844W        W33691   4.758   7.397   5.406  0.3367 -0.1182  0.1611
16845W        W33692   8.506  13.518  11.958 -0.0164 -0.1423  0.3881
16846W        W33693  13.991  18.501   1.727 -0.1873 -0.1029  0.0307
16847W        W33694   9.228   6.849   9.383  0.2294 -0.0180  0.3334
16848W        W33695  18.906   4.677   1.619  0.3395 -0.0236 -0.1207
16849W        W33696  15.609   6.595  14.595 -0.0117 -0.1058  0.1307
16850W        W33697   4.444  10.578  14.166 -0.1060 -0.3449 -0.2023
16851W        W33698   6.407   6.954  12.821 -0.0403 -0.1418  0.2751
16852W        W33699  19.263   6.292   0.633  0.0106  0.1203  0.0818
16853W        W33700   0.198  10.949   1.974  0.2767  0.3740  0.0837
16854W        W33701   2.944  12.748  10.814 -0.0788  0.1035  0.3437
16855W        W33702   7.718  10.061  14.048  0.0463  0.2511 -0.1688
16856W        W33703  10.269  13.460  10.960  0.0007 -0.3108 -0.2859
16857W        W33704  10.027  18.861  12.145 -0.1516 -0.2650 -0.0118
16858W        W33705   8.000   6.633  11.915 -0.2119 -0.0811 -0.0481
16859W        W33706   2.292   2.136  13.155 -0.3478 -0.2696 -0.0930
16860W        W33707   7.699  14.762   9.411 -0.0548  0.0381 -0.0850
16861W        W33708   8.460   6.665   1.516  0.1040 -0.0757  0.1054
16862W        W33709  15.884   0.994  13.029 -0.1036 -0.0224 -0.1413
16863W        W33710  14.803   9.394   0.332 -0.2739 -0.3618 -0.0531
16864W        W33711   1.411  15.642   5.346 -0.0679  0.1948 -0.0538
16865W        W33712  14.825   2.485   1.932 -0.0600 -0.1358  0.1931
16866W        W33713   4.234   9.012   4.187 -0.0011 -0.0314  0.0761
16867W        W33714   5.442   6.731  13.440 -0.1924 -0.2324  0.1107
16868W        W33715   0.147   6.866  13.580  0.0407  0.0154 -0.1288
16869W        W33716   7.379  15.703   2.176  0.1182 -0.0374  0.0502
16870W        W33717   8.851  13.315   8.964 -0.1446  0.0772  0.1006
16871W        W33718  18.481  19.357   1.054  0.2658 -0.0398 -0.1966
16872W        W33719   0.786  16.003   3.870 -0.0736  0.4080 -0.3167
16873W        W33720   9.323   9.545  11.220  0.1258  0.0521  0.4307
16874W        W33721   8.413  14.530   0.791 -0.0488  0.0535  0.0634
16875W        W33722  12.506   8.228   4.623  0.0266 -0.1862 -0.1997
16876W        W33723   7.360   9.932   3.516  0.3128  0.0693  0.0960
16877W        W33724   9.815  17.979   2.474  0.3216  0.3907 -0.2575
16878W        W33725  11.450   7.484   9.113  0.1131  0.1862 -0.1216
16879W        W33726   8.141  15.809  13.871  0.3447 -0.1751 -0.1693
16880W        W33727  11.946  10.286  13.154 -0.2584 -0.1166  0.1053
16881W        W33728  13.421  15.114   2.115  0.1627  0.1737 -0.2639
16882W        W33729   6.280  17.030   2.266  0.0788 -0.1606 -0.1935
16883W        W33730   0.215   5.680  14.569  0.2992  0.2249 -0.0220
16884W        W33731  10.342   9.335  11.452  0.1202 -0.3871  0.1452
16885W        W33732  19.375   3.194  14.088  0.0247  0.1708 -0.0585
16886W        W33733   1.715   5.506   3.903  0.0190  0.0552 -0.4164
16887W        W33734  10.052   6.317   0.050 -0.0327  0.0152  0.0978
16888W        W33735  16.488   0.152   0.999  0.1096 -0.0296  0.0112
16889W        W33736   2.786  11.910  14.149  0.1556 -0.2194 -0.1411
16890W        W33737   0.492  12.734  13.199 -0.1419  0.2216  0.2980
16891W        W33738   6.384  17.900   4.391  0.1263  0.0992 -0.1203
16892W        W33739   1.907  12.318  10.155 -0.5080  0.0442 -0.0029
16893W        W33740  12.042  14.388   1.544 -0.0992  0.0073 -0.0426
16894W        W33741   9.817   3.338  11.818  0.0241 -0.0291 -0.1072
16895W        W33742  11.561   5.308   1.155  0.0629 -0.3111 -0.2557
16896W        W33743   9.318  11.370  14.600 -0.2321 -0.1655  0.0918
16897W        W33744   8.456   6.033   2.373 -0.0143  0.0485  0.0443
16898W        W33745  14.710   1.696  14.565 -0.1611  0.0980 -0.2412
16899W        W33746   3.343  19.601  11.733  0.2476  0.2266  0.1283
16900W        W33747   0.082   0.259  10.842  0.0664 -0.4165  0.1363
16901W        W33748   0.308   2.311   3.744 -0.0076  0.3586 -0.3220
16902W        W33749   1.190   8.781  12.549  0.1838 -0.3216  0.2649
16903W        W33750  15.552   2.941  13.108 -0.0673 -0.1898  0.0744
16904W        W33751   9.648   8.514   4.453  0.1417  0.0257 -0.1693
16905W        W33752   4.350   0.485  11.770 -0.0164  0.1146 -0.2088
16906W        W33753   8.863   1.638   2.505  0.2352  0.1507 -0.1013
16907W        W33754  15.385   1.367   2.376  0.1318 -0.0193  0.1473
16908W        W33755  18.749   6.950   0.305  0.0041 -0.1867  0.0307
16909W        W33756  17.725  18.381   2.649 -0.1708 -0.1989  0.0648
16910W        W33757   3.989   0.323  10.710  0.2018 -0.0188  0.4060
16911W        W33758  15.766  12.930  12.051  0.0317 -0.2348  0.2838
16912W        W33759   0.222   1.056  13.315 -0.0798 -0.2820 -0.0121
16913W        W33760  12.744   9.417  14.363 -0.0998 -0.0576 -0.4863
16914W        W33761   0.608   3.028   1.453 -0.0318  0.0334  0.2558
16915W        W33762   9.809   6.113   2.406 -0.0300  0.3472 -0.0059
16916W        W33763  14.065  16.689   1.874  0.0069  0.0617 -0.1684
16917W        W33764  19.033  15.179  13.831 -0.0752 -0.1497  0.1784
16918W        W33765  12.720   5.964   0.824  0.0370  0.1482 -0.4773
16919W        W33766   9.472   4.917  11.073  0.3130 -0.0053  0.0982
16920W        W33767  11.651  19.306  14.558 -0.4366  0.2168 -0.3516
16921W        W33768  17.962   1.868   0.875 -0.2120 -0.1078 -0.3702
16922W        W33769  11.185   8.362   2.495  0.0673 -0.0461 -0.2923
16923W        W33770   0.516   6.980  10.564 -0.2365  0.1460 -0.1770
16924W        W33771  12.026  17.334  12.333  0.0739 -0.2178  0.0441
16925W        W33772   1.717   8.440   2.568  0.0839 -0.1452 -0.1624
16926W        W33773  17.111   9.741  12.578  0.1056 -0.0250  0.3102
16927W        W33774   3.890   9.739   3.537  0.0978  0.1547 -0.1214
16928W        W33775  16.011  13.768   2.029  0.0175 -0.2138  0.3591
16929W        W33776   1.102  10.110   3.088 -0.0183  0.1345 -0.0469
16930W        W33777   5.544  12.783   1.561  0.1968 -0.3417 -0.1565
16931W        W33778  10.383  18.578   4.258 -0.0375  0.1177 -0.2234
16932W        W33779  16.437   3.860   2.485  0.3303  0.1776 -0.0702
16933W        W33780   7.929  15.034  11.981  0.2214  0.3090 -0.3467
16934W        W33781   1.465   9.237  13.467  0.0418 -0.1011 -0.0531
16935W        W33782   3.095   9.345  10.958  0.1342  0.0407 -0.2889
16936W        W33783  19.424  18.725  12.968 -0.0418  0.2132 -0.1305
16937W        W33784   0.974  16.955  10.545 -0.0827 -0.0971  0.1912
16938W        W33785   1.088  13.039   3.059  0.0921 -0.0586  0.0461
16939W        W33786  12.630  14.763   4.792  0.3079  0.1702 -0.0015
16940W        W33787  16.941  15.220   1.454  0.1899  0.1711 -0.3482
16941W        W33788   4.169   2.917   4.305  0.0398  0.2059 -0.0220
16942W        W33789  18.132  14.936   1.916 -0.0100 -0.2240 -0.0564
16943W        W33790  18.214   9.300  14.536  0.0350  0.0364 -0.0689
16944W        W33791   3.866   1.777  11.445  0.2172 -0.0421 -0.0220
16945W        W33792   0.557  15.723  13.029 -0.2168  0.0324  0.0019
16946W        W33793  19.232  15.091   4.814  0.2257  0.0156 -0.0673
16947W        W33794  15.831  11.083  14.298 -0.1069 -0.1933 -0.0177
16948W        W33795   6.009  19.303  10.365 -0.1024 -0.5207 -0.3191
16949W        W33796  15.817  16.291   4.805 -0.2101 -0.2570  0.1659
16950W        W33797  10.812  16.781  10.461 -0.0996 -0.1890  0.2664
16951W        W33798   3.730  13.008   0.861  0.1230 -0.0525 -0.0552
16952W        W33799   1.493  15.346  10.943  0.0284  0.1199  0.2243
16953W        W33800  17.054   1.972   2.538  0.2495  0.1229 -0.0694
16954W        W33801  16.888  15.888   5.233  0.0993  0.1217 -0.1741
16955W        W33802   2.589  15.561   0.369  0.2579  0.1454 -0.0121
16956W        W33803  16.728   4.433   4.429  0.0857 -0.0710 -0.0691
16957W        W33804   7.750   9.804   1.763  0.1968 -0.0930  0.1641
16958W        W33805  10.534  17.532  10.668  0.0936 -0.0889  0.1702
16959W        W33806  13.780  15.855  11.148 -0.1392 -0.1033  0.1681
16960W        W33807  15.019   9.088  11.225 -0.0692  0.0649 -0.0587
16961W        W33808  11.718  19.233  12.081 -0.1726 -0.2581  0.0185
16962W        W33809  13.524   0.393   4.432 -0.0606  0.0345  0.1530
16963W        W33810   2.325   3.187  13.983 -0.0218 -0.1370  0.3366
16964W        W33811   1.461   1.659  13.353 -0.1762 -0.1896 -0.3007
16965W        W33812   4.257   8.776  12.468 -0.2867 -0.1025 -0.0754
16966W        W33813   1.416   8.521  13.959  0.3453  0.1044 -0.0732
16967W        W33814   8.231  16.558   2.132 -0.0717 -0.1073 -0.0154
16968W        W33815   2.368  11.062   2.645  0.2045  0.0652  0.2464
16969W        W33816   5.172  18.960   1.531 -0.1122  0.0743  0.0961
16970W        W33817  12.059   2.649  11.590  0.2518  0.0078  0.1115
16971W        W33818  11.148   7.541  10.367  0.0896 -0.0619  0.0569
16972W        W33819   5.001   5.749  11.533  0.1204  0.0391  0.1044
16973W        W33820   0.485   4.969   3.836  0.2634  0.1137  0.0602
16974W        W33821   7.379   2.741   1.687 -0.0279  0.0078 -0.2882
16975W        W33822  14.531  13.162   2.995 -0.3346 -0.0039 -0.0076
16976W        W33823  12.894   6.233  14.320  0.0752  0.0752 -0.1326
16977W        W33824  16.156  17.406   1.320  0.1556  0.0163 -0.0716
16978W        W33825   2.295   7.074   2.489  0.0205  0.1171  0.0077
16979W        W33826   3.329  16.580  13.796  0.0850  0.0753  0.3300
16980W        W33827  18.903  13.767  10.075  0.0211  0.3053 -0.0678
16981W        W33828   0.799   6.383  11.483 -0.4783  0.0713  0.6698
16982W        W33829   3.899   6.238  14.312  0.0087 -0.0238  0.2444
16983W        W33830  17.299  18.179   2.677 -0.5022  0.2713  0.0955
16984W        W33831  17.320   2.139  14.220 -0.0954  0.0134  0.0580
16985W        W33832  16.439   7.523  12.679 -0.0494 -0.1120  0.1573
16986W        W33833  11.879   6.047   3.195 -0.0156 -0.2848  0.1823
16987W        W33834   3.999   0.656  12.841  0.2619  0.2894 -0.2443
16988W        W33835  18.156   5.942   2.431 -0.2446 -0.0779  0.3808
16989W        W33836   1.356  13.153  14.544 -0.0106  0.0458 -0.1265
16990W        W33837  15.397  18.809   3.710  0.2158 -0.5074 -0.0257
16991W        W33838   3.534   5.120  13.289  0.0502  0.0431  0.1883
16992W        W33839   3.853  19.631  11.566  0.3437  0.3404  0.0754
16993W        W33840  19.579  19.449   0.353  0.1322 -0.4681  0.1780
16994W        W33841  19.354   4.271   2.467  0.0848 -0.1922 -0.1312
16995W        W33842   4.678   2.215  10.486 -0.2721 -0.0906 -0.0903
16996W        W33843  16.134   2.123   3.475 -0.3071  0.1544 -0.2248
16997W        W33844  10.524  19.344   2.915  0.2690 -0.0019 -0.0347
16998W        W33845   7.249  12.331   4.882 -0.4321 -0.3384 -0.1254
16999W        W33846   3.162   0.115  14.207  0.0451 -0.1948  0.1222
17000W        W33847  18.301   7.253   0.194 -0.1246 -0.1561 -0.1736
17001W        W33848  15.220   0.422   0.436  0.1818 -0.4288 -0.0590
17002W        W33849  13.886   1.048   3.161  0.1874 -0.2730 -0.0712
17003W        W33850   9.066   0.187  12.357 -0.0199 -0.1939  0.0971
17004W        W33851   4.894   1.007   1.944 -0.1313 -0.1403 -0.2330
17005W        W33852  10.359  13.161   4.268 -0.0274 -0.4272 -0.1961
17006W        W33853  17.766  19.238  12.371  0.0059 -0.1181 -0.2862
17007W        W33854  12.039  16.506   4.591  0.0142 -0.2232 -0.4200
17008W        W33855   6.598   7.252  13.789 -0.0734 -0.1184 -0.0137
17009W        W33856   9.900   0.278  13.766 -0.1398 -0.1100 -0.1450
17010W        W33857   1.993   6.523   2.410 -0.0757 -0.0934  0.2568
17011W        W33858  16.557   0.049   5.143 -0.0043  0.2967  0.0448
17012W        W33859  14.763  12.264   1.651  0.1277  0.0583  0.0478
17013W        W33860  13.982   9.005  14.538 -0.0663 -0.1263  0.0394
17014W        W33861   0.317  13.651   3.877  0.2500 -0.2835 -0.1479
17015W        W33862   4.005  18.380  11.772 -0.0611  0.2784 -0.1445
17016W        W33863   4.436  12.856  11.456 -0.1041  0.0864  0.2684
17017W        W33864   7.263   3.570  13.029 -0.1398 -0.1767 -0.0691
17018W        W33865  13.827   1.454   0.414 -0.1967  0.0134 -0.4122
17019W        W33866  14.882   3.898  12.595 -0.2325  0.0094 -0.0033
17020W        W33867  15.691   0.963  11.389 -0.0636 -0.2610 -0.1541
17021W        W33868  11.149   4.730  10.596  0.2629  0.0589  0.3006
17022W        W33869   5.074  12.450   1.297 -0.0266  0.1824 -0.0398
17023W        W33870  16.105  17.286  11.195 -0.4039  0.1306  0.1242
17024W        W33871  14.489  14.021  13.536 -0.3689  0.2529  0.0323
17025W        W33872   9.153   1.925  12.577  0.0984  0.0330 -0.3179
17026W        W33873   9.932   1.952   3.947  0.0836 -0.0866  0.2073
17027W        W33874   3.385   4.969   2.055  0.2871  0.2143 -0.2170
17028W        W33875   7.618  13.909   2.665 -0.1405  0.0308  0.0613
17029W        W33876  15.564   1.473  11.575  0.0481 -0.1567  0.0332
17030W        W33877   9.239   5.322   3.029  0.0311  0.3407  0.0375
17031W        W33878  13.699  16.018   2.898  0.1534 -0.0512  0.0435
17032W        W33879  14.948   3.560   0.922  0.0160 -0.0039  0.0995
17033W        W33880   8.293   8.276  13.786 -0.1275 -0.2576 -0.1383
17034W        W33881   7.081   9.997  11.863  0.1237 -0.0602  0.3089
17035W        W33882   4.952  14.288  13.596 -0.2707 -0.0596 -0.0495
17036W        W33883   0.405   5.588  11.634 -0.1528  0.0326  0.2587
17037W        W33884   4.590   9.695  11.546 -0.0515 -0.3311  0.0844
17038W        W33885   2.046  18.720   0.763  0.3173 -0.1376  0.1988
17039W        W33886   1.904   5.135   9.034  0.3164  0.0737  0.0860
17040W        W33887   3.518   3.488   0.381  0.1352 -0.3162  0.4141
17041W        W33888   7.858  18.238   4.345  0.3191 -0.4004  0.1426
17042W        W33889   2.396  13.532   4.587  0.0006 -0.0528 -0.1695
17043W        W33890  12.966  15.696   0.562  0.1438 -0.0192  0.0753
17044W        W33891  18.816   2.205   9.612  0.1870  0.0574  0.3427
17045W        W33892  18.831   5.664   3.245 -0.0781 -0.3099 -0.1717
17046W        W33893   9.643  14.449  11.626  0.0973 -0.1060  0.0340
17047W        W33894  18.993  14.228  13.351 -0.4085  0.1868 -0.1428
17048W        W33895   0.347   6.882   4.420  0.1010  0.2737 -0.0061
17049W        W33896   4.699   7.613  13.786  0.0607  0.0954 -0.0534
17050W        W33897   5.868   8.886  10.467  0.2126 -0.0971  0.1830
17051W        W33898   9.751  13.810   3.131  0.2796  0.1758  0.3277
17052W        W33899   1.288   9.698   5.073 -0.0740 -0.1693  0.4827
17053W        W33900  17.593   7.616   4.160 -0.0180  0.0039 -0.1959
17054W        W33901   8.355   5.786   9.485 -0.2242  0.0046  0.1934
17055W        W33902   6.128   2.243  11.420  0.0061  0.1310 -0.4175
17056W        W33903   8.078   1.017  10.264  0.0223  0.0572  0.0310
17057W        W33904  16.289  10.029   0.698  0.0300  0.3883 -0.1997
17058W        W33905  17.322  15.043  14.373 -0.0433 -0.2513  0.0200
17059W        W33906   5.843  18.074  13.040 -0.2352  0.1893 -0.1951
17060W        W33907   4.986   0.365  12.419  0.0212  0.1407  0.1885
17061W        W33908   7.485  11.634   2.400  0.2856  0.0144 -0.0972
17062W        W33909   9.278   8.234  11.181 -0.0936  0.3578  0.3861
17063W        W33910  10.019   0.315   0.924  0.0235 -0.2534  0.0926
17064W        W33911   0.264   7.411   2.169 -0.0492 -0.0907  0.0058
17065W        W33912  10.433   0.564  13.295 -0.2597  0.0171 -0.1379
17066W        W33913  18.447  19.580   3.511 -0.3131  0.0348 -0.0701
17067W        W33914   7.444  18.627   1.285  0.0015 -0.3101  0.2621
17068W        W33915  12.385   8.359  13.451 -0.1982 -0.0073  0.0611
17069W        W33916  17.234  12.849  10.280  0.0523  0.0776 -0.1032
17070W        W33917   5.499  14.274   1.206 -0.1155  0.3594  0.0386
17071W        W33918  16.379   4.780   1.756 -0.1723  0.0714  0.2686
17072W        W33919  14.603  14.572   2.915  0.0379  0.1373 -0.1008
17073W        W33920  15.181  10.881   0.570 -0.1275  0.1023 -0.1762
17074W        W33921  19.622  11.313   0.384  0.0722  0.0488  0.0419
17075W        W33922  13.369  12.349   1.814 -0.0427  0.0474  0.2370
17076W        W33923  18.638  16.367   2.316 -0.1504  0.4940 -0.0581
17077W        W33924  13.967  13.042  14.212 -0.0891 -0.0253 -0.2342
17078W        W33925  18.999   9.472  13.318 -0.2215  0.0043  0.0039
17079W        W33926  10.855  11.925   2.979 -0.2084 -0.0766  0.1090
17080W        W33927   9.877  13.844   2.036  0.0367  0.1651 -0.1538
17081W        W33928  18.495   8.370   1.684 -0.0425 -0.1418 -0.1279
17082W        W33929  11.831  16.093   1.200 -0.1342  0.4171 -0.1643
17083W        W33930   8.455  18.495   2.082  0.1526  0.2590  0.0255
17084W        W33931   5.631   8.730  12.436  0.3468  0.1442 -0.2268
17085W        W33932  16.513  17.860   1.245  0.2196 -0.2156 -0.2756
17086W        W33933   1.084   5.174  10.725  0.0755 -0.2380 -0.0561
17087W        W33934   1.263  11.809   0.038 -0.1405  0.0388 -0.0670
17088W        W33935  14.426  14.495   1.744  0.0969 -0.1291 -0.1668
17089W        W33936   8.894   2.867   4.510 -0.2462 -0.0401  0.0421
17090W        W33937   8.924   1.175  12.947  0.0838 -0.0589  0.1800
17091W        W33938  10.273  14.848  12.827  0.4153  0.0436  0.1646
17092W        W33939  13.383   3.098  14.095 -0.2866 -0.1420  0.0142
17093W        W33940   5.145  12.682  11.970  0.1560 -0.0369 -0.0492
17094W        W33941   0.201  15.840   3.812 -0.0809 -0.1468  0.1906
17095W        W33942  14.646   0.545   1.021 -0.4770  0.2556  0.3855
17096W        W33943   0.493   3.100   4.110 -0.2706 -0.1488  0.0426
17097W        W33944   9.597  19.045  13.890 -0.3583 -0.0676 -0.2415
17098W        W33945   9.085  15.235   1.214  0.1586  0.0348 -0.1332
17099W        W33946  18.096   5.371   3.675 -0.4045 -0.0771 -0.3448
17100W        W33947  14.578   0.408  10.552  0.0934  0.1269  0.1712
17101W        W33948   8.057   3.737   5.366  0.2182 -0.0195 -0.0687
17102W        W33949   6.177   8.449  13.067 -0.0915  0.3020 -0.2782
17103W        W33950  16.110   2.709  11.488  0.1542  0.1801 -0.3082
17104W        W33951  12.187  11.414  11.562 -0.0019 -0.1939 -0.1275
17105W        W33952   5.731  13.351  14.410 -0.1246 -0.1085  0.0694
17106W        W33953  11.124   7.364   1.229  0.2166 -0.0564 -0.2798
17107W        W33954   0.517  16.561   4.389 -0.1172  0.1809  0.1808
17108W        W33955   5.039  12.879   2.615  0.3959  0.1662  0.0524
17109W        W33956   5.761   2.587   0.832  0.0885 -0.0582  0.4103
17110W        W33957  18.533  10.974   1.569 -0.0497 -0.2307  0.0615
17111W        W33958   7.043  10.589  10.871  0.5508  0.0140 -0.0922
17112W        W33959  17.819   8.039  12.978 -0.2104 -0.1449 -0.0125
17113W        W33960  19.130  11.872   3.021  0.0858  0.2644 -0.0944
17114W        W33961  14.475   8.129  13.193 -0.1323 -0.3911 -0.2732
17115W        W33962   5.763  11.770   5.532  0.1849 -0.3243  0.0293
17116W        W33963   3.198  13.240  11.929  0.4455  0.1992 -0.4031
17117W        W33964   4.829   5.081   2.980 -0.2109 -0.0988  0.1428
17118W        W33965  10.974  15.449  11.672  0.1186 -0.0963  0.2811
17119W        W33966  12.710   9.876   2.063 -0.1394  0.0354 -0.1715
17120W        W33967  13.164   0.613  12.361  0.0008 -0.0177  0.0877
17121W        W33968   4.123   8.911  11.178 -0.1855 -0.2661 -0.2690
17122W        W33969   6.962  10.018   4.298 -0.0068 -0.1185 -0.0666
17123W        W33970   3.770   6.221   2.005  0.1191  0.2115 -0.0366
17124W        W33971   4.078   6.067  12.818 -0.2419  0.0927  0.0414
17125W        W33972   8.236  13.848  11.662  0.1219 -0.0569 -0.1359
17126W        W33973  16.406  11.230   3.003  0.2338 -0.1597  0.0764
17127W        W33974   6.279   9.001   4.225 -0.1862  0.1294  0.0572
17128W        W33975  13.047   1.595  11.125 -0.0122 -0.3123 -0.1458
17129W        W33976   9.182   5.082   3.871 -0.0616 -0.1774 -0.0036
17130W        W33977  12.764   6.227   1.941  0.1278  0.2732  0.1213
17131W        W33978  14.549  10.031   2.770 -0.1714 -0.0836 -0.1958
17132W        W33979   0.869   9.689  10.491  0.0237  0.0742  0.1637
17133W        W33980   8.961   6.448   1.632  0.3166  0.1743 -0.3718
17134W        W33981   5.261  12.876  13.283  0.0062  0.1719  0.0935
17135W        W33982   6.448   6.145   1.485 -0.2256  0.2554  0.3142
17136W        W33983  15.177  18.208  13.151  0.1519 -0.0722  0.0468
17137W        W33984   1.338   4.867  11.046  0.1636  0.2747 -0.0108
17138W        W33985  19.243   2.904   4.547 -0.0938 -0.1065 -0.0900
17139W        W33986  18.758   6.487   0.088 -0.1655 -0.1804  0.1712
17140W        W33987   0.322  11.697   2.060  0.2199  0.0095 -0.1837
17141W        W33988  13.108  12.781  13.408  0.0660  0.2436 -0.0857
17142W        W33989  11.869   4.442   1.220 -0.0476  0.0661 -0.4028
17143W        W33990   7.567  12.308   1.647  0.4180 -0.2084 -0.2782
17144W        W33991   3.402  12.056  11.841 -0.1052  0.2100  0.2459
17145W        W33992   5.938   1.894  12.711 -0.1073  0.1472 -0.1456
17146W        W33993  13.207  11.902  11.329  0.0157  0.0015  0.0111
17147W        W33994   4.663  12.660   4.556  0.0823 -0.1836 -0.1769
17148W        W33995  15.657   4.581  11.331 -0.0563 -0.4119 -0.1679
17149W        W33996   2.351   3.914   5.351  0.1126 -0.0287 -0.1672
17150W        W33997   1.104   4.287  10.376 -0.0417 -0.0448 -0.0363
17151W        W33998   3.315  17.638   0.030  0.0082 -0.0925  0.2578
17152W        W33999  14.724  17.304  10.870 -0.1186 -0.4228  0.1622
17153W        W34000   8.235   9.180   4.558  0.0253  0.0913  0.1233
17154W        W34001  10.733   6.903   9.488  0.3943 -0.2296  0.1617
17155W        W34002   1.517   2.070  12.106 -0.2260 -0.0305 -0.0611
17156W        W34003  15.245   6.443  11.315  0.1576 -0.3151 -0.2330
17157W        W34004  16.035  17.808  10.725  0.1254  0.2049 -0.1043
17158W        W34005   6.709   3.130   0.260  0.0691 -0.3516 -0.0179
17159W        W34006  19.101   5.059  11.133  0.0360 -0.3704 -0.1878
17160W        W34007  10.070   9.205   4.113 -0.1519  0.0070 -0.0109
17161W        W34008  11.472   7.953  13.621 -0.0122  0.3082 -0.1026
17162W        W34009  11.977  15.791   2.803  0.1098 -0.2750 -0.0838
17163W        W34010   0.728  10.303   1.595  0.4672  0.4714 -0.1852
17164W        W34011  16.171  17.373   1.887  0.0859  0.0685  0.0393
17165W        W34012   8.760  19.245   2.289  0.0146  0.1121  0.1219
17166W        W34013   0.189   1.011   1.338 -0.0446 -0.1058 -0.5612
17167W        W34014   7.427  16.500   0.498  0.3495 -0.2873 -0.1014
17168W        W34015   8.493  19.474  13.066  0.0667 -0.1265  0.0690
17169W        W34016  18.655  14.439  10.994 -0.1231  0.2936  0.0725
17170W        W34017   4.448  18.133  10.921  0.0493 -0.1350 -0.1905
17171W        W34018   1.022   0.581   3.169  0.1407 -0.2523 -0.2618
17172W        W34019  15.757   2.083   1.795  0.1206 -0.0982 -0.2315
17173W        W34020  17.459   8.098   4.333 -0.1218 -0.1488  0.2286
17174W        W34021  10.519   2.561  12.289  0.3124  0.1835  0.2998
17175W        W34022  10.791   8.153   5.060 -0.0252 -0.2101 -0.2779
17176W        W34023   5.452   8.038  10.501 -0.0038  0.2469  0.1023
17177W        W34024   6.362   1.823  11.532  0.4913 -0.0808  0.1585
17178W        W34025   7.264  15.435   2.776  0.2265 -0.0284  0.0613
17179W        W34026   4.975   9.066  13.695  0.2834  0.0492 -0.2747
17180W        W34027  12.546  13.808  11.679  0.0400  0.0525 -0.0413
17181W        W34028   1.181  14.922   0.950 -0.5023  0.3012 -0.4054
17182W        W34029   9.397   1.534   2.446 -0.1858  0.0295  0.2032
17183W        W34030  12.499  14.054  14.542  0.0432  0.0330 -0.0287
17184W        W34031  17.199  10.884   4.373 -0.0618  0.0713 -0.0040
17185W        W34032  14.868  12.140   4.356 -0.1884 -0.0131 -0.1642
17186W        W34033  19.088   9.777  12.663 -0.1487  0.2679  0.1897
17187W        W34034  11.820  19.150  10.811  0.0103  0.0294  0.1591
17188W        W34035  12.068   1.061   4.549  0.2688  0.4875 -0.0829
17189W        W34036   2.050   6.950   0.233  0.0176  0.1540  0.0047
17190W        W34037   4.317  16.076   3.759 -0.3240 -0.0767 -0.2212
17191W        W34038  10.095  11.434   1.729 -0.2875  0.0936 -0.0944
17192W        W34039  16.334   7.094   4.430 -0.0322  0.0126  0.1443
17193W        W34040   3.267  11.624   0.933 -0.0386 -0.0094  0.1704
17194W        W34041   9.594  16.785   0.056 -0.0101  0.2680  0.1088
17195W        W34042  15.488  15.726   3.974 -0.1241 -0.0959  0.0717
17196W        W34043  16.335  14.326   2.589  0.1503 -0.2098  0.0876
17197W        W34044  16.709  13.802  11.749 -0.0040 -0.1129  0.0791
17198W        W34045   6.784  19.285  13.043  0.0209 -0.3272  0.4171
17199W        W34046  18.807  19.407   3.958 -0.0353 -0.1994 -0.1851
17200W        W34047  15.055  10.621  14.057  0.2375  0.0088 -0.1200
17201W        W34048  18.717   1.213  10.989 -0.2769  0.1254 -0.2849
17202W        W34049  15.592  16.887   4.418  0.0573 -0.1135 -0.1230
17203W        W34050   6.559   7.836   5.142 -0.0363  0.0691  0.2256
17204W        W34051  14.980  15.073   9.647  0.2845  0.0538  0.1448
17205W        W34052   3.773  16.637   1.761 -0.1290 -0.0822 -0.0170
17206W        W34053  11.176  14.215   2.663  0.0131  0.1828 -0.2345
17207W        W34054  11.140   2.260  13.128 -0.2100 -0.0615 -0.0967
17208W        W34055   6.074  16.441  14.524  0.2803  0.1119  0.0414
17209W        W34056   6.337   6.916   0.733 -0.0362  0.1787  0.0232
17210W        W34057  14.251   8.921  12.534 -0.0013  0.3530  0.1541
17211W        W34058   0.269   9.508   2.652 -0.1638  0.1029  0.1064
17212W        W34059  13.443   9.019  11.711 -0.1105 -0.2738  0.0983
17213W        W34060   9.337   8.272   4.012 -0.1581  0.4481  0.2547
17214W        W34061  13.441  18.682   1.721  0.1997  0.0633 -0.2196
17215W        W34062  16.655   3.810   1.939  0.0603 -0.1007 -0.0388
17216W        W34063  16.986   3.829   0.942  0.2978  0.1332  0.1041
17217W        W34064  18.667   2.374   0.606 -0.4049  0.2836  0.1591
17218W        W34065   3.647   5.731   3.856 -0.2379  0.0427 -0.2979
17219W        W34066   5.426   9.388   4.180  0.1695  0.2815  0.3451
17220W        W34067   1.071   4.576  11.954 -0.2390  0.1543 -0.1110
17221W        W34068   7.514   8.865  13.238  0.0856 -0.1462  0.1470
17222W        W34069   1.331  11.485   2.446 -0.1233  0.2357  0.0449
17223W        W34070  15.087  12.418   3.636 -0.0234 -0.4405 -0.1658
17224W        W34071   8.011  16.968   2.831  0.0943  0.1418 -0.0486
17225W        W34072   3.365  15.538  14.473 -0.3231  0.0016 -0.4701
17226W        W34073  11.815  18.324   4.429 -0.0993  0.0887  0.0683
17227W        W34074   2.221   0.587   1.741 -0.1990 -0.1318 -0.4047
17228W        W34075  10.366  15.647  13.583 -0.3708  0.2693  0.0535
17229W        W34076   8.614   8.916  13.070  0.0564 -0.2224 -0.3051
17230W        W34077  14.036  10.559   1.587  0.1164  0.4030  0.2071
17231W        W34078  12.955   7.602  14.562  0.2445 -0.0506  0.1646
17232W        W34079   3.318   3.282   5.183  0.2937  0.5086  0.1154
17233W        W34080  16.285  14.981   3.273 -0.3256 -0.1040 -0.1028
17234W        W34081   4.771   7.376  13.350 -0.0723 -0.0066 -0.0678
17235W        W34082   8.156  14.991   1.696  0.0288 -0.1800 -0.0286
17236W        W34083  16.411   7.117  12.042 -0.2739  0.0535  0.3471
17237W        W34084  12.346  12.440   1.186 -0.0698 -0.1775 -0.1357
17238W        W34085   4.085   7.695  12.552  0.1137  0.1063  0.1724
17239W        W34086  16.596  10.931   3.408 -0.0094 -0.2558  0.0079
17240W        W34087  18.094  16.951  14.526 -0.2177 -0.1431 -0.0593
17241W        W34088  19.421  11.711   3.493 -0.1366 -0.3237 -0.1628
17242W        W34089  15.453   9.929   2.873  0.0800  0.1920  0.2328
17243W        W34090   3.274   7.865  12.873 -0.2659  0.3120 -0.0286
17244W        W34091  15.391  16.577  13.920  0.2775  0.0940 -0.2972
17245W        W34092  13.367  17.184   1.498  0.0085  0.0384 -0.1118
17246W        W34093   7.457   7.428   2.934  0.0743  0.1237  0.4928
17247W        W34094  12.548  10.321   1.776 -0.0933  0.2656 -0.0222
17248W        W34095  15.314  15.451  12.589  0.1618  0.0177 -0.1734
17249W        W34096  11.219   0.486  10.702  0.2733  0.0457 -0.1534
17250W        W34097  11.524  17.762  11.748 -0.3595  0.3407  0.0209
17251W        W34098  13.572   3.839   0.892  0.0721  0.0911  0.0711
17252W        W34099   1.011   6.355   3.296  0.2312 -0.0553 -0.3793
17253W        W34100   2.691   8.422  13.961  0.2854 -0.2249 -0.2437
17254W        W34101   7.350  15.371  11.626 -0.0297  0.0839 -0.3087
17255W        W34102  13.641   1.173   0.954  0.0209 -0.0196  0.0469
17256W        W34103   0.115   5.493   2.988 -0.1820 -0.0510 -0.1987
17257W        W34104   8.903   7.957  12.833  0.1963  0.3300 -0.1267
17258W        W34105   7.600   9.119  12.853 -0.0254  0.0333  0.0542
17259W        W34106  11.588   8.659  10.054  0.0012  0.4321  0.1644
17260W        W34107  15.402  12.894  10.799  0.3565 -0.1098  0.1114
17261W        W34108   7.031   8.841  14.125 -0.0395 -0.0906  0.1897
17262W        W34109   0.461   3.951  11.342 -0.0933  0.2706  0.0419
17263W        W34110   5.428  10.641  10.345  0.1506 -0.1286 -0.1184
17264W        W34111   1.285  13.140  10.759  0.1652  0.0904 -0.2098
17265W        W34112   5.150  12.781   0.284 -0.0679  0.0045  0.0898
17266W        W34113   8.413  15.542   4.430 -0.3396  0.4395  0.2100
17267W        W34114  11.830  10.493  14.335  0.0771  0.0450 -0.0115
17268W        W34115  12.369  17.607  11.311  0.1912 -0.0935 -0.0459
17269W        W34116   1.735  12.188  13.477 -0.1464 -0.3225  0.1678
17270W        W34117  10.252  10.735   0.340 -0.0286 -0.1572  0.0400
17271W        W34118  17.337   2.910  11.708 -0.3039 -0.2763 -0.1895
17272W        W34119   3.849  10.424   0.397  0.1045  0.1241 -0.1792
17273W        W34120  18.020   7.126  13.758  0.0621 -0.0234  0.0201
17274W        W34121  16.158   0.937   0.520  0.0048  0.1573  0.0704
17275W        W34122  10.306   4.055  11.578 -0.1931  0.2435  0.0547
17276W        W34123   2.303  11.428   0.198 -0.0832  0.0696  0.1936
17277W        W34124   0.460  13.193  13.056  0.0885  0.0728 -0.0856
17278W        W34125  14.580  14.436   4.809 -0.1607 -0.1475  0.0469
17279W        W34126   5.292  17.969  10.689  0.0851  0.1216  0.1238
17280W        W34127   7.868   3.193   2.517 -0.0456  0.1330 -0.0069
17281W        W34128  15.135  16.067  10.941 -0.0265 -0.0620 -0.2371
17282W        W34129   0.987   7.589   1.681  0.1076  0.1050  0.0929
17283W        W34130   6.665   4.918  13.653  0.1439  0.0918  0.2143
17284W        W34131   0.165   8.666   5.593  0.0806 -0.5836  0.0745
17285W        W34132   4.049  11.420   3.002 -0.2672 -0.2046 -0.0456
17286W        W34133  12.710  14.231  11.582 -0.1576  0.2002  0.0513
17287W        W34134   5.119   5.692   0.577  0.2063  0.0715 -0.0777
17288W        W34135  16.198  18.186  11.065 -0.1344 -0.0475 -0.3095
17289W        W34136   4.887  15.362  13.118  0.0293 -0.0020  0.2182
17290W        W34137  15.854   7.002   5.338 -0.1872  0.0162  0.0341
17291W        W34138   8.749  16.657   1.986  0.0097 -0.3311 -0.0169
17292W        W34139  16.967   8.131  13.639  0.2929  0.2374  0.0250
17293W        W34140   2.504  11.064   1.709  0.0532  0.1061 -0.1402
17294W        W34141  12.747  17.833   4.067 -0.2414 -0.4837 -0.4821
17295W        W34142   6.358   8.345   0.326 -0.1023 -0.0238  0.1679
17296W        W34143  15.732   5.398   0.957 -0.1738 -0.1870 -0.3834
17297W        W34144   2.921  12.729   3.104 -0.2817  0.2732 -0.0570
17298W        W34145   7.896   2.211   0.577  0.0370 -0.0497  0.3910
17299W        W34146  14.494  10.473  12.011  0.0566 -0.0937 -0.1450
17300W        W34147   1.620   3.130  10.515 -0.0622 -0.0756 -0.1978
17301W        W34148  14.411  12.877  10.147 -0.0996  0.2557 -0.1123
17302W        W34149   5.989  14.952   3.083 -0.0221  0.0369  0.1025
17303W        W34150   1.837   3.274  11.749  0.1902 -0.1394  0.0783
17304W        W34151  16.592   6.973   0.905  0.0305 -0.0888 -0.3222
17305W        W34152  11.531   2.790  12.223  0.4113 -0.0444  0.0637
17306W        W34153  10.790  17.768  12.125 -0.1105 -0.0384 -0.0614
17307W        W34154   4.635   9.097  13.215 -0.1141  0.2046  0.0377
17308W        W34155  17.798  15.772  11.692 -0.3396  0.3319 -0.5041
17309W        W34156   7.542  11.973   2.762  0.0506 -0.0226 -0.0779
17310W        W34157   2.426   5.449   1.188 -0.0418  0.1244 -0.0635
17311W        W34158  10.922  19.411   4.074  0.0655  0.0782 -0.1000
17312W        W34159  19.113  15.414  14.404  0.3395 -0.0525 -0.1247
17313W        W34160  16.505   8.098   5.732  0.3567 -0.0347  0.0409
17314W        W34161  18.475  10.237  13.912  0.1093  0.4180 -0.1019
17315W        W34162   4.462   8.558  14.161  0.1414 -0.1793  0.0919
17316W        W34163   8.995   6.620   2.960  0.0461 -0.1343  0.0412
17317W        W34164   1.787  13.295  13.787  0.0094  0.3773  0.2268
17318W        W34165   4.171   3.163  12.400 -0.0881 -0.0457 -0.0856
17319W        W34166  16.783  18.979  13.294  0.3999  0.3524  0.2523
17320W        W34167   4.769   1.884  11.479 -0.2215 -0.1928  0.3315
17321W        W34168   4.390   4.089   2.943  0.2489 -0.2112  0.2477
17322W        W34169  11.673  11.283   5.859 -0.0174 -0.2540  0.3727
17323W        W34170   0.288  16.881  12.426 -0.0984  0.0123  0.0234
17324W        W34171   3.078  14.548  14.563 -0.0732  0.0617 -0.1880
17325W        W34172   6.393  13.094   4.599 -0.1988 -0.1442  0.2391
17326W        W34173  18.357   7.914   2.532 -0.2040 -0.2223  0.0742
17327W        W34174  14.727   5.190   0.060  0.0997  0.1420  0.0146
17328W        W34175   1.834   4.009  10.025 -0.3102 -0.0431  0.0281
17329W        W34176  12.354   2.756  11.122  0.3054  0.0725 -0.1343
17330W        W34177  12.167   2.936   3.500 -0.1999  0.2292  0.4837
17331W        W34178  16.880  14.903  14.548  0.0295 -0.0526  0.0568
17332W        W34179   9.606  10.472  13.136 -0.0830 -0.2988  0.0268
17333W        W34180   4.218  12.014  13.007  0.1725 -0.0664 -0.0620
17334W        W34181  12.794   9.587  12.115 -0.0269  0.0752  0.0317
17335W        W34182  18.188   3.312  14.554 -0.2872 -0.3765  0.1667
17336W        W34183   0.536  16.900   2.638  0.0529  0.1049  0.0154
17337W        W34184  11.533   9.315  12.109 -0.0675 -0.0083  0.1277
17338W        W34185  17.506   9.837  14.361  0.0887  0.1306  0.0271
17339W        W34186   9.058  16.160   1.105  0.4486  0.0881 -0.0447
17340W        W34187  15.317   2.364  12.248 -0.0617  0.0449 -0.0182
17341W        W34188  12.428   4.479  11.704 -0.2412  0.4177  0.2997
17342W        W34189   1.961   3.614   2.537  0.2620  0.0047 -0.0390
17343W        W34190  17.804   9.546  11.168  0.0564 -0.0818 -0.0249
17344W        W34191  13.278  16.547  12.266  0.2350  0.0514 -0.1255
17345W        W34192   2.359  13.608   3.573 -0.0902 -0.2222 -0.2400
17346W        W34193   9.984  10.813  13.054  0.0840  0.1377 -0.1551
17347W        W34194  10.632  13.216  11.334  0.0429  0.4384  0.1408
17348W        W34195   7.781   5.906  14.183  0.5207  0.2437  0.0987
17349W        W34196   8.821   7.905   1.050 -0.0285 -0.4397  0.1198
17350W        W34197   1.761   0.774   1.864  0.1034 -0.3316 -0.0395
17351W        W34198   2.568  18.736  12.153  0.3090  0.0687  0.0633
17352W        W34199   7.787  17.004  10.603 -0.0163  0.1063  0.0486
17353W        W34200   5.094   6.230   0.253  0.0990 -0.2211 -0.1582
17354W        W34201   2.037  12.388   0.298 -0.3684  0.1116 -0.3284
17355W        W34202   0.011   6.067   4.920 -0.1214 -0.4834  0.1261
17356W        W34203   6.701   0.517  10.693  0.2485  0.0107 -0.1440
17357W        W34204   2.312   5.137  12.214 -0.1245  0.0297 -0.1399
17358W        W34205  16.876   5.374  11.142 -0.0177  0.1322 -0.0554
17359W        W34206  10.545   3.701  12.711  0.2708  0.2842  0.1660
17360W        W34207   9.078   7.852   4.271 -0.2332  0.0987 -0.1243
17361W        W34208   6.676   4.871   4.172  0.0217  0.1165  0.1474
17362W        W34209  14.958   6.415   0.252 -0.1634  0.2515 -0.3272
17363W        W34210   5.045  10.489  11.337  0.1743  0.1866  0.1150
17364W        W34211   4.071   4.419  12.827 -0.0101  0.0439  0.1431
17365W        W34212  11.495  13.884  11.519  0.2335 -0.0229  0.0616
17366W        W34213  12.395  18.139   5.299 -0.3612 -0.1151  0.3701
17367W        W34214   3.640   0.690  12.350  0.1002  0.0509 -0.4259
17368W        W34215   0.734   5.509  14.453  0.1243  0.0639 -0.1078
17369W        W34216  11.021  11.230  13.490  0.0893 -0.1726  0.0570
17370W        W34217   1.930  11.778  10.461 -0.3636  0.3107  0.3068
17371W        W34218   1.528   1.947  14.256  0.0401  0.2346 -0.2916
17372W        W34219   1.050   1.471   2.716 -0.0252 -0.1077 -0.1222
17373W        W34220   6.872  15.168  11.328  0.1580 -0.1492  0.1157
17374W        W34221   5.192   2.763  12.873  0.5278 -0.1841 -0.0329
17375W        W34222   7.058  17.087   1.371  0.0286  0.0689  0.2135
17376W        W34223   4.324   1.371   3.016  0.1972 -0.1310 -0.1443
17377W        W34224   2.003   4.053  13.754  0.0622  0.0454 -0.1661
17378W        W34225   0.038   1.070  11.091  0.0384  0.2143  0.0459
17379W        W34226   1.992  10.998   1.657 -0.0157 -0.2251 -0.1693
17380W        W34227   1.532  12.527  11.550 -0.3796  0.1471 -0.1538
17381W        W34228  14.228  18.266   0.811  0.1106 -0.1313  0.1953
17382W        W34229  18.809  16.946   3.705  0.1240 -0.0534  0.0938
17383W        W34230  12.736  11.809  12.502  0.3089  0.0409  0.1472
17384W        W34231  13.690   8.736  11.319 -0.1648  0.1240 -0.3105
17385W        W34232   6.004  18.849   3.492  0.1146 -0.1628  0.1479
17386W        W34233  14.184  18.208   4.570 -0.1620 -0.0344 -0.1741
17387W        W34234   3.935  17.982   4.257  0.1229 -0.0817  0.0554
17388W        W34235  15.607   2.735  10.793  0.1514 -0.3309 -0.2278
17389W        W34236  10.783   7.652  12.203  0.3004 -0.1696  0.0307
17390W        W34237  13.414  10.951   3.534 -0.6110 -0.0663  0.1152
17391W        W34238  12.068   4.952  10.773 -0.1408  0.1527 -0.0237
17392W        W34239   4.834  10.234  13.086 -0.1499  0.4504 -0.2852
17393W        W34240  17.146   1.623  14.438 -0.3637 -0.2447  0.1405
17394W        W34241  19.273  15.126   1.072  0.1615 -0.1580 -0.1190
17395W        W34242  19.590  14.334   1.601 -0.7827 -0.0533  0.2199
17396W        W34243   5.926   6.017   1.644  0.1316 -0.1769 -0.0069
17397W        W34244  15.823   0.684  12.345 -0.1512 -0.0451  0.0816
17398W        W34245  19.598   3.784   0.532  0.5202 -0.1212 -0.1075
17399W        W34246  14.930  13.560  10.558 -0.2803 -0.2699 -0.0695
17400W        W34247  10.650   4.292   5.484  0.1756 -0.1812 -0.3838
17401W        W34248   4.591   9.722   0.237 -0.1525 -0.0677 -0.0594
17402W        W34249  12.210  12.013   2.640  0.0565 -0.0615 -0.1878
17403W        W34250  17.509   3.608   5.282  0.1771  0.1416  0.0335
17404W        W34251   1.621   8.777   4.238  0.3337 -0.1076  0.0696
17405W        W34252   1.558   6.925  13.109  0.1255 -0.0271  0.0514
17406W        W34253   9.107  11.881  13.325 -0.1895 -0.0863 -0.0520
17407W        W34254   1.233   7.896   3.969 -0.0773 -0.1090  0.2618
17408W        W34255  11.743  16.365  10.774  0.0890  0.1361  0.2214
17409W        W34256  18.557   6.202  12.058  0.0029  0.0220 -0.0597
17410W        W34257  18.443   2.795   3.353 -0.2069  0.1238 -0.0301
17411W        W34258  15.460   3.706   3.515  0.1308 -0.0880  0.1475
17412W        W34259  14.067   9.013  13.988 -0.0392  0.3834  0.2975
17413W        W34260   3.531  14.110   0.630  0.0985  0.0478 -0.1590
17414W        W34261   0.053  11.366  13.882  0.0729  0.1807  0.0165
17415W        W34262   2.315  13.556  10.791  0.0307  0.1003  0.3158
17416W        W34263  19.129   0.401   1.623  0.2808  0.0223  0.1791
17417W        W34264   4.431   1.993  13.010  0.0089  0.0067  0.0485
17418W        W34265   4.908   7.600  14.283  0.2580  0.0838  0.0280
17419W        W34266  12.918   0.592  14.545 -0.0590  0.3685  0.0767
17420W        W34267   9.391   2.757   1.469 -0.0538  0.0651 -0.3804
17421W        W34268   6.606  15.780  10.331  0.0719  0.0247 -0.2042
17422W        W34269   6.941   3.097   4.317 -0.0077 -0.0777 -0.2144
17423W        W34270  15.820   9.037  12.202  0.1215  0.3432  0.0356
17424W        W34271   0.398  18.432   2.914 -0.0453 -0.0622  0.2055
17425W        W34272  18.663  12.818   0.772  0.4034 -0.1004 -0.0495
17426W        W34273  14.082   8.081  12.268  0.1700 -0.1262 -0.0345
17427W        W34274   2.665  19.363   4.029 -0.0953 -0.3476 -0.0095
17428W        W34275   3.374   6.442  13.440 -0.1573  0.1025 -0.1818
17429W        W34276   2.838   8.093  11.627  0.2131 -0.2993  0.1350
17430W        W34277   9.335   8.388  13.881 -0.2006 -0.2265  0.0261
17431W        W34278  16.949   3.022  11.183  0.4237  0.0545 -0.0167
17432W        W34279   1.482  11.363   1.149  0.2399  0.1716 -0.2017
17433W        W34280  18.249   3.667  13.996 -0.0707 -0.4698  0.1610
17434W        W34281   8.866  14.636   4.106  0.1730  0.1052  0.1223
17435W        W34282   5.973   1.097   3.207 -0.1507 -0.2719 -0.1281
17436W        W34283  14.581   7.839   5.206  0.0504  0.2067  0.0463
17437W        W34284   7.917   6.135  10.960 -0.0466  0.0005 -0.1748
17438W        W34285  15.183   3.641  13.782 -0.1233 -0.2020 -0.0779
17439W        W34286  15.262  13.393  11.489  0.1655 -0.1907 -0.0136
17440W        W34287  13.984  15.219  12.613 -0.1058 -0.2341 -0.1285
17441W        W34288  19.507   8.247   0.240 -0.0197  0.1087  0.1106
17442W        W34289  16.851   0.989  10.250  0.0208  0.1931 -0.5484
17443W        W34290  18.487  13.758  12.488  0.0570 -0.0061  0.2396
17444W        W34291   4.965  19.042  11.003  0.2681 -0.0925  0.0027
17445W        W34292   8.547   4.172   1.617  0.2835  0.1205 -0.4161
17446W        W34293   1.508  19.588   2.431  0.3306 -0.1458 -0.0952
17447W        W34294  18.040  11.566  10.249 -0.0429 -0.0872  0.0591
17448W        W34295   3.029  10.131   3.888  0.0500 -0.0186 -0.2274
17449W        W34296  12.065  13.038  10.698 -0.0655  0.0389  0.0082
17450W        W34297  14.992   2.121  13.013  0.3125 -0.2126  0.2047
17451W        W34298   2.346   1.552   3.393  0.0621  0.1392 -0.2694
17452W        W34299   8.577  16.655   9.875  0.4062  0.0832 -0.0329
17453W        W34300  14.266   9.053   2.584  0.0312 -0.0021 -0.3091
17454W        W34301   1.341  16.130   0.011  0.2176  0.1140 -0.3666
17455W        W34302  12.779   2.495  10.985 -0.0124  0.1364  0.2055
17456W        W34303   1.168   0.689  11.332  0.0982  0.2821  0.0342
17457W        W34304   0.864  11.879  13.021 -0.2435  0.2130  0.2065
17458W        W34305  12.494  12.268  12.725 -0.1079 -0.3922  0.0341
17459W        W34306  18.321   8.901   3.274  0.0449  0.3762 -0.2836
17460W        W34307   9.140   6.771  10.764  0.0031  0.2896  0.0958
17461W        W34308  10.144  10.187   1.716 -0.0111  0.4763  0.1512
17462W        W34309   6.681  13.366   1.848  0.2327 -0.1369  0.2269
17463W        W34310   7.525  10.749  11.366 -0.3034  0.1817  0.1435
17464W        W34311   6.223  16.837  10.012 -0.0970  0.0075 -0.3007
17465W        W34312   5.811  18.214   0.747  0.1088 -0.1339  0.0359
17466W        W34313  15.093  10.013   4.869  0.0526 -0.3537 -0.1434
17467W        W34314  19.622  17.731   3.799  0.2237  0.1669 -0.2854
17468W        W34315  12.946  14.693   3.241  0.1451  0.1958  0.0506
17469W        W34316  13.043  15.387   2.528 -0.2658 -0.1527 -0.1697
17470W        W34317  14.850   2.406  13.464 -0.1560  0.3973 -0.1866
17471W        W34318   8.718   3.506  12.048 -0.1582 -0.1222 -0.1551
17472W        W34319   8.898  12.050   2.385 -0.3936 -0.3272 -0.1140
17473W        W34320   4.566  17.313  10.962 -0.2705  0.1857 -0.0523
17474W        W34321  13.247  14.496  13.588  0.5601  0.3739  0.0276
17475W        W34322   9.575   2.214   1.623 -0.0732  0.0729  0.1208
17476W        W34323  14.645   9.583   5.698  0.0210  0.2216 -0.0932
17477W        W34324  13.722   3.508   1.248  0.3669  0.0047  0.3087
17478W        W34325  15.451   2.447   2.593  0.2305 -0.0989  0.0529
17479W        W34326  17.904  12.889   4.679  0.0211  0.0101 -0.0737
17480W        W34327   2.575   9.149  10.943 -0.1805  0.4200 -0.4423
17481W        W34328  11.661  10.197  12.666  0.1000  0.2709  0.0950
17482W        W34329   0.704  10.240   4.893  0.0212 -0.0096  0.3348
17483W        W34330   2.449  17.781   3.347  0.2662 -0.0638 -0.2674
17484W        W34331  11.928  14.798  12.954 -0.0879  0.1584  0.0036
17485W        W34332   8.520  15.632   3.648  0.1471 -0.3717  0.0264
17486W        W34333   7.549  19.246   5.141 -0.0191 -0.0024  0.0023
17487W        W34334   8.701  19.597   1.533  0.0870 -0.2534  0.1625
17488W        W34335  12.495   5.322  11.942 -0.0177 -0.2431 -0.4997
17489W        W34336   3.707  11.334   2.628  0.2127  0.0368  0.0192
17490W        W34337   1.987   6.061   1.588 -0.0354  0.1105 -0.0764
17491W        W34338  11.070   3.393  14.377  0.2225 -0.2189 -0.4222
17492W        W34339  18.191  14.983  13.688  0.0097 -0.0026  0.0491
17493W        W34340   3.673  16.431   0.624 -0.3616 -0.0431  0.0722
17494W        W34341  15.640   9.245   4.052 -0.1651 -0.1811 -0.1218
17495W        W34342  17.506   4.814  11.897 -0.0554  0.0602 -0.0053
17496W        W34343  18.147  13.818   4.148 -0.4374  0.2191 -0.0602
17497W        W34344   2.543  12.441  12.369  0.0254  0.0654 -0.0172
17498W        W34345   4.148   4.967   3.109  0.1723  0.2728  0.1379
17499W        W34346   7.784   9.696   3.480 -0.2031 -0.1782 -0.1382
17500W        W34347  17.474   3.955   0.456 -0.2039  0.1683  0.3373
17501W        W34348  16.178  17.355   0.205  0.3669 -0.1748  0.0838
17502W        W34349   3.564   3.055   0.013 -0.0395 -0.1429  0.0422
17503W        W34350  17.399   8.045   2.482 -0.3489 -0.0551  0.1692
17504W        W34351   9.724   0.649   1.202 -0.0069  0.0935  0.1860
17505W        W34352   6.146  13.179   2.569  0.1711  0.0282  0.0013
17506W        W34353  10.161   8.823   0.949 -0.1159 -0.2680 -0.0076
17507W        W34354  14.270   0.936  13.865  0.0063  0.5094 -0.1385
17508W        W34355  16.713   3.125  13.033 -0.1052  0.2249  0.3062
17509W        W34356   5.186  15.009   3.636  0.0849  0.1398  0.0470
17510W        W34357  19.286   3.447   1.399 -0.0416 -0.4667  0.3912
17511W        W34358  13.746   6.727   2.280  0.0040 -0.2643  0.4653
17512W        W34359  12.797  11.724   2.692  0.2633 -0.0657  0.0103
17513W        W34360   9.149   6.604   3.462  0.0279  0.4287 -0.2233
17514W        W34361  14.873  12.114  13.061  0.2421 -0.0217 -0.0673
17515W        W34362  12.460   7.246   3.241  0.0991  0.2581  0.3353
17516W        W34363   3.002   3.692   1.737 -0.0530 -0.0197 -0.2811
17517W        W34364   6.809   8.084   4.405 -0.2824 -0.2918 -0.0085
17518W        W34365   5.065  16.199  12.867 -0.3793  0.5571 -0.0196
17519W        W34366   0.482  19.502  13.717  0.2369  0.3362 -0.1914
17520W        W34367  14.175   5.538   3.747  0.0164  0.2430  0.0016
17521W        W34368   2.833   3.665  10.684 -0.1049  0.1464 -0.0636
17522W        W34369  15.905   8.102   5.917  0.2893  0.2597 -0.0559
17523W        W34370   7.869   1.830  10.379 -0.0126 -0.0403  0.1051
17524W        W34371  11.270  18.557  11.797  0.1918 -0.0229 -0.0269
17525W        W34372  13.009  15.117   1.814  0.2161 -0.1383  0.3208
17526W        W34373  13.929  11.024   3.456 -0.0692 -0.0288 -0.0405
17527W        W34374   5.493  13.221   3.483 -0.4609  0.0376  0.1720
17528W        W34375   3.779   8.036   1.610 -0.0547 -0.0044 -0.0321
17529W        W34376  13.540  15.440  10.832  0.4112 -0.2145  0.2672
17530W        W34377   7.738  12.383   0.097 -0.2534  0.4024  0.1279
17531W        W34378  16.897  11.609   0.763  0.0138  0.0074  0.1100
17532W        W34379  18.942  19.490  13.099  0.2327 -0.0004 -0.1135
17533W        W34380   3.000   0.548   3.368  0.1100 -0.0777 -0.1104
17534W        W34381   0.246  12.503   1.327 -0.5137  0.2297  0.1950
17535W        W34382  15.588  14.401  14.046 -0.0482 -0.2560 -0.2506
17536W        W34383   9.472   4.204   0.095  0.1272 -0.0517  0.1650
17537W        W34384   2.757  10.614   1.674 -0.2170 -0.2306 -0.3271
17538W        W34385  12.617  15.702  14.447  0.0668  0.0579  0.3310
17539W        W34386   9.757   1.308   0.185 -0.3891 -0.1408 -0.1552
17540W        W34387  16.428  16.644   3.396 -0.1024 -0.0705 -0.0025
17541W        W34388  12.580   1.699  14.029  0.1211 -0.2042  0.0035
17542W        W34389   8.544   7.999  14.158  0.1314  0.1865 -0.1113
17543W        W34390   3.245  12.533   3.671  0.2780  0.1690 -0.0793
17544W        W34391   7.793   5.877  11.395 -0.1759 -0.1887  0.1564
17545W        W34392  17.259  18.721   4.709 -0.2789 -0.0523 -0.0740
17546W        W34393   4.910  15.265   0.744  0.1153 -0.2191  0.0795
17547W        W34394  16.255   3.033  10.946 -0.0103  0.0564 -0.1781
17548W        W34395   0.058   3.149  13.340 -0.0341 -0.1249  0.1746
17549W        W34396  10.880   5.760  12.076  0.0303 -0.1113  0.1728
17550W        W34397   2.498  19.631   0.372 -0.4936  0.2973 -0.1316
17551W        W34398  10.391  19.195  10.905 -0.3312  0.0827  0.1313
17552W        W34399  12.539   4.801   3.471 -0.0318 -0.2923 -0.0819
17553W        W34400   4.328   7.294  12.348 -0.0330  0.1219 -0.0037
17554W        W34401   0.389   6.912   2.944 -0.0326  0.2410  0.0233
17555W        W34402   3.455  13.697   1.555 -0.3756  0.1620  0.2530
17556W        W34403  14.531   3.014   2.652 -0.3478 -0.0353  0.0458
17557W        W34404   0.480  18.032  12.704 -0.1162 -0.2284  0.3106
17558W        W34405   8.461  15.473   0.802 -0.2926 -0.3451 -0.5494
17559W        W34406   8.369   6.939  10.808 -0.0279  0.0034  0.2123
17560W        W34407   4.233  16.902  13.126 -0.0929 -0.2005 -0.0363
17561W        W34408   1.437   6.775  13.710  0.1066 -0.2525  0.0366
17562W        W34409  11.244  11.652   3.834  0.0521 -0.0378  0.1017
17563W        W34410   5.292  17.379  11.685  0.0655 -0.0054  0.0658
17564W        W34411  10.498  12.964  13.806  0.1696  0.0145 -0.0401
17565W        W34412  18.666  13.314  13.836  0.0349 -0.0657 -0.1157
17566W        W34413   2.066   9.905  10.800  0.3138  0.1837 -0.1587
17567W        W34414  17.073  16.379   9.450 -0.0254  0.0258  0.0380
17568W        W34415   9.679  13.182   1.042  0.2123 -0.0797  0.0976
17569W        W34416   8.454   2.907  11.503  0.1845 -0.2519  0.0804
17570W        W34417   2.237   0.081   1.898 -0.0162 -0.0807 -0.0992
17571W        W34418   5.697   1.268  14.382  0.3007 -0.0652  0.1741
17572W        W34419  16.479  13.058   2.003 -0.2387 -0.2088  0.0270
17573W        W34420  11.478  16.274   3.965 -0.2367  0.0149  0.3459
17574W        W34421   1.062  11.202   1.492  0.1415  0.3203 -0.0500
17575W        W34422  18.772   5.453   1.913 -0.2447 -0.0616  0.2237
17576W        W34423   1.032  13.285  13.637  0.1204  0.0623  0.2511
17577W        W34424   4.710  14.920  10.167  0.3861 -0.0055 -0.1191
17578W        W34425   5.144   6.430  14.425 -0.1589 -0.1247  0.2248
17579W        W34426  11.427  17.015  10.381  0.2690 -0.2474  0.2747
17580W        W34427   3.372  10.621   1.141 -0.0640  0.1263  0.1598
17581W        W34428   2.020  15.257   4.023  0.2800 -0.2937 -0.0855
17582W        W34429  17.184  14.992   3.230 -0.4411  0.6364  0.2623
17583W        W34430  16.231  18.183  10.341 -0.1150 -0.1841 -0.0189
17584W        W34431   5.612  16.677  10.913  0.0535  0.0867  0.0391
17585W        W34432   4.316  13.194  11.761  0.0033 -0.0149 -0.0702
17586W        W34433   9.209  19.560  11.492 -0.2428 -0.2766 -0.0679
17587W        W34434   6.266  15.606  12.580 -0.3139 -0.3223  0.2342
17588W        W34435  17.794   0.835   2.410  0.1297  0.1873  0.1087
17589W        W34436   4.965   1.639   1.730 -0.1185  0.0806  0.1812
17590W        W34437   2.800  10.589  13.410  0.1857 -0.2499 -0.0084
17591W        W34438  11.762   9.266   2.201  0.1985  0.0012  0.0806
17592W        W34439   2.365  16.526   5.475 -0.0831  0.3348 -0.1844
17593W        W34440   7.692  17.331  12.807  0.0310 -0.2695 -0.0546
17594W        W34441   2.902   9.429   2.607 -0.0828  0.0636 -0.1022
17595W        W34442   0.843   3.740   0.274  0.0900  0.0321  0.0272
17596W        W34443   1.417   7.310   2.315 -0.1233 -0.0072 -0.1703
17597W        W34444   2.137  16.988  10.978 -0.0741 -0.0335  0.2441
17598W        W34445   0.379   4.582   3.186  0.1983 -0.0274  0.4545
17599W        W34446   4.155   0.202  11.229  0.0312 -0.3098  0.0099
17600W        W34447  13.021   8.013  10.829  0.0143 -0.1282 -0.0188
17601W        W34448   5.891  16.993   3.356  0.1294  0.1029 -0.1409
17602W        W34449  13.205   4.547   4.345 -0.1816  0.0790 -0.0118
17603W        W34450   3.329   1.869   1.910  0.3606 -0.0474  0.0486
17604W        W34451   9.099   1.287   0.646  0.2501 -0.0880 -0.2853
17605W        W34452  13.955   7.306  13.400  0.0737  0.0978 -0.0047
17606W        W34453   3.669  11.872  11.279  0.0744  0.0241  0.3295
17607W        W34454   0.466  13.143   0.150 -0.0821  0.2539 -0.1318
17608W        W34455  15.621  12.500   2.443  0.1709 -0.2679 -0.0101
17609W        W34456   1.315  19.370   4.146  0.0927 -0.2281  0.0313
17610W        W34457  10.944  18.616  12.240 -0.1409  0.2267  0.2195
17611W        W34458   0.812   5.259   0.251 -0.0670  0.1891 -0.1234
17612W        W34459   9.867  16.138  10.949 -0.3588 -0.2207 -0.2294
17613W        W34460   1.262  17.255   9.096  0.1626  0.0204  0.2674
17614W        W34461  16.094   5.290   1.286 -0.1396  0.1979 -0.2281
17615W        W34462  11.635   5.189   4.548 -0.3790  0.4954 -0.0399
17616W        W34463   6.637  11.209   1.523  0.2196 -0.1133 -0.1947
17617W        W34464  16.845   5.809   2.199  0.0277 -0.1613  0.1720
17618W        W34465   8.919  15.276  13.874 -0.3847 -0.4202 -0.0740
17619W        W34466   2.338  19.575   2.419  0.3151 -0.0707 -0.0330
17620W        W34467   7.294  18.616   3.126 -0.1783  0.1358 -0.1455
17621W        W34468  13.952  11.329   3.851 -0.0238 -0.1095  0.0121
17622W        W34469   9.636  16.628   2.479  0.1766  0.0297 -0.0994
17623W        W34470   4.616   8.017  14.393 -0.1825  0.0950 -0.0153
17624W        W34471   8.992   2.940   1.062 -0.0659  0.0144  0.0611
17625W        W34472  19.087  12.002  11.075 -0.1398  0.3940  0.1844
17626W        W34473   4.073  14.783   3.286  0.0658  0.1404 -0.2351
17627W        W34474  14.912  19.140  12.112 -0.2308  0.2386  0.1280
17628W        W34475  14.514   2.868  11.920  0.0180  0.2542 -0.1442
17629W        W34476  14.680   1.767   2.411 -0.1591  0.0644 -0.1481
17630W        W34477  14.381   8.713  10.289  0.2706 -0.0565  0.1620
17631W        W34478  13.007  19.578   1.700 -0.1609 -0.1465 -0.1258
17632W        W34479  10.876   8.321   1.135 -0.2716 -0.0066  0.0422
17633W        W34480   7.979   2.978  13.095  0.0950  0.2585 -0.2801
17634W        W34481  16.890   8.808   2.329  0.2211  0.0822  0.2357
17635W        W34482   9.598   2.092  12.076 -0.3084  0.0981  0.1082
17636W        W34483   7.970   7.947   1.532 -0.0341  0.2284  0.0447
17637W        W34484  15.687   0.528   2.088  0.2110  0.1805  0.1757
17638W        W34485  11.587  17.400  12.075  0.0268  0.0754 -0.2088
17639W        W34486  11.364  15.470  13.345  0.1767  0.1175 -0.1023
17640W        W34487   1.877   3.712   0.706  0.0955  0.1298 -0.2370
17641W        W34488  19.291   3.924   3.474  0.2898  0.0362  0.0808
17642W        W34489  14.445  12.990  13.041 -0.3469  0.0550 -0.0391
17643W        W34490   0.141  11.511   1.186 -0.0459 -0.0025  0.0372
17644W        W34491  17.144  11.943  10.905 -0.0546  0.2806 -0.1046
17645W        W34492  17.939   6.668   3.907 -0.2504  0.0059 -0.1968
17646W        W34493  11.307  18.630  11.208 -0.1543 -0.1984  0.0351
17647W        W34494   1.315   5.900  13.519 -0.1873  0.0908  0.1724
17648W        W34495   2.299   0.349   0.009  0.0928 -0.1788 -0.0204
17649W        W34496  11.353  16.727   2.180 -0.1884  0.1101  0.0356
17650W        W34497  16.747  10.045  10.724 -0.1268  0.2270 -0.2104
17651W        W34498  12.182   4.367   4.409  0.0385  0.5194  0.2410
17652W        W34499  18.071   2.480  11.856 -0.1233  0.1510  0.1337
17653W        W34500  11.430  11.735  12.236  0.1550  0.0994  0.0776
17654W        W34501   4.756  17.622   0.170 -0.1308 -0.0914  0.1761
17655W        W34502  15.233   5.363   2.383  0.1220  0.0110 -0.4121
17656W        W34503   1.964  14.206  14.004  0.2800 -0.1550  0.1240
17657W        W34504   7.913   4.489  13.937  0.2739 -0.2410  0.0864
17658W        W34505  14.880  18.678  12.324 -0.2211 -0.0210 -0.5120
17659W        W34506   9.741  12.479   3.291 -0.2838  0.1005  0.3326
17660W        W34507  16.479  19.155  13.729 -0.3419 -0.1855 -0.0133
17661W        W34508  19.376   2.548  11.388  0.0196 -0.1927 -0.1898
17662W        W34509   7.670  17.173  14.606  0.0397  0.2247  0.0592
17663W        W34510  13.646   2.889   9.244 -0.3028  0.2066  0.2347
17664W        W34511  18.133  12.290  11.231 -0.0173 -0.0385 -0.1120
17665W        W34512  12.006   8.086  11.237  0.2779 -0.1655 -0.0214
17666W        W34513  10.103  12.748   4.100  0.3886 -0.1174  0.1021
17667W        W34514   5.917   3.823  10.948  0.0583 -0.1751  0.0187
17668W        W34515  12.067   6.833  10.859  0.2718  0.0541  0.0579
17669W        W34516   2.717  15.028  12.774 -0.3087 -0.1374 -0.0845
17670W        W34517   4.927   5.393   3.665  0.1304 -0.2878 -0.1141
17671W        W34518   9.472   1.893   4.709 -0.3103  0.3082  0.1570
17672W        W34519  18.706  16.325  11.188  0.1971  0.0119 -0.1256
17673W        W34520   9.807  11.578   3.620  0.0266 -0.0613 -0.0155
17674W        W34521  10.994  11.007  12.619  0.2771  0.2045  0.1267
17675W        W34522   7.684  12.491  13.067  0.1511 -0.1058 -0.1721
17676W        W34523  19.627   4.470  10.740  0.1937 -0.1611 -0.4036
17677W        W34524  10.620  12.551  14.143  0.0173  0.0394 -0.1682
17678W        W34525   3.165  11.879  11.396  0.2476  0.0262  0.3305
17679W        W34526   5.740   5.835   2.920 -0.1734  0.0472  0.0746
17680W        W34527  16.361   0.673  10.201  0.0656 -0.0293  0.0504
17681W        W34528  10.056   0.981   1.446  0.3106  0.0987 -0.0509
17682W        W34529  17.957  12.546  10.291  0.2423 -0.0842  0.0922
17683W        W34530  14.702   8.615  12.772 -0.0095 -0.0222  0.2209
17684W        W34531  16.464   0.545  13.826  0.0493 -0.3012 -0.0847
17685W        W34532   4.077  12.318  13.830 -0.0527  0.1496 -0.2892
17686W        W34533   4.701  10.717   3.277 -0.2237  0.2954  0.0953
17687W        W34534  17.252   9.711   3.686 -0.0945  0.2290 -0.0178
17688W        W34535  18.447   4.587   0.750  0.0979  0.3900 -0.1843
17689W        W34536  13.399   3.974   3.051 -0.1699 -0.1047  0.1639
17690W        W34537   0.903   1.166   2.359 -0.1278 -0.0493  0.0074
17691W        W34538  17.702   6.537   1.848  0.4857  0.0034 -0.0841
17692W        W34539   9.217   4.263   3.174  0.1749  0.3572  0.1544
17693W        W34540  19.274   2.430  13.009 -0.0438  0.0156  0.0458
17694W        W34541   8.654  14.670  10.349  0.1974 -0.0252  0.0314
17695W        W34542   8.154  15.578   9.721 -0.0979  0.1656  0.2096
17696W        W34543   4.081   0.798  14.021 -0.1135 -0.1517 -0.0401
17697W        W34544   1.247   4.915   4.847  0.2674  0.2438  0.2883
17698W        W34545  10.924  18.148   1.577  0.1687 -0.2393  0.0868
17699W        W34546  10.555  13.672   1.439  0.1471 -0.2746 -0.1404
17700W        W34547  16.987   0.759  10.748  0.0059  0.1794 -0.1585
17701W        W34548  12.476   3.105   3.905 -0.1336  0.1810 -0.1537
17702W        W34549  16.797  18.787   5.050 -0.0645  0.0374 -0.0554
17703W        W34550  11.999   4.127  12.382  0.0046  0.3354 -0.2576
17704W        W34551   9.095   9.456   3.821  0.0704  0.1310  0.0968
17705W        W34552   5.272   1.112   1.653  0.6227  0.2206  0.4101
17706W        W34553  19.219  19.024   3.183  0.2783 -0.2399 -0.1215
17707W        W34554  12.105   2.104   0.211 -0.2778 -0.0659  0.3534
17708W        W34555  13.272   4.643   5.026  0.1136 -0.1367  0.0070
17709W        W34556   2.011   5.696  10.144 -0.2694  0.4051  0.0026
17710W        W34557  10.788   9.828   0.394  0.0051 -0.2057  0.1743
17711W        W34558   6.798  10.336  11.608 -0.2517  0.1974 -0.0108
17712W        W34559  16.919   4.773  11.660 -0.1673 -0.1350 -0.1230
17713W        W34560   3.095   8.667  12.346 -0.0519  0.3299  0.2100
17714W        W34561   1.372  17.387  13.414  0.0700 -0.0325 -0.1028
17715W        W34562   4.287   7.846   9.983  0.1698 -0.1600 -0.1186
17716W        W34563  10.452  12.969   2.851  0.0261  0.3311  0.1333
17717W        W34564   9.780  14.732  12.045  0.1479 -0.0183 -0.1493
17718W        W34565   0.475   6.931   2.351  0.3305 -0.1303 -0.1183
17719W        W34566  10.312  18.228   3.154 -0.1711 -0.0267  0.1345
17720W        W34567  12.514   0.029  11.771  0.2035  0.1992 -0.0831
17721W        W34568   6.528  13.366   2.333  0.2041  0.2770 -0.1104
17722W        W34569   4.240   1.709   2.644  0.0172  0.0606 -0.1455
17723W        W34570   7.738   2.406   4.006 -0.0178  0.0152 -0.2111
17724W        W34571   1.474   9.046   0.124 -0.1627  0.1897 -0.1946
17725W        W34572   1.669   7.402   2.965  0.0971 -0.2438 -0.0589
17726W        W34573  17.663   2.532   4.075  0.0657 -0.0592 -0.1740
17727W        W34574   4.691   8.023   2.167 -0.1068 -0.2334 -0.1256
17728W        W34575  10.274   0.000   2.362  0.0405  0.0074  0.1807
17729W        W34576   7.358   2.992   0.834 -0.2778  0.2811 -0.2700
17730W        W34577  17.937   5.966  10.170 -0.0955  0.1180  0.2754
17731W        W34578  19.277  10.807   5.848  0.0183  0.0232 -0.2805
17732W        W34579  12.231  17.970   0.933 -0.0787 -0.0899 -0.3808
17733W        W34580   6.343   8.708   5.064 -0.2808  0.0471  0.3678
17734W        W34581  19.086  10.797  13.945 -0.0493  0.2521  0.0009
17735W        W34582   0.425  15.301   0.058  0.0788 -0.1034  0.1221
17736W        W34583  17.485   6.557   4.122 -0.2443  0.0441 -0.2515
17737W        W34584  15.370  15.445   5.301  0.2207  0.0182 -0.2870
17738W        W34585   2.001   8.096   4.693 -0.0223 -0.0702 -0.1657
17739W        W34586   8.714  10.878  11.418 -0.0157  0.0127  0.5888
17740W        W34587  13.970  18.413  13.482 -0.1887  0.0751 -0.0798
17741W        W34588  12.397   6.243  14.135 -0.3127  0.0371  0.1743
17742W        W34589  17.602  11.321  13.083 -0.1756  0.1518  0.0141
17743W        W34590  11.745   2.515   2.573  0.2037 -0.2159 -0.2811
17744W        W34591   5.422  14.507   4.003  0.2278  0.3346 -0.2455
17745W        W34592   7.762  13.133  12.399  0.0857  0.0642 -0.1146
17746W        W34593   2.417  10.032  13.855 -0.2627 -0.3233  0.2698
17747W        W34594  18.100  18.111   2.707 -0.0758  0.1061  0.2447
17748W        W34595  17.242  15.010  10.919 -0.4941  0.0836  0.2039
17749W        W34596  17.919  14.103  14.354 -0.0998  0.1438 -0.2302
17750W        W34597   9.981   7.049  11.128  0.0362  0.3509 -0.0145
17751W        W34598   2.140  12.443  13.724 -0.1847 -0.0801  0.0895
17752W        W34599   4.847  17.700  11.623 -0.1875  0.2189  0.3832
17753W        W34600  13.681   8.057   9.664  0.1913  0.0596  0.4303
17754W        W34601   6.029   7.841  12.472  0.1490 -0.3474 -0.0965
17755W        W34602  15.461  15.307  13.547 -0.1470  0.2794 -0.2012
17756W        W34603   1.049   1.743  14.296 -0.1613 -0.2748 -0.0508
17757W        W34604   8.627   4.155   3.732 -0.1550 -0.1317 -0.2241
17758W        W34605  18.986  18.804  14.356 -0.0060 -0.2447  0.0933
17759W        W34606  18.289   3.629   0.400 -0.0868  0.0710 -0.1413
17760W        W34607  14.248   7.016   5.029 -0.0453 -0.0995 -0.1475
17761W        W34608   0.672  13.348   2.224 -0.0277  0.1762  0.2776
17762W        W34609  16.266   4.178   2.099 -0.2367 -0.1340 -0.1172
17763W        W34610   7.999   3.568  11.100  0.4626  0.2420  0.0709
17764W        W34611   0.869   5.620   2.047 -0.0775 -0.0890 -0.0182
17765W        W34612   9.573   2.658  10.236 -0.1523 -0.1873 -0.0595
17766W        W34613  12.390   9.475  11.131  0.2287 -0.0568  0.4157
17767W        W34614  12.668   1.416  11.387  0.1315  0.0815 -0.1559
17768W        W34615   4.932   2.993  10.715  0.0993  0.0635 -0.1313
17769W        W34616  17.289  16.445   1.720 -0.0016  0.1479  0.0303
17770W        W34617   5.566  10.170  14.401 -0.4051  0.1611  0.1266
17771W        W34618  10.852  18.860   0.856 -0.5190  0.1446  0.0444
17772W        W34619  17.357   6.970   4.455  0.1438  0.1487  0.2551
17773W        W34620   5.531  10.938   1.733 -0.0454  0.1394 -0.2163
17774W        W34621  13.068   8.194   3.003  0.0662  0.0242  0.0319
17775W        W34622  17.875   5.307   0.529  0.0139 -0.0812 -0.0481
17776W        W34623   4.791   8.622  11.119  0.2395  0.2728  0.0580
17777W        W34624  11.686   0.248   2.743  0.0296  0.3082 -0.2952
17778W        W34625   4.431   8.306   3.015 -0.2589 -0.1089 -0.2112
17779W        W34626  15.253  17.306   1.638  0.1595  0.1039  0.3099
17780W        W34627   8.470  16.378  10.827  0.2005  0.0923 -0.3565
17781W        W34628  19.290   7.807   4.416 -0.2710 -0.0319 -0.0790
17782W        W34629  15.208   1.788   4.485  0.2998  0.0080  0.4555
17783W        W34630   8.864  10.212  12.224 -0.0009  0.0349 -0.0087
17784W        W34631   1.892   3.120  13.424 -0.0453  0.0955  0.1722
17785W        W34632   6.440  11.043   3.236  0.0281  0.0356  0.0261
17786W        W34633  14.814  11.750  11.722 -0.1985 -0.2930 -0.3382
17787W        W34634  19.086  18.241   2.458  0.1098 -0.0351  0.0450
17788W        W34635   8.274   4.724   0.820  0.2218  0.2699  0.2095
17789W        W34636   8.660   7.038  10.341  0.0217  0.2533 -0.0895
17790W        W34637  18.773  15.076  11.985  0.1071 -0.1724  0.1911
17791W        W34638   9.686   3.187  12.706  0.0109 -0.3163  0.0797
17792W        W34639  10.708   2.119   3.318 -0.2449 -0.1926  0.0267
17793W        W34640   7.259  15.160   1.076 -0.0365  0.0457  0.1190
17794W        W34641  10.060  15.913  10.045  0.3477 -0.1680 -0.4581
17795W        W34642   9.378   1.782  11.201  0.1420 -0.1903 -0.0414
17796W        W34643   2.713   0.008  10.147  0.0462 -0.0468  0.0034
17797W        W34644   2.960  15.372   0.117  0.4241 -0.3619  0.1125
17798W        W34645  10.189  14.577   9.841  0.0530  0.0444  0.0612
17799W        W34646  13.958  12.835   4.343 -0.1910  0.4065  0.2883
17800W        W34647  11.119   5.563  13.153  0.0164 -0.0335 -0.0350
17801W        W34648  17.332  10.931  11.856  0.5090 -0.1584  0.0502
17802W        W34649  17.610  16.273  10.929  0.2434  0.1231  0.2243
17803W        W34650  17.733   9.730   1.858 -0.2100  0.2138 -0.2580
17804W        W34651  15.073   9.893  14.014 -0.2271  0.1907  0.1880
17805W        W34652  17.162   2.873  12.786  0.0179 -0.0142  0.2189
17806W        W34653   7.098  19.058   4.440 -0.0255  0.2087  0.0949
17807W        W34654  12.914   7.087   2.830  0.1184 -0.0671  0.2407
17808W        W34655   3.688   7.492   3.416  0.1353 -0.3092  0.1085
17809W        W34656  14.596  14.736  13.736  0.1869 -0.0326 -0.2762
17810W        W34657  16.119  14.884   0.156  0.2039 -0.3095 -0.3861
17811W        W34658   9.096  15.745   0.256  0.2616 -0.0261 -0.2154
17812W        W34659   9.200   0.702  13.122  0.3045  0.3470 -0.1072
17813W        W34660  14.704   5.475  10.422 -0.0564 -0.1933 -0.0254
17814W        W34661   5.581  18.629   1.028  0.1621  0.1009 -0.1422
17815W        W34662  19.021   7.282  13.575 -0.0456  0.1049 -0.2831
17816W        W34663  11.443  14.813   4.874 -0.1651  0.4562  0.2781
17817W        W34664  13.070   1.931   2.684 -0.0021 -0.0159  0.0336
17818W        W34665  16.491  11.588  11.520  0.0757  0.2019  0.2433
17819W        W34666  10.677  19.550  12.291 -0.2049  0.3382  0.0686
17820W        W34667  15.492   6.889  13.433 -0.3482  0.4058  0.0720
17821W        W34668   2.452   3.042   0.796  0.0080 -0.3426 -0.3090
17822W        W34669  15.929   4.599  12.885 -0.2253  0.1535  0.0783
17823W        W34670   3.734  10.008  10.943  0.0452  0.2004 -0.0828
17824W        W34671  17.428  18.683   2.413 -0.1680 -0.2000 -0.1295
17825W        W34672  15.856   4.961   1.652 -0.4041 -0.0654  0.3070
17826W        W34673   5.596  18.872   1.815  0.3055 -0.0930  0.0257
17827W        W34674  12.934   5.770  14.137 -0.1495 -0.0648 -0.0698
17828W        W34675  13.747  11.268  12.569  0.0648 -0.1551 -0.0277
17829W        W34676   4.334  16.228   2.482  0.0061  0.0383 -0.0978
17830W        W34677   1.349   1.682   3.607 -0.1289  0.0312 -0.0379
17831W        W34678   6.934  10.734   4.040 -0.0898  0.3176  0.3809
17832W        W34679   9.269   6.286   0.027 -0.0669  0.1368  0.0684
17833W        W34680   7.601   9.313   0.160  0.0330 -0.0483  0.0025
17834W        W34681   3.972  19.573  13.150 -0.2899  0.0878 -0.1423
17835W        W34682  13.662   2.117  13.591 -0.3748  0.0833  0.1516
17836W        W34683   3.394  10.875   5.356 -0.0685  0.0332 -0.2744
17837W        W34684   2.957  12.174   0.405  0.0113  0.0542 -0.0681
17838W        W34685   8.304  13.634   2.983  0.3731  0.0783  0.1190
17839W        W34686  10.948   8.129   0.158  0.2242 -0.1059 -0.1585
17840W        W34687   9.597   4.030   0.554  0.2551 -0.2045 -0.1004
17841W        W34688   0.233   9.085   4.012  0.1228 -0.2220  0.1999
17842W        W34689   9.573  16.899  11.252  0.1269 -0.0852  0.0987
17843W        W34690   9.812   6.536   2.215  0.0924 -0.0238 -0.1155
17844W        W34691   4.763  13.994   1.804  0.0074  0.2724 -0.0272
17845W        W34692  14.273   7.688  13.219  0.1811 -0.0480  0.1491
17846W        W34693   5.044  15.499   2.460  0.1604  0.1299  0.4780
17847W        W34694  17.625   1.415   1.491  0.0237 -0.2589 -0.0524
17848W        W34695   8.090  11.395  11.719 -0.0962  0.0246 -0.0659
17849W        W34696   3.664   1.552  12.088  0.0721  0.1389 -0.0758
17850W        W34697  19.033  12.493   2.395 -0.2119 -0.0459 -0.1940
17851W        W34698  17.043  19.293   3.698  0.0448  0.2099  0.2195
17852W        W34699  13.747  15.184   3.536  0.1184  0.0861 -0.0774
17853W        W34700  18.194   3.059  11.774 -0.0026  0.3629 -0.1919
17854W        W34701   1.155  18.514  10.396 -0.0554 -0.1660  0.1161
17855W        W34702   8.612  18.777   3.229 -0.1327  0.1531 -0.0920
17856W        W34703   5.417   3.208   9.523 -0.1304 -0.0577  0.3420
17857W        W34704  11.019  11.657  11.767  0.3216 -0.0254 -0.0513
17858W        W34705  12.494  13.127  14.511 -0.2365 -0.2619 -0.5079
17859W        W34706   8.859  13.683  14.163  0.1559  0.2978 -0.0214
17860W        W34707   9.267   7.380   1.959 -0.3849 -0.0789 -0.3095
17861W        W34708  13.735   9.013  12.358 -0.0051 -0.0422  0.0041
17862W        W34709  13.651  16.862   2.270  0.0212 -0.0013  0.3430
17863W        W34710  18.661   4.959   1.086 -0.3984 -0.1230 -0.3075
17864W        W34711   4.725  16.606  14.600  0.1922 -0.0202 -0.1824
17865W        W34712  16.248   7.656   5.840 -0.0022  0.0018 -0.3161
17866W        W34713  19.511   7.267  14.487 -0.0116  0.0081 -0.2685
17867W        W34714   1.506  18.096   2.095  0.1494  0.0424 -0.0819
17868W        W34715   4.784  15.037  11.150  0.0599 -0.0213 -0.0630
17869W        W34716  16.125  16.313  13.610 -0.0295  0.0537 -0.1641
17870W        W34717   5.362   4.332   0.151  0.0505  0.0118  0.0393
17871W        W34718  18.971   1.231   0.630 -0.2940 -0.1235  0.2135
17872W        W34719  19.189   4.583  14.079 -0.5284  0.0348  0.2893
17873W        W34720  18.158   7.159   3.071 -0.0488 -0.0989 -0.1393
17874W        W34721   2.967  10.163  12.475 -0.2346 -0.2769 -0.0252
17875W        W34722  17.546   5.723  11.796  0.0508 -0.2320 -0.0909
17876W        W34723   3.644  17.165   0.380 -0.3196 -0.2859 -0.0206
17877W        W34724  15.824  17.366   2.230 -0.1187 -0.2315 -0.2060
17878W        W34725  19.621   3.557   0.118  0.1188 -0.2919  0.0664
17879W        W34726   6.282   7.974   3.949  0.1707 -0.1334  0.0615
17880W        W34727   5.593  16.684  12.095 -0.0473 -0.2542 -0.1412
17881W        W34728  14.669  10.138   2.188  0.2163  0.0883 -0.2323
17882W        W34729   4.145  11.782  10.399 -0.0504  0.2898 -0.1522
17883W        W34730  19.326  14.701  13.090 -0.1017  0.0748 -0.1889
17884W        W34731   1.363  17.720   0.294 -0.1078  0.3212 -0.1050
17885W        W34732   5.950   2.082   3.506  0.2551  0.0962  0.1154
17886W        W34733   0.593  19.029  13.446 -0.0440 -0.1785  0.0751
17887W        W34734  17.231   2.499  11.470  0.0670 -0.4969  0.1178
17888W        W34735  10.448   8.242  10.809 -0.0232 -0.0124 -0.3077
17889W        W34736   5.483   3.396   1.537  0.1317 -0.0223  0.0782
17890W        W34737   3.402   2.231  10.126 -0.3024  0.1481  0.0291
17891W        W34738   9.755   7.555  11.068  0.3014 -0.1432 -0.0279
17892W        W34739  13.334   5.885  12.808 -0.3607  0.0196 -0.1011
17893W        W34740   2.204  12.607   5.131  0.0746 -0.3701 -0.0964
17894W        W34741  12.538   6.594   4.315 -0.2106  0.1979 -0.4461
17895W        W34742   5.608   1.021   4.352 -0.0966  0.1283 -0.0710
17896W        W34743  14.695  17.306   2.900  0.2495  0.1469 -0.1852
17897W        W34744  13.633  18.218  14.270  0.1266  0.2135  0.2913
17898W        W34745  14.427   9.071   3.546  0.0935 -0.0960 -0.0007
17899W        W34746   9.936  19.037  14.292 -0.1619  0.3871 -0.1069
17900W        W34747   1.459   7.417  13.132  0.3208  0.0313  0.2733
17901W        W34748  16.012  10.056  12.355  0.2629 -0.3053 -0.2762
17902W        W34749   9.787  13.048  12.752  0.0552  0.2033 -0.1517
17903W        W34750   9.151  17.206   1.664  0.0382  0.4283  0.0918
17904W        W34751  15.199   6.487  13.675  0.0546  0.1966  0.0101
17905W        W34752  17.681  16.190  12.368  0.1164 -0.0155 -0.2803
17906W        W34753   1.751  14.924   5.373  0.0858 -0.2050  0.3149
17907W        W34754   0.859   3.148  13.191  0.2914  0.0177 -0.2434
17908W        W34755   6.770  15.179   0.986 -0.3005  0.0334 -0.0855
17909W        W34756  14.413  16.750  11.482 -0.3838 -0.0845 -0.2444
17910W        W34757   0.968   2.224   9.227  0.0390  0.2675 -0.0044
17911W        W34758  16.503   8.679   0.235 -0.2578  0.0644 -0.0017
17912W        W34759  13.628   3.782   0.369  0.2508 -0.0926  0.2048
17913W        W34760  10.332  16.854  11.703  0.1891  0.1420  0.2128
17914W        W34761   5.550   9.713   0.020  0.2876  0.0721  0.0276
17915W        W34762   6.992   8.594   2.432 -0.1268  0.3042  0.0383
17916W        W34763   5.843   7.270  13.413 -0.1954 -0.0742  0.1986
17917W        W34764  18.434   0.150  13.005 -0.2031  0.2679  0.5612
17918W        W34765   5.402   1.620   1.464  0.0955  0.1336 -0.0642
17919W        W34766   8.468   5.964  12.154  0.0202 -0.1473 -0.0238
17920W        W34767   3.499   2.028   5.277 -0.1569  0.1146 -0.1240
17921W        W34768  12.376   0.592   2.519 -0.1873  0.3580  0.0200
17922W        W34769   4.103   9.445  11.146  0.2938  0.1027  0.0806
17923W        W34770   2.060  10.038  14.572  0.1623 -0.1384  0.0184
17924W        W34771  18.358  12.768   3.613  0.1857 -0.1068  0.1879
17925W        W34772   5.917   9.408  10.460 -0.0584  0.0115  0.4404
17926W        W34773  14.425  18.593  12.697  0.0184  0.1268 -0.0712
17927W        W34774   6.569  15.314  13.283  0.0628  0.1048 -0.0511
17928W        W34775   6.995   4.128  11.305 -0.0910 -0.1338  0.2350
17929W        W34776  12.893   3.271  13.893 -0.2771 -0.3432  0.1291
17930W        W34777   4.695  11.475  12.229  0.0919 -0.1684 -0.3876
17931W        W34778  11.233  12.277   0.363 -0.2200 -0.0123 -0.0507
17932W        W34779  18.083  13.231   2.270  0.0123  0.1128 -0.1145
17933W        W34780  19.204  10.372  13.200 -0.0304 -0.0162 -0.0961
17934W        W34781   4.862  11.372   3.277 -0.0729 -0.3109  0.0196
17935W        W34782   8.802   4.758  11.550 -0.1346 -0.1568  0.0338
17936W        W34783   7.156   5.011  13.549  0.0541  0.2636 -0.2034
17937W        W34784  15.184   6.963  10.077  0.0409  0.1222 -0.0321
17938W        W34785   1.173   5.447   0.550 -0.4351  0.1758  0.0241
17939W        W34786   4.283   2.872   0.693  0.2934 -0.0972 -0.1210
17940W        W34787   7.040   9.650  10.919 -0.2101 -0.0898 -0.1940
17941W        W34788   9.924  18.668   0.412 -0.1935 -0.2927  0.2869
17942W        W34789  10.490  11.931   2.426  0.1232  0.0243 -0.1103
17943W        W34790  11.273   0.543   1.098 -0.0848  0.3516 -0.0152
17944W        W34791  16.442   0.230   4.234  0.0322  0.1504 -0.2777
17945W        W34792  15.698   3.465  13.172 -0.2450 -0.2249 -0.0272
17946W        W34793  19.580  12.054   3.175  0.1760 -0.0398 -0.2167
17947W        W34794   2.372   9.811   1.163 -0.2390  0.0824  0.2368
17948W        W34795  19.046   9.390   3.233 -0.0046 -0.1879  0.3249
17949W        W34796  18.685   0.096  14.260  0.2687 -0.3230 -0.3009
17950W        W34797   5.410   6.020   4.756 -0.1640  0.2697 -0.0833
17951W        W34798   7.630   2.368   2.153 -0.0622  0.1552 -0.0213
17952W        W34799   4.392   2.354  14.233  0.0635 -0.0271  0.1213
17953W        W34800   1.166   1.951   2.520  0.3766 -0.1106  0.2675
17954W        W34801   4.328  17.032   4.202  0.0958  0.0353  0.2803
17955W        W34802   8.066   2.665  10.118 -0.2712 -0.0627 -0.3893
17956W        W34803  17.077   3.924   1.472  0.2412  0.0223 -0.2392
17957W        W34804  14.398  14.035   3.027 -0.0252 -0.3077 -0.1445
17958W        W34805  11.200   8.738   3.805 -0.1082 -0.0932 -0.0235
17959W        W34806  12.812  10.189   4.804 -0.2489 -0.3739 -0.0424
17960W        W34807   8.154  13.630   1.037  0.0634  0.1208 -0.0440
17961W        W34808   6.594   8.393   2.738  0.1598 -0.0989 -0.1636
17962W        W34809   6.889   5.066   0.842  0.1159 -0.0112  0.0936
17963W        W34810   8.344   3.606  10.383 -0.0218 -0.2475 -0.1636
17964W        W34811   1.643   1.701  12.435 -0.1103  0.0960 -0.1219
17965W        W34812   2.600  14.454   1.130 -0.0273  0.0830  0.0195
17966W        W34813  17.340   0.914   2.582 -0.0336 -0.1215  0.1959
17967W        W34814   4.571   3.091  11.071  0.0530  0.3206  0.0930
17968W        W34815  13.666   8.830   5.332 -0.1192 -0.1839  0.1021
17969W        W34816  18.098   9.586   3.706  0.1734 -0.1922 -0.1038
17970W        W34817   3.838  12.714  13.579 -0.0187  0.0004  0.1181
17971W        W34818  13.392   2.725   1.960  0.0842  0.2933  0.0941
17972W        W34819  17.543  10.248  11.228 -0.2281 -0.1447  0.0814
17973W        W34820   9.255  12.886   2.824  0.2426 -0.0307 -0.0419
17974W        W34821   7.049   0.355  11.869  0.0258 -0.1053  0.2676
17975W        W34822   5.319  18.658  12.277  0.4406  0.0380  0.5749
17976W        W34823   3.057  10.583  14.128 -0.0671  0.0959  0.0443
17977W        W34824  18.434  17.741  10.744  0.3487 -0.3166  0.0472
17978W        W34825  19.292  16.900  12.254 -0.1881  0.1146  0.0405
17979W        W34826  16.055   7.173   1.030  0.1175 -0.1556 -0.0961
17980W        W34827   5.853  10.251  11.570 -0.4312  0.4114 -0.3469
17981W        W34828  18.843   0.717   4.159  0.0621 -0.0092  0.2980
17982W        W34829  18.655   6.657  12.246 -0.0987  0.1400  0.1480
17983W        W34830   1.081  18.474  12.546 -0.2861  0.0448  0.0077
17984W        W34831   5.676  17.810  11.555  0.2988 -0.1106  0.2218
17985W        W34832   8.245  14.696   5.301  0.1369  0.1183 -0.1662
17986W        W34833  11.222  17.833   1.087  0.1146 -0.2063 -0.3735
17987W        W34834  11.175  11.225   2.238  0.2096 -0.2173 -0.0452
17988W        W34835   0.380  15.738  12.303 -0.2918  0.1675 -0.2601
17989W        W34836   8.996   0.523  13.569  0.1240  0.3992 -0.0826
17990W        W34837   4.428  11.361  11.137  0.1212 -0.1347 -0.1022
17991W        W34838   2.969   1.237   3.883 -0.0021 -0.1527  0.0039
17992W        W34839  16.594  18.210  10.037 -0.1261  0.2498  0.3167
17993W        W34840   0.894  13.630  14.350 -0.0806  0.0985 -0.1307
17994W        W34841   0.289   8.473  11.938 -0.0782  0.1924  0.0045
17995W        W34842  10.864  17.268   1.610  0.1390  0.0037  0.0128
17996W        W34843   8.896   4.339  12.207  0.3135 -0.2592  0.0871
17997W        W34844   9.816   7.158  12.957 -0.2357  0.0582  0.1832
17998W        W34845  15.642  16.170  13.806  0.4011 -0.3304 -0.0084
17999W        W34846   1.878  17.160   3.432 -0.2807  0.2377 -0.0523
18000W        W34847   6.938   4.490   4.006 -0.2103  0.2989 -0.1147
18001W        W34848   3.953  14.497  12.000 -0.1448 -0.2330 -0.1112
18002W        W34849   6.798   5.933  13.419 -0.1125  0.1951 -0.1415
18003W        W34850   6.375  17.584  11.744 -0.2443 -0.2179 -0.1479
18004W        W34851  11.075   3.358   1.742 -0.0935 -0.2314 -0.0222
18005W        W34852  11.256   0.303  11.727  0.2372 -0.2455 -0.2021
18006W        W34853   7.419   1.127   0.186  0.0403 -0.2417 -0.1026
18007W        W34854  15.470  15.313   4.175  0.0495  0.0443 -0.2499
18008W        W34855  13.377   1.204  13.317  0.1190  0.1891 -0.0633
18009W        W34856  16.788   3.456  14.047  0.2954 -0.0670  0.1583
18010W        W34857  18.381   5.592   0.477 -0.1358 -0.1578  0.2050
18011W        W34858  18.315   2.179  12.844 -0.1374  0.2360 -0.3720
18012W        W34859   4.460  11.950  13.777  0.0496  0.1659  0.0244
18013W        W34860  17.838   0.093  14.352 -0.2705  0.1081  0.1321
18014W        W34861  11.258   0.813   3.050 -0.1494  0.1952  0.1616
18015W        W34862  16.011   5.874   3.598  0.2674  0.1909 -0.0706
18016W        W34863  16.101   5.463   3.353 -0.3318  0.2200 -0.4245
18017W        W34864   8.691   0.176   0.491 -0.2738 -0.0506  0.4445
18018W        W34865   5.679   9.635   3.184 -0.1687  0.0242  0.0196
18019W        W34866  11.046   8.763   0.683 -0.2595 -0.1506  0.1267
18020W        W34867  10.644   4.970  12.942  0.0549 -0.1527  0.0587
18021W        W34868  10.395   0.117   1.868  0.1184  0.3256  0.1398
18022W        W34869  10.684   9.450  10.565 -0.1695 -0.0660  0.0564
18023W        W34870   3.853  10.332   2.402 -0.0847 -0.1264  0.1867
18024W        W34871   2.298   4.303  11.828 -0.1572 -0.1075  0.4619
18025W        W34872  16.088  10.192  10.542  0.0577  0.1088 -0.2327
18026W        W34873  16.047  18.451   2.318 -0.1007  0.3890  0.4028
18027W        W34874   9.014   4.798   4.877 -0.0061 -0.1105 -0.2125
18028W        W34875  14.599   1.316   0.903  0.2737  0.2649 -0.1784
18029W        W34876   5.718  19.270  12.827 -0.1066  0.0148 -0.0769
18030W        W34877   6.908   3.161  14.120  0.0190 -0.0912  0.1711
18031W        W34878  13.538  15.480   2.606 -0.2657 -0.2729  0.0674
18032W        W34879  10.494   1.907   2.592 -0.0353  0.2646 -0.3375
18033W        W34880   2.305  10.095  11.260 -0.0367 -0.1704  0.1097
18034W        W34881   3.273  17.947  12.143 -0.1314  0.1786  0.4389
18035W        W34882   6.059  18.121   4.720 -0.0730 -0.0854  0.0031
18036W        W34883   3.673   2.484  12.364 -0.2503 -0.2625  0.1688
18037W        W34884   3.468   1.177   0.559  0.2389 -0.0799 -0.0655
18038W        W34885  18.117   5.401  11.241 -0.2702  0.0551  0.1090
18039W        W34886   9.447   9.602   2.427 -0.1220  0.0401  0.0107
18040W        W34887  19.087  11.370   3.682  0.0890  0.0729 -0.2240
18041W        W34888  13.671  14.895   9.082 -0.1668  0.3666 -0.2361
18042W        W34889  19.564  17.110  13.887 -0.2419  0.3203  0.5445
18043W        W34890  13.998  11.494  12.112 -0.2491 -0.0104  0.2311
18044W        W34891   0.180   8.544   1.114  0.0258  0.0250  0.2457
18045W        W34892  16.118   7.854   4.970 -0.2533 -0.1980  0.3859
18046W        W34893   0.773  18.985   3.709  0.0142 -0.2260  0.0815
18047W        W34894   6.340  16.880  13.941  0.0578  0.2710  0.0811
18048W        W34895   2.387   7.779  14.303  0.0565  0.3146 -0.1336
18049W        W34896  13.988   6.945  10.973  0.1768  0.0420 -0.2571
18050W        W34897   9.385  10.180  10.431 -0.0858  0.2116  0.1941
18051W        W34898  12.583  18.771   9.222 -0.3026  0.0507  0.0823
18052W        W34899   8.009  12.868  13.405 -0.0839 -0.2786  0.2519
18053W        W34900   4.899   2.049   0.790  0.1704 -0.2392  0.2610
18054W        W34901   6.145   9.821  10.062 -0.2335  0.1903 -0.0002
18055W        W34902   8.000   9.815  14.470 -0.0473  0.0633  0.0746
18056W        W34903  19.628   7.626  12.927 -0.5055 -0.2363 -0.1330
18057W        W34904  15.374   4.192   3.676 -0.1337  0.2387 -0.1612
18058W        W34905  12.549   9.822   2.553  0.0901 -0.0701 -0.1445
18059W        W34906  15.073  18.081   9.237 -0.2330  0.2413 -0.1901
18060W        W34907  14.405  17.955  10.338  0.0987 -0.2593 -0.1510
18061W        W34908  16.043   0.687  13.442  0.2243  0.0351 -0.3356
18062W        W34909  15.320  17.853  11.356 -0.4060  0.0880  0.0297
18063W        W34910   2.815   0.438  14.404 -0.0793  0.0137 -0.1447
18064W        W34911   0.954   2.952   0.259  0.1484 -0.1718 -0.1636
18065W        W34912   9.490  19.098  11.319 -0.2531  0.0862  0.0645
18066W        W34913  16.990  15.969   2.509 -0.3019  0.0376 -0.0860
18067W        W34914  18.431   8.148   2.993 -0.3177  0.2492  0.3170
18068W        W34915  13.486   3.213  12.504  0.1404  0.0253 -0.1305
18069W        W34916   7.630   0.864  13.137 -0.5337  0.0492  0.0331
18070W        W34917   7.088  19.142  11.572  0.1580  0.0401 -0.0486
18071W        W34918  11.065  15.255   0.106 -0.1213 -0.0703  0.1839
18072W        W34919  16.517  16.197  13.142 -0.1157  0.1393  0.1530
18073W        W34920   0.678  15.701   0.420  0.0876  0.1613 -0.0113
18074W        W34921   1.145  16.587   3.300  0.0174 -0.0858 -0.2851
18075W        W34922  19.290   2.667   0.161  0.1938  0.2303 -0.2381
18076W        W34923  11.125  16.071   3.012  0.2211  0.0324  0.0990
18077W        W34924   0.152   7.700   1.297  0.0809 -0.0749  0.1192
18078W        W34925   2.044   6.602  11.650 -0.0908  0.0589  0.1010
18079W        W34926  15.772   8.561  13.598 -0.1361 -0.3001  0.1434
18080W        W34927   5.353  16.729   0.581 -0.0770 -0.3130 -0.2136
18081W        W34928   9.538  12.774  12.395 -0.1887 -0.3650  0.2591
18082W        W34929  11.519   4.526  11.635  0.1716 -0.2293  0.0338
18083W        W34930  14.360   5.559   4.630  0.0246 -0.2684 -0.0320
18084W        W34931  16.942   9.579  11.343  0.1546 -0.0805  0.0116
18085W        W34932   0.754  17.824   2.727 -0.2084  0.0911 -0.0333
18086W        W34933   1.351  10.530   3.304 -0.1804 -0.0496  0.4345
18087W        W34934  11.998   8.313  11.696 -0.1458 -0.0740 -0.2228
18088W        W34935   6.107  16.474   1.876  0.0128  0.3507 -0.0805
18089W        W34936  10.888  14.162   1.692  0.0128  0.1214  0.1846
18090W        W34937   4.117   0.232   4.575  0.1315 -0.0569 -0.0142
18091W        W34938   6.002   3.471   2.546 -0.4040  0.1776  0.1094
18092W        W34939  18.098   7.089  12.790 -0.5461  0.4329 -0.1759
18093W        W34940   9.692   1.127  12.941 -0.2445  0.1976 -0.0169
18094W        W34941   7.274   3.347  12.287 -0.2342  0.1378  0.0756
18095W        W34942  15.341  11.050   0.112 -0.1949 -0.0291 -0.1651
18096W        W34943  14.253  13.923  11.186  0.0230  0.2198 -0.3338
18097W        W34944  18.643  15.284  13.444  0.1871  0.0322 -0.0249
18098W        W34945   5.253  14.682   4.552 -0.0367  0.2553  0.3323
18099W        W34946   2.738  15.064   9.997 -0.1569 -0.2932  0.0669
18100W        W34947  10.015   5.410  14.259  0.0292  0.0288 -0.1303
18101W        W34948  13.271   4.221  12.033  0.2501 -0.3130 -0.3821
18102W        W34949   2.544   4.757   1.266 -0.0047  0.2760 -0.0861
18103W        W34950   9.908  15.299  10.678  0.1058  0.0655  0.5557
18104W        W34951   0.705   8.163   2.742  0.1094  0.1582  0.0515
18105W        W34952   0.711  15.080   5.647  0.2435 -0.1108  0.1694
18106W        W34953   2.202  17.882   3.857  0.0430 -0.0348  0.2658
18107W        W34954   2.651   9.626   1.534 -0.3246 -0.1223 -0.2222
18108W        W34955  12.321   4.203   0.545 -0.0661  0.0077 -0.0954
18109W        W34956  17.791  12.282  11.544  0.1115 -0.3284  0.1770
18110W        W34957  14.464   4.225  13.795  0.2201 -0.0828  0.0187
18111W        W34958   3.810  10.666   1.890  0.3156  0.0254  0.0317
18112W        W34959   5.572   5.013   1.649 -0.0064 -0.0801 -0.0198
18113W        W34960   7.463  18.919   4.742 -0.0359  0.0162  0.0283
18114W        W34961  16.715  11.224  10.585 -0.0154  0.0013 -0.0360
18115W        W34962  15.261  11.677  13.249 -0.2112  0.0808  0.0502
18116W        W34963   5.275  12.389  13.864  0.0224  0.0455  0.3673
18117W        W34964   1.101   1.396   3.216  0.1249  0.3196 -0.1086
18118W        W34965  19.577  10.566   4.739  0.0388 -0.0513  0.1186
18119W        W34966  16.689  18.881   1.039  0.0941  0.2851 -0.1490
18120W        W34967   3.855   8.285   4.709  0.1958 -0.1203 -0.2959
18121W        W34968  18.490   8.571  13.653 -0.1942  0.5571  0.0150
18122W        W34969   7.077   6.244   0.088  0.0007  0.1868  0.3382
18123W        W34970   9.289  10.911  13.783 -0.0831 -0.1975  0.1663
18124W        W34971  10.489  14.748  13.257 -0.1848 -0.1544  0.1728
18125W        W34972  10.728  19.298  11.333  0.1575  0.0535 -0.1513
18126W        W34973   8.887   7.002   0.540  0.0551 -0.0879  0.0113
18127W        W34974  11.842  19.042   1.149 -0.0090  0.0004  0.2357
18128W        W34975  13.112   4.169  13.440 -0.0415  0.0170  0.1369
18129W        W34976   8.035   7.625   2.136 -0.3872  0.0073 -0.0393
18130W        W34977  18.784  11.665  14.364 -0.1403  0.0648  0.0549
18131W        W34978   1.765   2.775   2.890 -0.0501  0.1251 -0.1802
18132W        W34979  16.759   8.845   1.527  0.1286  0.1524 -0.2782
18133W        W34980  16.855   1.271   3.041 -0.2325  0.1578  0.1900
18134W        W34981  16.998  19.349   9.236  0.1297  0.0974 -0.1093
18135W        W34982  19.362  15.454  10.219  0.1012 -0.2766  0.1381
18136W        W34983   3.713  10.415  12.383 -0.0472 -0.0650 -0.0093
18137W        W34984   0.449  10.705  11.091  0.0390 -0.0775 -0.2367
18138W        W34985  11.969   0.613   9.438  0.1476  0.0697 -0.2935
18139W        W34986   6.567  19.168   4.326  0.3455  0.0531 -0.2199
18140W        W34987  10.553   7.265  13.514 -0.0977 -0.0450 -0.0331
18141W        W34988   9.115  18.154   1.260 -0.1634 -0.2703 -0.1592
18142W        W34989   4.722   0.708  12.203  0.1037  0.0994 -0.0776
18143W        W34990   0.622  11.464   1.211 -0.0330  0.0948 -0.0085
18144W        W34991   0.796   7.937  10.333 -0.1640  0.0555 -0.1375
18145W        W34992  17.852   7.345  11.799  0.1157  0.0687  0.1086
18146W        W34993  18.361  16.480   4.181  0.3853  0.3242  0.1058
18147W        W34994  17.516  12.105  13.771  0.0008  0.0611  0.6627
18148W        W34995   6.401  11.720   0.054  0.0298  0.0055 -0.1780
18149W        W34996   2.376  16.517  10.878 -0.1822 -0.1105 -0.0881
18150W        W34997  16.551  18.441   4.733 -0.2392  0.0137 -0.0004
18151W        W34998  13.998   7.894   0.538 -0.2061  0.1575 -0.3653
18152W        W34999  19.367   1.576  11.500  0.1245 -0.1410  0.1383
18153W        W35000  10.652  15.395  12.046  0.2842  0.1271  0.1671
18154W        W35001  10.419  18.820  10.585  0.4225 -0.0815  0.0772
18155W        W35002   2.002  12.562  13.222  0.1410  0.0013  0.3091
18156W        W35003  14.705  12.868   0.601 -0.1510 -0.1383 -0.2579
18157W        W35004   6.131  18.471  12.839 -0.1684 -0.1573  0.2057
18158W        W35005   0.946  16.345  12.744 -0.3151 -0.0272  0.2218
18159W        W35006   5.804  15.276   3.525  0.0616 -0.4821  0.0148
18160W        W35007  13.385   4.712   1.094 -0.1068 -0.0107  0.0129
18161W        W35008  12.959  13.505  10.903  0.3826 -0.0729  0.1646
18162W        W35009  13.961   8.246   1.060 -0.0469 -0.1965  0.2236
18163W        W35010   6.075   7.730   2.938 -0.0305  0.1696  0.3197
18164W        W35011   6.583  13.608   4.136  0.0060 -0.1113  0.1995
18165W        W35012  15.037   4.390   4.077  0.0927 -0.0279  0.2601
18166W        W35013  17.926   4.313  13.075  0.0837  0.1693  0.0041
18167W        W35014  15.436  10.259  12.246 -0.1400  0.2285 -0.4056
18168W        W35015   8.482  15.529   9.245  0.0185 -0.0415 -0.0788
18169W        W35016  11.412   7.022   3.071  0.0380 -0.2994 -0.2807
18170W        W35017   8.011   1.370   0.152 -0.0154  0.1142  0.3190
18171W        W35018  10.672  17.342  12.459  0.2585 -0.0068 -0.0631
18172W        W35019   7.400   0.833  11.300  0.1955 -0.0188  0.3511
18173W        W35020  11.344   6.572  11.371 -0.0931  0.1767 -0.0935
18174W        W35021  15.562   3.682  14.395 -0.1029  0.1766 -0.1544
18175W        W35022   7.006   7.640  11.690  0.0048  0.2045  0.0678
18176W        W35023   0.267  17.720  11.480 -0.0269  0.3684  0.0121
18177W        W35024  17.964  10.048  14.215  0.1002  0.1221 -0.2092
18178W        W35025   5.495  15.009   3.148 -0.0367 -0.0039 -0.2478
18179W        W35026   7.171  17.791  10.454 -0.1763 -0.2631  0.0975
18180W        W35027  10.644   3.136  14.603 -0.0168 -0.1528 -0.0813
18181W        W35028   7.225   9.734   3.944 -0.0199 -0.2363  0.1506
18182W        W35029   6.631  16.465  13.856 -0.0882 -0.1582 -0.0213
18183W        W35030   6.625  19.150   0.169  0.0162 -0.5191 -0.0019
18184W        W35031  18.868  18.632  13.094  0.1244  0.0903 -0.2962
18185W        W35032  17.084  17.371  12.873 -0.1493 -0.0544  0.1392
18186W        W35033   9.623   5.367   1.846 -0.0114  0.4222  0.1384
18187W        W35034   8.492  15.052  13.382  0.0454  0.4617  0.0168
18188W        W35035   6.479  19.113  10.516  0.2741  0.0349 -0.0127
18189W        W35036   2.550  18.193   9.552 -0.2416  0.2505 -0.0146
18190W        W35037  10.489   3.532  12.255  0.0602  0.2487 -0.1250
18191W        W35038   7.561  10.139  11.914  0.3689  0.0903 -0.0230
18192W        W35039   1.037  19.435  13.916  0.0491 -0.0956 -0.2726
18193W        W35040  15.071   8.193  14.492 -0.0520 -0.3806  0.0533
18194W        W35041   4.470   1.791  13.474 -0.1666 -0.0191  0.0711
18195W        W35042  15.146   1.748  11.602 -0.3308 -0.0700  0.2510
18196W        W35043   4.079   0.030   1.755  0.4498 -0.1530 -0.0886
18197W        W35044   9.676  14.954  14.580 -0.1618  0.1438  0.1169
18198W        W35045  14.232   8.667   4.367  0.1714 -0.0575  0.2229
18199W        W35046   8.221  12.607  13.916 -0.0414 -0.4913 -0.1289
18200W        W35047  12.524  19.259  10.812  0.2570  0.2361 -0.0034
18201W        W35048   5.733   1.756  14.568 -0.1320 -0.0763  0.1596
18202W        W35049   5.057   4.747   1.292  0.0978 -0.0057  0.1521
18203W        W35050  14.438   2.600  12.534 -0.0272  0.0199  0.0610
18204W        W35051  15.981  14.387  12.548 -0.0034 -0.0839 -0.0027
18205W        W35052   2.323   2.634  11.608 -0.2556 -0.1121 -0.2304
18206W        W35053   3.273   0.190   4.711  0.1525  0.0012 -0.0811
18207W        W35054   1.361  19.340   0.981 -0.0700 -0.1811  0.2566
18208W        W35055   5.148   1.883  13.226 -0.0354 -0.1875 -0.1671
18209W        W35056   8.573   2.227  13.834  0.0248  0.0188 -0.1949
18210W        W35057   2.825   0.771   1.116 -0.3293  0.1658 -0.0296
18211W        W35058  10.238   8.720   2.549  0.4359  0.0893 -0.1616
18212W        W35059   6.083  15.568   1.679 -0.1332 -0.3048  0.3431
18213W        W35060   9.884  10.240  14.096 -0.2518 -0.2177  0.0167
18214W        W35061  15.455   7.385   3.367 -0.1291  0.1588  0.0399
18215W        W35062  15.842   6.748   4.012  0.1010 -0.1313 -0.0287
18216W        W35063   5.954   3.148   1.625 -0.2044  0.1938  0.0378
18217W        W35064  11.982  13.742   3.394  0.0555  0.1484 -0.0600
18218W        W35065   0.004   3.910  12.930 -0.1999  0.1384 -0.0694
18219W        W35066   5.447  12.280   1.575 -0.0561 -0.3599  0.2633
18220W        W35067   6.120   4.464  12.529 -0.2106 -0.3356  0.0282
18221W        W35068  10.454  10.318   2.133  0.1129 -0.0151  0.2121
18222W        W35069   0.739  12.701   2.949 -0.1144  0.0512  0.0365
18223W        W35070   8.580  15.892   2.733 -0.4021 -0.1064 -0.1675
18224W        W35071   7.808  13.539   3.004  0.0311 -0.3235  0.0093
18225W        W35072  18.287   6.696   2.851 -0.0570 -0.1232 -0.2672
18226W        W35073   6.692  19.374   3.859  0.0969 -0.7044  0.1100
18227W        W35074  16.694  19.157  12.864 -0.1961 -0.0000 -0.1319
18228W        W35075  18.553   4.427  13.679  0.1516  0.0114 -0.0089
18229W        W35076   6.075   1.521  10.954  0.0692  0.1152 -0.1443
18230W        W35077   4.912   1.352   4.262 -0.0098  0.0514  0.0791
18231W        W35078  17.941  12.891  11.510  0.1942 -0.2401  0.1029
18232W        W35079  17.127   7.993  11.682 -0.4207 -0.1926  0.3183
18233W        W35080   5.264  11.898   3.353  0.1763 -0.2612 -0.0700
18234W        W35081   5.012  11.105   2.860 -0.1862  0.0333  0.2633
18235W        W35082  18.009  17.937  10.548  0.1087 -0.0244  0.4844
18236W        W35083  18.419  10.571   1.968  0.1984  0.0956 -0.1751
18237W        W35084  14.840  15.886   1.966  0.0343 -0.3367 -0.2031
18238W        W35085   6.456   3.061   4.429  0.1069 -0.1162 -0.0605
18239W        W35086   8.594   2.700   1.187 -0.0377  0.0050 -0.1805
18240W        W35087   1.313  19.351   2.790  0.2261  0.1943 -0.0964
18241W        W35088   0.906   0.400  13.400 -0.4081 -0.1025 -0.2744
18242W        W35089   0.014  13.420  13.081  0.1832 -0.0477 -0.0079
18243W        W35090  11.825   5.733   4.593  0.3420  0.0450 -0.0768
18244W        W35091  17.718  13.979   4.704 -0.0762 -0.3526 -0.3253
18245W        W35092  10.143   5.392   4.168  0.1292 -0.1052 -0.1590
18246W        W35093  15.826  13.281  13.400 -0.1411  0.4567 -0.2062
18247W        W35094   0.789  10.220  10.367 -0.3524 -0.0400  0.2861
18248W        W35095  12.350  11.087   3.180 -0.1216 -0.2397  0.2581
18249W        W35096  14.455  12.046   2.452 -0.0532  0.0199  0.1524
18250W        W35097  13.280  12.454   2.759 -0.0054 -0.2451 -0.1594
18251W        W35098   2.390   8.085   2.960 -0.0080 -0.0974  0.3020
18252W        W35099   5.693  14.413   3.187 -0.2585 -0.2016 -0.1104
18253W        W35100   1.976  14.674   2.716 -0.0828 -0.0327 -0.0284
18254W        W35101  12.944  12.184   9.015 -0.0989  0.4177  0.2622
18255W        W35102  18.067  19.327   2.344 -0.2058 -0.1166 -0.2691
18256W        W35103  10.648   7.317   0.532 -0.0684  0.1059 -0.0315
18257W        W35104   5.213   2.727  10.099  0.0489 -0.0163 -0.2599
18258W        W35105  11.328   1.232  14.106  0.2503  0.2741  0.3659
18259W        W35106   4.358  17.682  10.677 -0.2863 -0.0153 -0.0046
18260W        W35107   5.304   0.832   9.946 -0.2843  0.1542 -0.0791
18261W        W35108  13.347   9.025   1.560 -0.0435 -0.0529 -0.0452
18262W        W35109  16.088  12.776  13.475  0.2305 -0.3299 -0.1221
18263W        W35110   1.773  18.403   3.839  0.0466  0.1013  0.0486
18264W        W35111   3.579  15.334   3.051  0.0145 -0.2899  0.2550
18265W        W35112   5.276   3.209  10.452 -0.2373 -0.0735  0.0499
18266W        W35113  14.033   6.721   3.916  0.3212  0.2812  0.0824
18267W        W35114  13.044  18.068  11.881  0.3768  0.1026 -0.3576
18268W        W35115  10.723  16.564  13.154 -0.1242 -0.0533 -0.2264
18269W        W35116   9.639   9.340   1.573 -0.0852 -0.1307 -0.1244
18270W        W35117  15.234   8.631   2.522  0.2137 -0.0964  0.0542
18271W        W35118  15.363  19.605  13.216  0.2757  0.1626 -0.0101
18272W        W35119   7.546  14.523   1.024  0.0959 -0.3534 -0.2489
18273W        W35120   9.454   4.223  11.463 -0.1935 -0.0929 -0.0738
18274W        W35121   4.802   3.709  11.617 -0.2635 -0.1164  0.0067
18275W        W35122   0.827  14.865  12.346  0.0829 -0.1171 -0.3522
18276W        W35123  11.287  11.087   1.687 -0.0165 -0.2085  0.3404
18277W        W35124   0.106  12.899   2.927  0.2587  0.4294  0.1468
18278W        W35125   6.426   4.280   1.955 -0.2507 -0.1306  0.0808
18279W        W35126   2.008  11.899   9.907  0.1583 -0.0604 -0.1098
18280W        W35127   8.419   9.914   0.939  0.0056  0.3223  0.2180
18281W        W35128   3.683   1.720  13.731  0.2221 -0.0149  0.1941
18282W        W35129   0.781   5.517   2.553 -0.1766  0.2070  0.2087
18283W        W35130   1.563  11.645   0.696 -0.1851 -0.4383 -0.1174
18284W        W35131  17.780   1.532  11.324  0.2050  0.3489  0.0288
18285W        W35132   8.866   2.632   2.569 -0.0810 -0.0309  0.1236
18286W        W35133   2.043  11.987   4.723 -0.1489  0.0832  0.1139
18287W        W35134   3.911  14.275   2.285  0.1107 -0.3717 -0.1503
18288W        W35135  12.056  12.336   2.977 -0.2958 -0.0951  0.0932
18289W        W35136   0.587   4.561  11.853  0.1123 -0.1989  0.0660
18290W        W35137   4.452   9.717   1.346 -0.1582  0.1252 -0.1316
18291W        W35138  11.954   8.380   4.313 -0.0677 -0.3388  0.1618
18292W        W35139   4.453   6.068   2.629 -0.1649  0.0994  0.0607
18293W        W35140   5.300   5.321  11.382 -0.0020 -0.2509 -0.1344
18294W        W35141  14.881  17.073  14.419 -0.5454 -0.0888  0.1753
18295W        W35142  14.365   4.734  13.318  0.2218 -0.0970  0.1554
18296W        W35143  12.478  17.850   3.599 -0.0828  0.2980  0.1200
18297W        W35144  11.959   4.086  10.507 -0.1004  0.2409  0.0023
18298W        W35145  15.271  15.642   0.871 -0.0583  0.0519 -0.1458
18299W        W35146   1.063  12.906   0.751 -0.2228  0.1183  0.2838
18300W        W35147  17.218  11.981   4.508  0.1449 -0.0909  0.0702
18301W        W35148  15.769   4.202   0.151 -0.2978  0.0926 -0.2459
18302W        W35149   7.018   1.171   4.980  0.0540 -0.0832  0.2947
18303W        W35150   1.602   5.130   5.091  0.1301  0.0386 -0.1177
18304W        W35151  12.151  15.671   2.325 -0.1301 -0.0738 -0.1116
18305W        W35152  10.310  13.745   2.309 -0.0297  0.0146  0.2194
18306W        W35153   8.183   6.974  12.292  0.0854  0.0372 -0.3545
18307W        W35154  15.291   4.098  11.166 -0.1929  0.0362  0.4216
18308W        W35155  14.050   8.714   3.833  0.1777 -0.0664 -0.0909
18309W        W35156  14.428  14.606  11.970 -0.1879 -0.2850  0.1496
18310W        W35157  18.889  16.882  10.605 -0.2564  0.1830 -0.1553
18311W        W35158   0.929  15.337  11.826  0.0161 -0.1784 -0.0728
18312W        W35159   2.806  10.837   2.090  0.0994 -0.0983  0.0897
18313W        W35160   2.051  11.850  11.851 -0.2104  0.4119 -0.1902
18314W        W35161  11.393  11.930  10.736 -0.2406  0.1009 -0.1573
18315W        W35162  13.302  11.591   9.129  0.1470  0.0090 -0.1940
18316W        W35163   6.063  10.495  11.165  0.3953 -0.0405 -0.3597
18317W        W35164  10.791   1.812  12.946 -0.4563 -0.2695 -0.1222
18318W        W35165   7.205  10.465  13.138 -0.0938  0.4082  0.1909
18319W        W35166   7.918   0.050   2.467  0.0343  0.1263  0.0296
18320W        W35167  14.331  16.063  13.188  0.0404  0.1080  0.0172
18321W        W35168  13.993   9.838   9.601 -0.1249 -0.1704  0.2970
18322W        W35169   2.462  11.054   4.833  0.0452  0.1076  0.4228
18323W        W35170  13.277  14.404   3.453  0.6332  0.0151  0.0284
18324W        W35171   6.096   1.479  12.951 -0.0303 -0.0291  0.2411
18325W        W35172   6.840  16.670   0.523 -0.0007 -0.0121  0.1448
18326W        W35173   3.161   9.020  13.246  0.2229  0.2247 -0.3079
18327W        W35174   9.925  18.903  10.988  0.0139  0.0343  0.1629
18328W        W35175   2.654   3.193   1.296  0.1263  0.0075 -0.1632
18329W        W35176   2.219   6.356  10.180 -0.1765 -0.2763 -0.3370
18330W        W35177   0.380  12.239   2.406  0.1122  0.1100  0.1599
18331W        W35178  16.046   4.118  10.628 -0.2629  0.3135 -0.1348
18332W        W35179   7.624  19.139   1.186 -0.1609 -0.1453  0.3745
18333W        W35180  14.264  19.299  11.244 -0.1306 -0.1417  0.1865
18334W        W35181  10.063  14.415  12.786  0.1335 -0.3612  0.4053
18335W        W35182   9.951  15.146   2.167 -0.0029 -0.0897  0.2575
18336W        W35183  11.416  19.090   3.163 -0.0174  0.1749  0.0658
18337W        W35184  14.952  17.926  11.773  0.3393 -0.2272 -0.3255
18338W        W35185   3.953  10.514   3.774 -0.3197 -0.0468 -0.1062
18339W        W35186   8.510  18.960  10.474  0.1651 -0.1981 -0.0016
18340W        W35187  16.857  11.920  12.464  0.4191  0.3562  0.0638
18341W        W35188  18.315   4.892  14.374 -0.0606 -0.0046  0.4773
18342W        W35189  12.081   0.014  13.670 -0.2564 -0.0332  0.2201
18343W        W35190   5.173  18.558  11.094  0.0060 -0.0478  0.2788
18344W        W35191   8.594   7.921   2.264  0.0889  0.0068  0.2312
18345W        W35192  17.016  10.524   5.389 -0.0215 -0.0413  0.0855
18346W        W35193  12.237   7.690  10.693 -0.2905  0.0885 -0.1261
18347W        W35194   0.069  10.184  12.931  0.1547 -0.0428 -0.0503
18348W        W35195   1.340  13.609   0.033  0.1289 -0.1667 -0.1024
18349W        W35196   7.534  17.071   2.089  0.1622  0.5224  0.1526
18350W        W35197   1.194   3.218  11.541  0.1439  0.2857  0.0491
18351W        W35198   7.617   7.923   4.117  0.2125 -0.1324 -0.2035
18352W        W35199   2.258   7.411  13.406 -0.0053 -0.0083 -0.0264
18353W        W35200   7.056   2.680  14.064 -0.2460  0.2345 -0.3188
18354W        W35201  11.499  12.638   5.206 -0.3152  0.0165  0.0774
18355W        W35202  10.057  14.626   2.667 -0.0539 -0.1520 -0.2307
18356W        W35203  16.347   2.946  14.557 -0.0536 -0.1328 -0.2501
18357W        W35204   3.549   2.877  14.080  0.1405  0.0125 -0.1207
18358W        W35205  14.285  17.982   2.432 -0.0262 -0.2733  0.2225
18359W        W35206   0.006  16.300   3.925  0.0348 -0.0071 -0.5378
18360W        W35207   8.733   2.897   4.008  0.0893  0.1330  0.1410
18361W        W35208   0.606   4.520   8.800  0.1819  0.2658  0.0784
18362W        W35209   2.364   2.399   3.944  0.1070  0.0895  0.0441
18363W        W35210  14.098  16.856  12.316  0.2090 -0.3011 -0.1382
18364W        W35211  14.937  10.906   1.551  0.3208  0.1937 -0.1727
18365W        W35212   0.504   0.667  13.523 -0.0749  0.3408  0.0328
18366W        W35213  18.296  12.500   1.649 -0.0288 -0.3443  0.0197
18367W        W35214  17.580  16.552   2.704 -0.0920 -0.1166  0.2395
18368W        W35215   2.238   7.731   2.183  0.0021 -0.0251 -0.1989
18369W        W35216   9.919  12.296  10.483  0.0206 -0.0265  0.3025
18370W        W35217   4.655   6.446  10.596 -0.1472  0.3391  0.1082
18371W        W35218   5.159   4.606  13.496 -0.3916  0.0810 -0.3947
18372W        W35219  11.653   4.664   2.272  0.0762  0.0225 -0.1573
18373W        W35220  15.476   3.531   2.555  0.1305 -0.2294  0.1368
18374W        W35221  15.903   7.636  11.420 -0.0873  0.0287  0.2124
18375W        W35222   7.536   5.021  12.671 -0.1558  0.2090  0.1031
18376W        W35223   2.674  14.547  12.816  0.3064  0.0322 -0.0475
18377W        W35224   0.495   7.498   1.705 -0.0278  0.0642 -0.3092
18378W        W35225  14.013   2.756  12.108 -0.1689 -0.2764  0.2661
18379W        W35226   1.919   3.338   2.042 -0.0521 -0.3195 -0.1717
18380W        W35227   2.820   6.784   0.569  0.4356  0.0196 -0.2822
18381W        W35228   5.499  12.184   4.336 -0.0872  0.2672 -0.2607
18382W        W35229   2.074  10.573   1.934 -0.1303  0.0266  0.1810
18383W        W35230  17.045   6.283  14.068  0.3099  0.0333  0.0333
18384W        W35231   7.807  14.142  11.586  0.0773 -0.2988 -0.0320
18385W        W35232  10.909   8.773   4.746  0.0510 -0.1810 -0.1051
18386W        W35233  16.166   5.547   3.933  0.5238  0.2225  0.0429
18387W        W35234  16.028  12.516   0.255 -0.2227 -0.2174 -0.1252
18388W        W35235   3.435  13.127  14.103  0.1023 -0.0940 -0.1528
18389W        W35236   1.990   4.449   2.296  0.2440  0.1089  0.0099
18390W        W35237   3.145   9.678  11.384  0.0552 -0.1683  0.1712
18391W        W35238   4.618  12.310  12.675 -0.3307  0.1304  0.0470
18392W        W35239  13.947  18.376   0.019  0.0332 -0.1154 -0.3565
18393W        W35240  18.434   4.208   4.371 -0.3332 -0.0236 -0.2897
18394W        W35241  12.003  18.787   4.373  0.2833 -0.0134  0.1766
18395W        W35242   0.677   1.509  11.075  0.1105  0.3075 -0.2334
18396W        W35243   9.578  17.915   4.920  0.0563 -0.2581  0.0738
18397W        W35244   1.533  13.978   3.345 -0.1717 -0.1487 -0.1257
18398W        W35245   6.561   9.873   3.883 -0.0585 -0.1176  0.0105
18399W        W35246  19.444  17.542  11.600  0.0051 -0.0461  0.2314
18400W        W35247  13.491  18.135   0.153 -0.1972 -0.0108  0.1339
18401W        W35248  16.534   5.683   2.659  0.1073 -0.0045  0.1809
18402W        W35249   2.574  12.044  11.520  0.0991  0.0099 -0.1304
18403W        W35250   1.931   7.927   1.815  0.0889  0.0942 -0.3598
18404W        W35251   7.612  13.426   3.578  0.0644  0.0712  0.1227
18405W        W35252   0.161   7.432   9.661  0.0422  0.1932 -0.3052
18406W        W35253   6.706  10.355   3.845 -0.2351 -0.0118  0.1712
18407W        W35254  12.010  13.251  14.577  0.1286 -0.4022 -0.0361
18408W        W35255  16.110  12.201  10.805  0.0922  0.1374 -0.1450
18409W        W35256   2.026   1.203  14.130  0.2648 -0.3169 -0.2978
18410W        W35257  10.307  16.244   3.037 -0.0597 -0.1080 -0.1952
18411W        W35258  17.429  10.281   2.028  0.1431 -0.0676 -0.1756
18412W        W35259  16.849   0.628  12.761 -0.1249 -0.0605  0.0175
18413W        W35260  11.820  12.157  11.006 -0.1029  0.1072  0.1765
18414W        W35261  14.493  12.363  10.049  0.1144 -0.2874  0.0311
18415W        W35262  17.858   1.670   1.934 -0.2742 -0.0662 -0.1661
18416W        W35263   2.115   3.515   0.030  0.0607 -0.0690 -0.3583
18417W        W35264   2.524  17.951  12.400  0.1196  0.3126  0.1517
18418W        W35265  18.223  15.169  10.668  0.0273 -0.1551  0.1392
18419W        W35266  13.676   4.504  12.177 -0.0531  0.1861  0.2520
18420W        W35267   4.493  15.605   3.284  0.0961  0.0814 -0.1333
18421W        W35268   4.305  13.045   2.017  0.3311 -0.0747  0.2833
18422W        W35269   5.915  16.496   1.317 -0.1456 -0.1168  0.0095
18423W        W35270   4.381   1.663   0.834  0.2269  0.0582  0.0990
18424W        W35271   9.782   0.669   3.628  0.0347  0.0026  0.0189
18425W        W35272  11.760  12.816  11.532  0.1236 -0.0752 -0.2268
18426W        W35273  17.617   7.940   4.768  0.2287 -0.1006 -0.0741
18427W        W35274  13.462   5.827   4.468  0.1188  0.0961 -0.1384
18428W        W35275  11.410  12.736  13.811 -0.5029 -0.0725  0.2941
18429W        W35276  11.938  13.986  14.585 -0.0448  0.1006 -0.1882
18430W        W35277   8.479  11.158   4.814 -0.3299 -0.1771 -0.2472
18431W        W35278   5.727   0.398   5.026 -0.1517 -0.3332 -0.2728
18432W        W35279  16.683  18.209  13.240 -0.3455 -0.1112  0.0253
18433W        W35280  19.622   8.002   2.285 -0.1564  0.0583  0.0051
18434W        W35281   0.794   7.773  11.379 -0.2583 -0.0787 -0.0614
18435W        W35282   1.969   1.461   4.952 -0.0932 -0.0684 -0.5207
18436W        W35283  17.997  11.632  13.018  0.0854 -0.0215  0.0883
18437W        W35284   5.687  12.759  13.590  0.0113  0.2166 -0.0222
18438W        W35285  10.010   9.478  10.935 -0.1694 -0.0274  0.2047
18439W        W35286  11.021   6.197   4.633  0.0222 -0.2055 -0.0248
18440W        W35287   4.128   0.620   3.707  0.3167  0.0275 -0.0847
18441W        W35288   3.099   6.895  13.158 -0.2676  0.1403  0.0346
18442W        W35289   0.342  10.084   1.865  0.2338  0.1826 -0.0280
18443W        W35290  11.072   7.955  11.616  0.1220  0.0496  0.1091
18444W        W35291   1.748  16.360  10.059 -0.0356  0.2185  0.4483
18445W        W35292   0.126   9.077   1.130  0.1331 -0.0283  0.1147
18446W        W35293   3.837   8.107   0.494  0.1676  0.1956 -0.0180
18447W        W35294   6.616   1.187  14.563  0.2579 -0.0969 -0.1650
18448W        W35295  12.777   2.282   5.220 -0.0023  0.0095 -0.0557
18449W        W35296   6.555   2.817  13.465  0.3109  0.2286 -0.0197
18450W        W35297  16.658  10.307   3.810 -0.0687 -0.3805 -0.1211
18451W        W35298  14.610   8.270   4.324 -0.3135  0.1556  0.3596
18452W        W35299   9.112  14.755   1.433 -0.3048 -0.3308 -0.1364
18453W        W35300   7.442  15.472   0.712  0.1516 -0.0094  0.2046
18454W        W35301  18.194  18.697   2.491 -0.0400  0.0319  0.0869
18455W        W35302   7.860   7.379  14.004 -0.1931 -0.1302  0.2064
18456W        W35303   2.011   0.408  12.059  0.0840 -0.2579  0.2890
18457W        W35304   4.879   3.656   4.293 -0.0426 -0.2560  0.3065
18458W        W35305  18.839   3.261   0.979 -0.0752 -0.1947 -0.1242
18459W        W35306   6.676   9.328  14.382  0.0861  0.0168 -0.1088
18460W        W35307  17.397   1.015   0.560  0.1654  0.0198 -0.1095
18461W        W35308   7.408  11.069   5.093  0.2704  0.1504 -0.5514
18462W        W35309  14.572   1.974  13.320  0.2417 -0.0041 -0.0332
18463W        W35310   3.157   5.509   1.942  0.2144  0.0192 -0.1841
18464W        W35311   5.705  11.575   1.334 -0.1925  0.0219  0.1304
18465W        W35312   0.700   7.356  13.952 -0.0733 -0.3099 -0.0604
18466W        W35313  14.912   5.957   1.963 -0.2039 -0.1102  0.0352
18467W        W35314   9.561   1.744   1.501  0.1252 -0.0074 -0.2322
18468W        W35315   5.906  12.428   1.596 -0.0097  0.0160 -0.0783
18469W        W35316   4.420  12.147   1.816  0.1381  0.0191 -0.2378
18470W        W35317   0.159  19.057   1.473  0.0319 -0.0211 -0.1793
18471W        W35318   3.560   1.299   2.130  0.4813 -0.1102 -0.0362
18472W        W35319  13.811   3.510   3.140 -0.0190  0.0338  0.3691
18473W        W35320  16.160   3.792   4.836 -0.2619 -0.2114  0.0596
18474W        W35321   2.577   8.919   4.247 -0.0502 -0.1899 -0.0752
18475W        W35322   2.340  14.824  11.383 -0.1372  0.0544  0.0870
18476W        W35323  12.816  17.722   4.557 -0.1565  0.0662  0.0522
18477W        W35324  16.761   2.216  12.205 -0.0799 -0.1601 -0.0442
18478W        W35325   7.250   2.779   4.049 -0.2204  0.6567  0.2713
18479W        W35326  18.883   0.319  13.163  0.1234 -0.3398  0.1045
18480W        W35327  18.872   1.505   1.715  0.0983  0.0548 -0.0263
18481W        W35328  10.352  13.885   4.660 -0.4984  0.0343 -0.1118
18482W        W35329  11.319   1.255  12.477  0.3111  0.0650  0.3835
18483W        W35330  15.057  15.630   4.269  0.0888  0.1112  0.0009
18484W        W35331  13.562  10.591   0.372  0.0952  0.0058 -0.1974
18485W        W35332  17.654  13.374   1.182  0.2000 -0.1221 -0.2212
18486W        W35333   0.437  11.295  13.399  0.1277 -0.2672 -0.0228
18487W        W35334   2.382  16.185  10.507 -0.0793 -0.2723  0.1417
18488W        W35335   1.640   8.917   2.321 -0.1153 -0.1797 -0.3081
18489W        W35336  12.009   9.260  13.252 -0.0172 -0.3775  0.1356
18490W        W35337   6.519   4.662  14.035  0.0838  0.0831  0.1704
18491W        W35338  16.304   4.445   1.368  0.1421  0.2594 -0.0482
18492W        W35339  18.370   4.655  11.772 -0.2253 -0.1118 -0.2239
18493W        W35340  17.449   5.059   0.780  0.0565  0.0049 -0.0522
18494W        W35341  13.239  15.929   2.515 -0.1138 -0.0001  0.0387
18495W        W35342   9.180  10.544  10.145 -0.3892 -0.2530  0.2047
18496W        W35343  16.197   9.593  10.951 -0.0775  0.3700 -0.0833
18497W        W35344   8.122  16.019  13.391 -0.2349  0.1217  0.1272
18498W        W35345  14.177  12.365  12.557  0.0731 -0.3096 -0.4323
18499W        W35346  16.825   9.558   4.408 -0.2787 -0.0896 -0.2516
18500W        W35347   7.867  19.350  10.961  0.0951  0.0386  0.2052
18501W        W35348   3.381  18.203   1.640  0.2729  0.0087 -0.3049
18502W        W35349  17.374  17.901   0.668 -0.2789  0.3042  0.3101
18503W        W35350   6.500   4.331  11.228  0.0663 -0.1826  0.3432
18504W        W35351  18.611  14.884   2.609 -0.0579  0.1926  0.0351
18505W        W35352  10.771   9.682  14.123 -0.0529  0.0445  0.1459
18506W        W35353  13.541  14.317  14.361 -0.2611  0.1246 -0.0682
18507W        W35354   6.149  14.035   2.913  0.1211  0.0422  0.1075
18508W        W35355  10.574   6.598   1.889  0.2295 -0.6002 -0.0569
18509W        W35356  10.709  13.733   0.780  0.0570 -0.1703 -0.1287
18510W        W35357  16.761  10.525  12.878 -0.1018 -0.1496  0.0993
18511W        W35358  14.423  12.626   4.088 -0.1004 -0.1368  0.3878
18512W        W35359   6.698  16.630   2.705  0.0046  0.3060  0.2373
18513W        W35360   6.717  18.066  11.453 -0.1006 -0.0034 -0.2465
18514W        W35361   7.543   2.268  12.629  0.0933  0.0887  0.1146
18515W        W35362   7.991   8.921   1.001 -0.2689 -0.0955 -0.0029
18516W        W35363  17.446   2.952   2.309  0.0886  0.0137 -0.2315
18517W        W35364   0.618  16.563  10.568  0.2942  0.0227  0.0886
18518W        W35365  13.621  16.932   0.019 -0.3908 -0.2232 -0.0550
18519W        W35366   5.486   1.237  11.308  0.2255  0.3652  0.0424
18520W        W35367   7.744  14.804  10.317 -0.2894  0.1425 -0.1192
18521W        W35368  11.474   2.150   0.883 -0.2715 -0.0949 -0.3108
18522W        W35369  13.810  14.124  11.341  0.1212 -0.0280  0.0232
18523W        W35370  10.658  19.010   1.582  0.0065  0.1237  0.1956
18524W        W35371  18.032  15.018   0.025 -0.2016  0.0454 -0.3565
18525W        W35372   7.190   1.550  11.610  0.1518  0.0447  0.1181
18526W        W35373   5.915  16.516   3.135  0.0015  0.1234 -0.1813
18527W        W35374   1.415   6.622   3.508 -0.4309 -0.1830 -0.2864
18528W        W35375   9.230  13.991  11.684  0.0760 -0.2034 -0.2131
18529W        W35376   3.267   9.676  13.022 -0.1628 -0.2327 -0.2360
18530W        W35377   4.826  18.980  10.240 -0.3468  0.0729 -0.1335
18531W        W35378  15.828  10.534   1.717  0.1205  0.0170 -0.1375
18532W        W35379   6.312   5.902  13.243  0.1668 -0.0604  0.0735
18533W        W35380   2.822  18.898   0.862  0.0124 -0.2764  0.0867
18534W        W35381  14.776   1.458   2.011  0.3568 -0.0524 -0.1797
18535W        W35382  14.825   6.888  11.529 -0.3325  0.0007 -0.0697
18536W        W35383  12.323  17.031   0.054 -0.3095 -0.1665 -0.2624
18537W        W35384  19.611   6.233   3.356  0.2004 -0.1481  0.2285
18538W        W35385   6.202  11.705   3.886  0.2077 -0.1376 -0.1483
18539W        W35386   2.630  12.054  12.989  0.2382 -0.2401 -0.1815
18540W        W35387  14.379   6.125   1.054 -0.1203  0.2542 -0.3484
18541W        W35388   8.649  11.133   2.528 -0.1580 -0.0996  0.1124
18542W        W35389   2.529   2.310  10.622 -0.1758  0.1252 -0.0007
18543W        W35390   5.754   1.295   1.666 -0.0578  0.0262  0.2906
18544W        W35391  13.221  16.482  12.790  0.0682  0.0284 -0.1770
18545W        W35392   4.813  14.605   2.731  0.2553  0.2834 -0.0188
18546W        W35393   3.663   4.161   5.314 -0.0147 -0.0967 -0.1529
18547W        W35394   8.320   4.368   1.239 -0.1739 -0.1890 -0.2298
18548W        W35395  18.801  15.274  12.521 -0.2199 -0.1146  0.0221
18549W        W35396   7.831   3.038   1.583  0.3007  0.0099 -0.0204
18550W        W35397  19.318   6.712  12.848  0.0120  0.0327 -0.0813
18551W        W35398  17.727  12.985  10.061 -0.0055 -0.0668  0.0520
18552W        W35399  16.016  14.708  10.843 -0.0941 -0.2458 -0.0119
18553W        W35400   2.765   4.033  13.859  0.1381 -0.4372  0.1435
18554W        W35401  17.245  12.565   4.759 -0.0095 -0.0571  0.0708
18555W        W35402   7.382   5.237   2.759 -0.2098  0.1009  0.0842
18556W        W35403   7.709  15.790   3.635  0.0784  0.1149  0.2616
18557W        W35404  18.863  16.754   0.379 -0.3592 -0.0098  0.1317
18558W        W35405  10.967   6.903   2.059  0.1385  0.0979 -0.1576
18559W        W35406   5.803  15.943   4.811 -0.0389  0.0037 -0.1471
18560W        W35407   8.805  15.132   2.364  0.2456  0.1772  0.1756
18561W        W35408  14.241   8.904   2.088 -0.1105 -0.1060  0.1067
18562W        W35409  15.889   5.688   2.617 -0.2578  0.2193  0.1247
18563W        W35410  11.612   9.574   2.568 -0.0227  0.0194 -0.1322
18564W        W35411   8.292   7.603  11.625  0.1789  0.0547 -0.0147
18565W        W35412   2.769   4.068   3.840 -0.1021  0.2046 -0.1311
18566W        W35413  19.300   9.784  13.564 -0.0318 -0.0344 -0.0160
18567W        W35414  16.689   7.017   5.679 -0.6782  0.1215  0.1345
18568W        W35415   7.458   1.965   3.220 -0.0122  0.0169  0.0197
18569W        W35416  11.063   7.439   3.912 -0.0159  0.2433  0.1313
18570W        W35417  14.635  18.890   1.913 -0.5087  0.1296  0.1840
18571W        W35418   0.982   3.788  12.632 -0.1198  0.1784 -0.2221
18572W        W35419  17.694   8.372   2.161 -0.3138 -0.2323  0.1493
18573W        W35420  10.465  18.080   4.621 -0.2837 -0.0244  0.1469
18574W        W35421   9.210  18.589  11.776  0.0284 -0.0414 -0.0380
18575W        W35422   6.101  13.625   4.231 -0.0344  0.0628 -0.2415
18576W        W35423   0.536   9.397   1.164 -0.2070  0.2565  0.4467
18577W        W35424  14.143  16.428  11.695 -0.1122  0.2125  0.1353
18578W        W35425  13.857   9.603   1.847 -0.0996  0.3730  0.0587
18579W        W35426   0.207  16.037  10.934 -0.0569 -0.0304  0.1776
18580W        W35427   4.452  15.466   2.441 -0.1022  0.3424 -0.3679
18581W        W35428  16.718   8.037   5.116  0.1790  0.0218 -0.3469
18582W        W35429  10.848   6.585   2.488  0.1765 -0.2576  0.0231
18583W        W35430  11.371   7.315  10.872 -0.0477 -0.1712  0.1204
18584W        W35431   7.451   0.961   4.282  0.0422  0.1874 -0.1841
18585W        W35432  18.789  11.999  10.540 -0.2083 -0.2450  0.1382
18586W        W35433  19.331  11.800  10.506 -0.1198 -0.0161  0.1386
18587W        W35434  18.812  18.267   4.143 -0.3780 -0.1775  0.1253
18588W        W35435  18.896  14.741  14.278 -0.1045  0.5619  0.0524
18589W        W35436   2.657  17.606  11.902 -0.1779  0.1250 -0.0137
18590W        W35437  11.593  18.418  13.983 -0.0429 -0.1225  0.0464
18591W        W35438  12.229   1.767  11.322 -0.1348 -0.0360 -0.1552
18592W        W35439  12.457   3.318   0.904  0.3358 -0.0436 -0.0345
18593W        W35440  18.625  12.121   2.202 -0.1320  0.1566  0.1188
18594W        W35441  16.010  15.732  12.700  0.2263 -0.0182 -0.1583
18595W        W35442  12.712   7.571  10.615  0.0948  0.1946  0.1644
18596W        W35443   6.740  16.735   3.614  0.0991  0.0057 -0.1998
18597W        W35444   6.335   5.265   0.530  0.0136  0.0311 -0.1827
18598W        W35445   8.059  16.051  12.592 -0.1077 -0.2274 -0.0358
18599W        W35446   6.408  15.293   2.307 -0.1235 -0.0553  0.2771
18600W        W35447   5.084   5.393  10.704 -0.3149  0.3010  0.1645
18601W        W35448   5.099   0.698  13.017 -0.1937 -0.0384  0.1146
18602W        W35449   2.221   4.778   4.515  0.2469  0.2289  0.5048
18603W        W35450  12.699  18.068  13.073  0.2016  0.2070  0.1651
18604W        W35451  17.878   4.758  11.553  0.2221 -0.1270  0.1196
18605W        W35452  19.420  15.802  11.604  0.0104 -0.0311  0.1410
18606W        W35453   5.728  13.172  10.917  0.4245  0.0990 -0.0108
18607W        W35454  14.587  10.890   0.626 -0.1489  0.0812  0.2570
18608W        W35455  11.693   6.675  11.696 -0.1689 -0.2078  0.3112
18609W        W35456  13.986   1.147   2.588  0.0428 -0.2047  0.1627
18610W        W35457  11.141   8.814  12.087  0.1131 -0.0889  0.1739
18611W        W35458   0.670  15.196  11.454  0.2056 -0.1040 -0.2693
18612W        W35459  18.206   3.695   4.288 -0.1558  0.4963  0.3160
18613W        W35460  12.654   9.426  13.729 -0.0542  0.0400  0.0611
18614W        W35461   3.635  17.193  11.958 -0.1724 -0.2473 -0.3882
18615W        W35462  16.655  19.008   0.446 -0.3955 -0.1240  0.2302
18616W        W35463   4.117  11.998   3.124 -0.0255  0.0753  0.0522
18617W        W35464   2.145   7.642  10.278 -0.0930  0.1189 -0.1271
18618W        W35465   8.163   1.774   3.546 -0.2717  0.0516 -0.2084
18619W        W35466   2.911   4.638  14.596  0.0926  0.0529  0.1717
18620W        W35467  19.130  19.061  13.213  0.3158  0.0436 -0.2669
18621W        W35468   2.408  14.491  13.981 -0.2776 -0.0902  0.0015
18622W        W35469  19.202   2.210  10.441  0.2333 -0.3244  0.1512
18623W        W35470   3.209  13.075   5.102  0.0714  0.0180  0.4228
18624W        W35471   3.907   3.837  12.994  0.2452 -0.0538 -0.1141
18625W        W35472  10.769   6.611   4.380 -0.0261  0.1822  0.0327
18626W        W35473  12.970  11.991  13.492  0.3440 -0.0836 -0.3846
18627W        W35474  12.157  12.995  12.239 -0.1671  0.0365 -0.3099
18628W        W35475   9.746  15.959   3.787 -0.0496  0.0749  0.0470
18629W        W35476   9.639  10.429   0.895  0.1238 -0.3014  0.0826
18630W        W35477  15.429   1.360   4.230  0.0992 -0.2626  0.2191
18631W        W35478   4.594   6.316   0.429 -0.2636  0.0191 -0.4720
18632W        W35479  14.130  10.467  12.433  0.0852  0.3921 -0.2389
18633W        W35480  18.089   7.453  10.494  0.1132  0.0718  0.0356
18634W        W35481  13.804   7.638   1.998  0.2652  0.2515 -0.0115
18635W        W35482   3.743   6.547   0.887  0.2417  0.0246  0.1011
18636W        W35483   3.270   2.851   1.505 -0.1471 -0.3329 -0.1393
18637W        W35484  11.962  11.022  10.519 -0.1320  0.1793  0.1108
18638W        W35485   3.335   5.564  13.181 -0.2391 -0.0693 -0.3846
18639W        W35486  17.728   9.523   4.591  0.2463  0.2413 -0.0117
18640W        W35487  15.021   7.919  12.927  0.0957 -0.4481 -0.0723
18641W        W35488   3.458   3.885   1.802  0.0938  0.4013 -0.0150
18642W        W35489   5.717  11.945   2.732 -0.0542  0.1543  0.2263
18643W        W35490  13.730   8.116  13.516  0.0928 -0.1899  0.2371
18644W        W35491  10.322   9.895   1.341  0.1858  0.1432  0.0284
18645W        W35492   7.381  15.055  13.105  0.0136 -0.0060  0.0040
18646W        W35493  15.367   3.717  11.814  0.1330  0.2655 -0.0472
18647W        W35494  15.479   6.808   3.043 -0.0793 -0.1692  0.1074
18648W        W35495  12.704  14.248   1.416  0.1011 -0.1630  0.1739
18649W        W35496   1.950  12.601   1.197  0.2233 -0.0434 -0.0849
18650W        W35497   9.396   1.382  11.496 -0.0261  0.1392  0.1786
18651W        W35498   1.506   0.450   2.701 -0.1158  0.2258  0.0391
18652W        W35499  11.376   2.388   1.352 -0.3022  0.0624 -0.2322
18653W        W35500   2.103  11.632   1.990  0.1802  0.0086 -0.2204
18654W        W35501   7.086  19.556   3.500 -0.1263  0.0039  0.1084
18655W        W35502  17.119  17.475   0.768 -0.0830  0.3357  0.4715
18656W        W35503  15.501  10.560   0.154  0.1534 -0.1255  0.1444
18657W        W35504   8.935  16.895  10.106  0.2523 -0.1172  0.2782
18658W        W35505   1.557  15.351   3.246  0.1068 -0.0397  0.2326
18659W        W35506  15.460  18.451   2.219 -0.0849  0.2115  0.2408
18660W        W35507  11.264  17.090   4.138 -0.0386 -0.4519  0.4791
18661W        W35508   5.365  19.418  11.488 -0.0128 -0.0060 -0.0202
18662W        W35509  10.698   5.696   2.136 -0.0313  0.1358  0.0375
18663W        W35510  12.990   4.208  10.857 -0.0094  0.0869 -0.0154
18664W        W35511   4.389  12.348  11.127  0.0411 -0.0876 -0.1257
18665W        W35512   6.704  15.874   2.095  0.0265  0.1598 -0.2916
18666W        W35513   2.241   9.682  12.580 -0.3417 -0.2027 -0.1060
18667W        W35514   5.233  12.898  12.829  0.0234  0.0674 -0.2682
18668W        W35515  12.795  18.278   9.868  0.2977  0.2541 -0.1824
18669W        W35516  14.041   2.030   4.004  0.4121  0.0799  0.1471
18670W        W35517  13.049   1.844  13.851 -0.0196 -0.1196 -0.0234
18671W        W35518  10.751   7.192   3.599  0.1276 -0.3590  0.0402
18672W        W35519   4.195   4.812  10.142  0.0962  0.1145  0.0014
18673W        W35520   3.381  17.399   1.222 -0.3681  0.5794  0.0718
18674W        W35521   4.942  18.718   3.557 -0.0381 -0.1276 -0.1430
18675W        W35522  15.036   1.046  13.016  0.2073 -0.1064 -0.2993
18676W        W35523   9.279  15.916   1.499 -0.0650  0.0699 -0.2384
18677W        W35524   1.323   6.955  14.524  0.1814  0.1672  0.0720
18678W        W35525   0.099   8.936  13.514  0.1138  0.2374 -0.0041
18679W        W35526   5.938  12.609   3.865  0.0256  0.0244  0.1504
18680W        W35527   0.651   3.910   2.103 -0.0409 -0.0946  0.1243
18681W        W35528  10.290  17.665   3.233  0.1131 -0.1747  0.1415
18682W        W35529   4.840   9.357   1.585  0.0577  0.0366  0.0308
18683W        W35530  13.902   2.806  11.177 -0.2384  0.2488 -0.2716
18684W        W35531  11.123  16.578   3.260 -0.4735  0.0738 -0.0462
18685W        W35532  13.983  15.700  10.684  0.0894 -0.2128 -0.0743
18686W        W35533   6.022  15.761   9.268  0.2532  0.4397 -0.0347
18687W        W35534  19.133  10.710  10.649  0.0498 -0.1491  0.0313
18688W        W35535   5.389   8.642   5.261 -0.2598  0.0679 -0.2712
18689W        W35536  17.732  10.370  12.674  0.1530 -0.0010 -0.1949
18690W        W35537   7.368   0.632   5.178 -0.0775  0.1687  0.1590
18691W        W35538   3.533   0.110   1.198  0.1256  0.0148 -0.0631
18692W        W35539  12.984   1.512  13.498  0.1874 -0.2855 -0.1298
18693W        W35540   6.377  14.976  13.748 -0.2076 -0.0671  0.1862
18694W        W35541  10.644  11.559   2.136 -0.0126  0.4146 -0.2786
18695W        W35542   4.726  10.061  14.026  0.0783 -0.2303 -0.0757
18696W        W35543   6.889   6.750  12.057  0.0847 -0.1281  0.0349
18697W        W35544   9.336   9.878   3.657 -0.0878  0.4062 -0.0913
18698W        W35545   3.968  15.293   4.267  0.4635 -0.1094 -0.0430
18699W        W35546  13.443   8.256   1.476 -0.2202  0.3247  0.0405
18700W        W35547   3.788  14.036  13.020 -0.0062 -0.0078 -0.1893
18701W        W35548  13.148  10.812   5.551 -0.1945 -0.0142 -0.1277
18702W        W35549  12.946  17.511   0.392 -0.2736 -0.0019 -0.1829
18703W        W35550   5.101   0.779  11.315 -0.4156  0.2809  0.1521
18704W        W35551  17.206   6.861   3.737  0.0133  0.2867 -0.0887
18705W        W35552   5.415  10.951  12.614 -0.0421 -0.2851  0.1515
18706W        W35553   2.038   8.064   2.629  0.1292 -0.0751  0.0864
18707W        W35554  17.693  10.419   3.502 -0.0478 -0.0960  0.1592
18708W        W35555  11.425  11.526   4.772 -0.0869  0.2553 -0.2132
18709W        W35556   6.390   8.537  12.591 -0.0046  0.0977 -0.1939
18710W        W35557  14.939  10.616  11.509 -0.2753  0.2933  0.0844
18711W        W35558  13.529  11.616  12.265 -0.1124 -0.1953 -0.3226
18712W        W35559   2.599  14.193  12.111 -0.3441  0.0100  0.1174
18713W        W35560   5.173   7.173   0.596 -0.0830 -0.1120 -0.1688
18714W        W35561   1.367   0.804   3.798 -0.0668 -0.0124  0.3222
18715W        W35562  17.917   1.180   1.066 -0.4321 -0.2199  0.2082
18716W        W35563   9.133   2.813  12.210 -0.1027  0.0363  0.2286
18717W        W35564   9.954  11.997  12.958 -0.0662 -0.1930  0.0202
18718W        W35565  12.808  10.760   1.934  0.0611  0.1135  0.0540
18719W        W35566   8.910  19.282   1.175 -0.3398 -0.1095  0.2460
18720W        W35567   7.643   1.493   4.167  0.0255  0.1282 -0.0351
18721W        W35568   3.835   8.364  13.343 -0.0310  0.1617 -0.2414
18722W        W35569   0.388   8.401   1.598 -0.4541  0.0112 -0.1231
18723W        W35570   1.638   3.322  13.771  0.0714  0.0679  0.0239
18724W        W35571  15.411   6.158  12.041  0.0593 -0.0094  0.3368
18725W        W35572   4.257   4.097  10.785  0.0720  0.2262 -0.0084
18726W        W35573   9.241  16.634   4.419  0.5295 -0.0844 -0.0162
18727W        W35574   0.247   7.438   4.296 -0.1398 -0.0937  0.3670
18728W        W35575   8.535   4.529  11.881  0.0415  0.0424 -0.1585
18729W        W35576   7.513  14.699  12.237 -0.0770  0.2450  0.1588
18730W        W35577  18.881   1.241   9.409  0.3885  0.0996 -0.2864
18731W        W35578   3.664  17.713   1.454 -0.0071 -0.3137  0.1919
18732W        W35579  16.983  15.114   4.518 -0.2467 -0.0788  0.0532
18733W        W35580   9.520  19.602  13.593 -0.1207  0.1945  0.0973
18734W        W35581  14.251  18.358   2.117  0.1657 -0.0442  0.0082
18735W        W35582   2.644  10.882  10.850 -0.1276  0.0268  0.1180
18736W        W35583  11.166   6.472  12.018  0.0585  0.1019 -0.3655
18737W        W35584  16.671   2.114   2.964  0.4144 -0.1414 -0.0347
18738W        W35585   9.755  12.955   3.761 -0.1373  0.2401 -0.4252
18739W        W35586   1.676   1.222   1.631  0.0123 -0.0369 -0.3773
18740W        W35587  16.383  16.243  11.020 -0.0478 -0.1439 -0.2344
18741W        W35588   9.629   2.434   2.330  0.1486 -0.1523 -0.1676
18742W        W35589   0.416  12.671  12.657 -0.1629  0.0366  0.4452
18743W        W35590   2.644  12.062   3.810 -0.3057 -0.3203 -0.0530
18744W        W35591   4.712   0.310  14.381  0.2007  0.3343 -0.1752
18745W        W35592  19.090   8.558  13.452 -0.0023 -0.0787  0.1468
18746W        W35593  14.498  16.863   1.674  0.1179 -0.0128 -0.0326
18747W        W35594   7.676  19.135  13.263 -0.1927 -0.0739 -0.0205
18748W        W35595   5.763  11.353   0.865  0.1675 -0.0564 -0.1752
18749W        W35596  10.750   1.769   1.490 -0.0520  0.4027  0.2377
18750W        W35597  13.966  10.148  11.323 -0.2526  0.1001 -0.1437
18751W        W35598  10.323   1.597  11.224  0.0077 -0.1423 -0.1460
18752W        W35599  12.788   3.485  10.585 -0.0204  0.2903  0.2073
18753W        W35600  12.499  11.921   3.573  0.0179  0.2421 -0.2924
18754W        W35601   1.584  13.847   0.405 -0.0730  0.2462  0.3940
18755W        W35602  15.704   4.547  12.006 -0.2559  0.1198  0.0770
18756W        W35603  12.982  14.826  13.220 -0.1143 -0.0707 -0.0551
18757W        W35604  18.761  10.234   3.783 -0.1086 -0.0698 -0.1629
18758W        W35605  11.969   7.393   3.411  0.1436  0.1218  0.1258
18759W        W35606  16.790   8.156  12.476 -0.1086  0.4099 -0.0548
18760W        W35607   2.883   3.534  12.378  0.1552  0.3081 -0.1768
18761W        W35608  11.560  19.507   0.376  0.1443  0.3850  0.0451
18762W        W35609  17.668   4.362   0.606 -0.3633 -0.2121 -0.3088
18763W        W35610  14.677   2.124   3.303 -0.0857 -0.3296 -0.3548
18764W        W35611  16.081   4.456  11.591 -0.0636 -0.2429 -0.0255
18765W        W35612  15.828   3.531   0.690  0.0275 -0.2168 -0.2348
18766W        W35613   3.658  13.569  13.227  0.2992  0.0798  0.0653
18767W        W35614  14.847  18.615   3.055 -0.0982 -0.1229  0.0586
18768W        W35615   1.135   0.110   0.873  0.0145 -0.1652  0.3480
18769W        W35616  18.221   8.796   2.111  0.1133  0.1719  0.1393
18770W        W35617   5.559  12.994   3.904 -0.2655  0.0812  0.0947
18771W        W35618   5.897  14.317  12.489  0.2137 -0.0192  0.1765
18772W        W35619  18.229  19.152  10.426 -0.0683 -0.0028  0.2203
18773W        W35620  16.166  18.653  10.617  0.0302 -0.2407  0.0834
18774W        W35621  17.350   9.995  13.538  0.0402  0.0697 -0.2468
18775W        W35622   1.460  13.054   0.503 -0.0409  0.2286  0.2347
18776W        W35623  17.367  14.138  13.112 -0.1193 -0.3557  0.2507
18777W        W35624   7.855   4.442   3.462  0.3554  0.1884 -0.0884
18778W        W35625   0.629   1.231   3.191  0.0410 -0.2073  0.0587
18779W        W35626   7.058   1.673  14.069 -0.0232  0.0233  0.3674
18780W        W35627   2.507   9.280  12.541  0.0576  0.2345  0.0996
18781W        W35628  15.183   1.956  12.575  0.2278 -0.5021  0.0464
18782W        W35629  17.858   7.916  10.629 -0.1801  0.1590  0.2335
18783W        W35630  17.150   7.678   2.196  0.0175  0.0667 -0.1153
18784W        W35631  11.954   0.505   1.553  0.0747  0.3029 -0.2885
18785W        W35632  11.571   0.795   1.364  0.3977  0.1142  0.0522
18786W        W35633  14.762   4.792  11.337 -0.0666  0.0245 -0.0026
18787W        W35634  17.666  11.194   1.701  0.2500  0.2218 -0.2441
18788W        W35635  13.067  18.322  11.465 -0.0613 -0.1890  0.0619
18789W        W35636  10.695  10.599  12.374 -0.2402 -0.4064 -0.0239
18790W        W35637   9.749  10.196  11.752  0.0999 -0.1875  0.0862
18791W        W35638   6.130  16.676   2.621  0.1068  0.1983  0.1310
18792W        W35639  13.781   8.453  10.283 -0.0021  0.2402  0.0258
18793W        W35640  13.675  14.604  11.149  0.0376  0.2368  0.0333
18794W        W35641  18.656  14.789  12.461  0.1167 -0.3948  0.0123
18795W        W35642  13.452  16.173  11.050  0.3094 -0.2078 -0.0388
18796W        W35643   0.276  11.621   0.726  0.0468 -0.1020  0.0714
18797W        W35644  17.687  18.911  11.779 -0.2357 -0.1867  0.1639
18798W        W35645  13.342  15.462   3.536 -0.3281 -0.1238  0.1839
18799W        W35646   0.664   0.935   4.790 -0.0433  0.3044  0.2162
18800W        W35647   1.585  18.936  11.648 -0.2558  0.0073  0.0574
18801W        W35648   1.247  15.224  14.056  0.0619  0.3652 -0.1030
18802W        W35649  12.243   5.641   1.992 -0.3762  0.0702 -0.0954
18803W        W35650   2.028  17.523  10.747  0.2768 -0.1810 -0.0402
18804W        W35651  11.155   3.465   4.052 -0.1304 -0.0915 -0.2138
18805W        W35652   2.977   2.346   0.056 -0.2623  0.0941 -0.0276
18806W        W35653   9.960  17.778  11.757 -0.2176 -0.0193  0.1409
18807W        W35654  14.570   2.635   0.247  0.1466  0.1297 -0.1747
18808W        W35655   8.626  17.900   3.112  0.4301  0.1625  0.1850
18809W        W35656  19.180  17.081   0.167  0.2473 -0.3971 -0.2965
18810W        W35657   4.394  18.173   3.781  0.2786  0.0668 -0.4431
18811W        W35658  13.826   2.284  12.696  0.0212  0.2365  0.1828
18812W        W35659   6.359  13.210   3.022  0.2705 -0.0730 -0.1183
18813W        W35660   3.357  13.712   3.773 -0.4294  0.1045 -0.0982
18814W        W35661  13.616  19.063   3.230  0.1441  0.0013 -0.1937
18815W        W35662  19.017  17.794  11.406 -0.0273 -0.1238 -0.0875
18816W        W35663  13.168  14.193  13.187 -0.0503 -0.1230 -0.0836
18817W        W35664   4.349   0.822   1.456 -0.3937 -0.0142  0.2642
18818W        W35665  13.027  12.586  14.261 -0.1430 -0.4433  0.1718
18819W        W35666  15.157   2.647  10.289  0.0123  0.0088  0.1426
18820W        W35667   3.271  15.454   1.469 -0.2759  0.4284  0.0052
18821W        W35668   9.144   2.822   3.772  0.3783  0.3046 -0.0652
18822W        W35669   1.186   9.710  12.528 -0.0558 -0.4233  0.1659
18823W        W35670  16.215   0.738  11.548  0.1292 -0.0123  0.1754
18824W        W35671   5.824  11.394   1.934  0.1421 -0.0375 -0.0415
18825W        W35672   0.335  12.218   0.378 -0.2868  0.1248 -0.2322
18826W        W35673  17.925   9.374  14.195  0.0281 -0.0055  0.0775
18827W        W35674  11.954   3.704  10.143 -0.0707 -0.0097  0.2173
18828W        W35675  13.376   6.836   5.525  0.0872  0.0609  0.0331
18829W        W35676  17.985   2.077   3.057  0.1385  0.1821 -0.0090
18830W        W35677   6.881   5.370  10.302 -0.0239  0.2954 -0.3538
18831W        W35678  10.442   9.559   3.634  0.0131  0.2673 -0.0300
18832W        W35679  18.660  14.523   1.479 -0.1910 -0.0202 -0.2013
18833W        W35680  11.885   2.607   3.131 -0.0333  0.0871 -0.1843
18834W        W35681  10.836   8.314   1.613  0.3916  0.1560  0.0499
18835W        W35682  15.210   8.110  10.389 -0.0283  0.0534  0.2269
18836W        W35683   0.484  11.904   5.633 -0.3011  0.0261 -0.1534
18837W        W35684  16.581  16.264   0.576 -0.2208 -0.1427 -0.1829
18838W        W35685  13.575  12.354  14.100 -0.0544  0.1136 -0.0550
18839W        W35686  16.775  11.131   4.588 -0.0722 -0.0643 -0.0538
18840W        W35687   9.697   2.039  14.277 -0.1329  0.2913  0.4638
18841W        W35688  13.351  11.490   4.976  0.2257  0.2004 -0.0711
18842W        W35689   9.587   4.208   4.804 -0.1255  0.0473  0.4880
18843W        W35690  12.553  11.055  13.288  0.2517  0.0677 -0.5412
18844W        W35691  10.845  10.812   0.162 -0.0784  0.1972  0.0602
18845W        W35692  15.046  17.854  14.307  0.1400 -0.1309  0.2615
18846W        W35693  16.998   8.521  12.777 -0.1857 -0.1618  0.1950
18847W        W35694   4.375   5.974  12.367 -0.2535  0.1352 -0.1639
18848W        W35695   7.197  16.212   0.867 -0.2342  0.1045 -0.0097
18849W        W35696   4.048   1.549  13.451 -0.0773 -0.4726  0.0393
18850W        W35697  15.089  13.904   1.894  0.2588 -0.3754 -0.0672
18851W        W35698  16.093  19.107   1.614  0.0458 -0.1313  0.3524
18852W        W35699   4.964  10.625   3.886 -0.2764  0.2543  0.1373
18853W        W35700  19.343  16.691  10.511  0.0816  0.1724 -0.1503
18854W        W35701  11.407   4.236   0.202  0.0066 -0.1225 -0.0297
18855W        W35702   1.795  16.667  13.143  0.2793 -0.0908 -0.2037
18856W        W35703  13.871  15.163   1.234 -0.2234  0.3303  0.1199
18857W        W35704   0.763  12.485   0.541  0.1351  0.0547  0.0023
18858W        W35705   2.294   5.935  12.521  0.3300  0.3262 -0.0760
18859W        W35706  13.320  11.268  13.028  0.1769 -0.0045 -0.3500
18860W        W35707  11.610  12.474   2.770  0.1479 -0.3314 -0.0867
18861W        W35708   8.614  11.889  14.415 -0.2851 -0.2483  0.2143
18862W        W35709   1.732  11.898   1.146  0.0381 -0.0104 -0.2080
18863W        W35710  12.370   6.971  13.379 -0.0207 -0.0184  0.0973
18864W        W35711  13.086  11.585   4.552  0.0551  0.0363  0.0076
18865W        W35712   9.034  14.318   0.600 -0.0396 -0.0364 -0.1487
18866W        W35713  15.490  17.916   2.362 -0.1796  0.1746  0.2167
18867W        W35714  14.172   7.301  12.518  0.1640 -0.1504 -0.2207
18868W        W35715  18.472   1.709  11.225  0.1053 -0.3323 -0.0081
18869W        W35716   4.322  16.115  13.382  0.2292  0.0576  0.0534
18870W        W35717  14.169   4.257  12.229  0.1678 -0.1441 -0.2109
18871W        W35718  14.156   3.170   4.447  0.0406 -0.0590 -0.3220
18872W        W35719   0.598   0.291  14.473  0.0244 -0.3084 -0.2033
18873W        W35720   2.621  17.075  11.971 -0.1957  0.0721  0.1163
18874W        W35721  14.202  15.964   4.145  0.0023  0.0563 -0.0198
18875W        W35722   7.372  10.676  12.704  0.1567  0.0125 -0.0311
18876W        W35723  18.796  10.654   5.779  0.0495 -0.1781  0.0078
18877W        W35724   0.001  14.033   4.077  0.0339 -0.1846  0.2428
18878W        W35725   0.613   6.243   5.082  0.0151  0.1940  0.1989
18879W        W35726  18.882  11.047   4.166 -0.0013 -0.2343  0.1134
18880W        W35727  16.878   5.328   1.217 -0.0766  0.2632  0.0304
18881W        W35728   5.512  16.474  10.281  0.0725  0.2478 -0.2545
18882W        W35729  13.004  16.737  11.446  0.1722 -0.2198  0.1019
18883W        W35730  15.444  19.266  12.389  0.0081 -0.0414 -0.0291
18884W        W35731  18.352  10.358  14.387  0.0786  0.0281  0.2374
18885W        W35732  16.700   1.338   1.815 -0.1962 -0.1648  0.2913
18886W        W35733  16.843  12.990  14.242 -0.1081 -0.5471 -0.0604
18887W        W35734   7.415   7.756  14.196  0.1025 -0.2483  0.0311
18888W        W35735  11.403   5.313  12.826  0.4593 -0.0647  0.0285
18889W        W35736  13.045   9.505   2.089  0.2024  0.0111 -0.3188
18890W        W35737   0.035  18.734   4.157 -0.1649  0.1212  0.0168
18891W        W35738   7.393   4.915   0.352 -0.2779  0.1942  0.3613
18892W        W35739   4.253   1.579  12.424  0.0182  0.3247 -0.1174
18893W        W35740  19.385  16.177  14.072 -0.1029  0.0076  0.2405
18894W        W35741   9.140   1.067   4.156 -0.3192 -0.1532  0.2394
18895W        W35742  15.030   9.999  10.848  0.3401  0.2240  0.2217
18896W        W35743   8.388  16.393   2.909 -0.2383  0.0270  0.2566
18897W        W35744  14.033   5.134  11.997  0.0993  0.0405 -0.1443
18898W        W35745   9.637   1.335   1.193 -0.1061 -0.0479  0.2731
18899W        W35746  13.399  18.796   0.966 -0.0525 -0.1417 -0.0609
18900W        W35747   0.403  18.277  10.873  0.2161  0.0960  0.2711
18901W        W35748   1.358   7.017   4.956  0.1283  0.1743  0.2656
18902W        W35749   8.385  17.480   2.237 -0.0064 -0.0384 -0.0065
18903W        W35750   5.532   7.091  12.942  0.2025 -0.1224 -0.0316
18904W        W35751  19.301  19.598   1.356  0.3345  0.0677  0.0607
18905W        W35752  18.967  15.139   2.910  0.0003  0.0520  0.0689
18906W        W35753   0.612   4.139   2.550 -0.0878 -0.0836  0.0171
18907W        W35754   7.790   5.729   2.106 -0.1688  0.0319 -0.0795
18908W        W35755   0.542  11.097   4.563  0.5076  0.1805 -0.1604
18909W        W35756  13.782   8.071  14.312  0.0734  0.3412 -0.0698
18910W        W35757   8.638   3.523   2.701 -0.0222 -0.1920 -0.1902
18911W        W35758   0.206  11.164  10.768 -0.3480  0.0971  0.1439
18912W        W35759   2.169  10.516   0.303  0.2386 -0.0813 -0.0901
18913W        W35760   3.452  14.575   2.724 -0.0138  0.0395 -0.2843
18914W        W35761   8.774  15.378  11.145 -0.1309 -0.0356 -0.1621
18915W        W35762   3.532   7.596  13.799  0.0114  0.0525 -0.1288
18916W        W35763  15.399   5.936   4.131 -0.0015 -0.1771  0.1340
18917W        W35764   1.919   1.729  10.208 -0.1212 -0.0855  0.3622
18918W        W35765  15.791   1.668   2.962  0.0117  0.1321 -0.0890
18919W        W35766  13.809  13.357   4.134  0.0258 -0.1616 -0.1678
18920W        W35767   4.887   8.833  10.631  0.2167  0.1327  0.0504
18921W        W35768   5.808  11.832   3.187  0.0393 -0.1928  0.0457
18922W        W35769   6.454   9.182   4.734  0.4139 -0.1560  0.4323
18923W        W35770   3.789   8.492   0.210 -0.1621  0.2114  0.3361
18924W        W35771  18.080  14.791  12.571  0.0056 -0.2210 -0.0761
18925W        W35772   0.247   6.688  12.944  0.2989  0.1241  0.1102
18926W        W35773   6.292  12.473   9.985 -0.1246 -0.0717  0.1785
18927W        W35774   4.184  17.091  11.726  0.3060 -0.4836 -0.0507
18928W        W35775  10.139   8.139  12.602  0.2663  0.2503  0.0936
18929W        W35776  18.315  14.566   2.191  0.1511 -0.1835 -0.3284
18930W        W35777   6.749   9.958  14.472 -0.1252 -0.5449 -0.1646
18931W        W35778  16.326   8.724   1.149 -0.0481 -0.0916  0.1238
18932W        W35779   6.290   5.967   2.804 -0.0778 -0.3270 -0.0318
18933W        W35780  13.953   6.731  14.586 -0.0313 -0.0999  0.3364
18934W        W35781  10.476  12.141   1.434  0.0754  0.0089  0.0826
18935W        W35782   5.534   3.799   2.415  0.0309 -0.2203 -0.2208
18936W        W35783   3.756   2.030   3.625 -0.2389 -0.0302  0.0371
18937W        W35784   1.896  10.322   4.084  0.2347  0.2079 -0.0001
18938W        W35785  18.321   5.493   4.541 -0.0148 -0.0818 -0.2791
18939W        W35786   6.297   6.668   4.387 -0.0875 -0.0728 -0.1926
18940W        W35787  12.974   8.427  11.046  0.0936 -0.2427 -0.0055
18941W        W35788   9.227   8.246  13.071 -0.1384 -0.0105 -0.2165
18942W        W35789  19.210   7.479   0.708 -0.1832 -0.1143 -0.2229
18943W        W35790  17.241   7.044   1.072 -0.2361  0.0124  0.1553
18944W        W35791   3.010   3.300  11.141 -0.1119  0.0810  0.0885
18945W        W35792   1.553   8.256  14.503  0.2236  0.1049 -0.1213
18946W        W35793   4.009  11.371   0.309  0.0919  0.2028  0.0378
18947W        W35794  15.472  18.183   3.261  0.0798  0.1351  0.1552
18948W        W35795  16.260  11.641   3.908 -0.0629 -0.0835 -0.2707
18949W        W35796   2.396   0.255  11.306  0.1028 -0.0218 -0.0071
18950W        W35797   8.301   9.579   2.700 -0.0903 -0.0954 -0.3228
18951W        W35798  18.785  17.008  12.268  0.2007  0.1947 -0.1517
18952W        W35799  12.336  10.244  13.580  0.1319 -0.1558  0.1020
18953W        W35800  13.397  10.186   2.696 -0.3038  0.0791  0.2734
18954W        W35801  16.739   6.517   0.094 -0.0403  0.0139  0.3627
18955W        W35802  13.902  13.327   3.464  0.5252  0.0525  0.1905
18956W        W35803   6.699   0.166  12.177 -0.0795 -0.1152 -0.0434
18957W        W35804   4.341  17.202   2.755  0.1996 -0.0513 -0.0484
18958W        W35805  18.642   1.404   2.751 -0.0008  0.0167 -0.1316
18959W        W35806  10.062  10.724  14.260  0.0810 -0.1434 -0.1039
18960W        W35807   7.793  11.499   2.816 -0.0093  0.3516  0.3398
18961W        W35808  10.906   0.049   3.371  0.1557 -0.0804  0.0777
18962W        W35809  12.768  12.864  13.902  0.0047  0.0195 -0.0199
18963W        W35810   5.756  19.233  13.359  0.0977 -0.0814  0.3168
18964W        W35811   8.874   8.410  11.886 -0.0206  0.1274 -0.2388
18965W        W35812   6.333   3.946  13.039  0.0223 -0.0785 -0.2070
18966W        W35813  16.774   5.619   3.258 -0.1069 -0.2408  0.1457
18967W        W35814  16.902   1.150  12.912 -0.2481  0.0475 -0.0118
18968W        W35815   0.132   5.575   4.548 -0.2500  0.2035 -0.0225
18969W        W35816   7.985   8.781  14.370  0.0717  0.0930 -0.2408
18970W        W35817  14.578  16.328   2.709  0.0976 -0.3655 -0.1619
18971W        W35818   5.668   7.816   9.596  0.1353 -0.0346 -0.0708
18972W        W35819   3.405   1.187   4.108  0.1392 -0.1080  0.1241
18973W        W35820  14.049   3.521   9.416  0.0909 -0.0695  0.3644
18974W        W35821   4.969  12.984   2.107  0.0445  0.2347  0.0154
18975W        W35822  10.324   4.550  13.098 -0.0269  0.0660  0.0958
18976W        W35823   2.833   5.110  13.744 -0.0548 -0.0351 -0.0641
18977W        W35824  16.458  10.619  10.353  0.2759 -0.2431  0.1698
18978W        W35825  15.202   8.186  13.333 -0.0526  0.0447 -0.1029
18979W        W35826  15.816  14.447   1.365 -0.0040 -0.0332  0.2099
18980W        W35827  14.987  16.793   1.419  0.1962  0.3137  0.1010
18981W        W35828   7.775   7.830   3.629  0.3438 -0.0235 -0.0476
18982W        W35829   4.972  15.881  13.899 -0.0511 -0.0645  0.0434
18983W        W35830   8.843  17.362  13.335  0.1188 -0.2503 -0.0516
18984W        W35831  11.957   0.626   2.861  0.0392  0.0347 -0.0910
18985W        W35832   9.708  18.891   3.771  0.0236 -0.1823  0.0641
18986W        W35833  12.579  16.416  13.635  0.0703  0.0303 -0.2257
18987W        W35834   3.962  11.636  12.646 -0.1247 -0.1213 -0.0379
18988W        W35835  10.776  10.852  13.722 -0.1477  0.0644  0.2049
18989W        W35836   1.708  17.334   0.427 -0.0555 -0.2055 -0.1784
18990W        W35837   9.458   8.678  13.016  0.0697 -0.0874 -0.0698
18991W        W35838  19.451  18.638  10.655 -0.1882 -0.1430 -0.1147
18992W        W35839  14.264  17.141  12.783 -0.1000 -0.1102 -0.0839
18993W        W35840  10.619  13.804  11.173 -0.1709  0.3297  0.2583
18994W        W35841  13.375  15.073   4.455  0.3580  0.0425 -0.2269
18995W        W35842   4.786   2.199   0.295  0.0921 -0.0485  0.4124
18996W        W35843  17.118  14.557  14.403  0.1446  0.1734 -0.0471
18997W        W35844  16.911   0.957   4.952  0.2780  0.0328  0.2181
18998W        W35845   5.044  17.374  11.212  0.1264 -0.1187  0.0483
18999W        W35846   9.293   7.526  13.512  0.0892 -0.2320  0.1137
19000W        W35847  18.413  10.134   4.133  0.1171  0.1621 -0.2096
19001W        W35848  15.303   6.526   3.435  0.3004 -0.0007  0.2350
19002W        W35849  11.328  16.052  10.995  0.3534  0.2328 -0.1644
19003W        W35850  14.159  11.550   1.730  0.3591  0.1436  0.0060
19004W        W35851   6.929   7.696   1.382  0.1213  0.1957  0.1078
19005W        W35852   2.287  18.445   3.937  0.0185  0.1259  0.2493
19006W        W35853   3.622   6.181   9.447 -0.0890 -0.1004  0.1941
19007W        W35854   1.426  15.363  12.770  0.0920 -0.4297 -0.1334
19008W        W35855   2.683   2.486  12.061 -0.0548  0.1778 -0.1454
19009W        W35856   8.338   2.746   3.336 -0.2163 -0.0100  0.1212
19010W        W35857   6.139   0.591   4.031  0.1446  0.1956  0.0546
19011W        W35858   6.046   9.870  10.584 -0.0792 -0.1191  0.0456
19012W        W35859  10.702  12.717  10.689 -0.2119 -0.1895  0.0528
19013W        W35860  14.253  14.993   0.389  0.1121  0.1857  0.0371
19014W        W35861   8.118   2.760   2.210  0.2298  0.1691  0.4858
19015W        W35862   4.407  15.413   1.595  0.2619 -0.1983  0.0167
19016W        W35863   6.448  14.768  13.210 -0.0367 -0.0527  0.1085
19017W        W35864   1.549   2.976   1.054 -0.2859 -0.1420  0.0217
19018W        W35865   2.979  18.910  12.441  0.2214 -0.0766  0.1265
19019W        W35866  10.633  13.372   1.954  0.0051 -0.2210  0.0235
19020W        W35867  13.665   7.788   1.151  0.0921  0.1153  0.3017
19021W        W35868   0.950  15.292  14.590  0.0740 -0.2020 -0.1449
19022W        W35869  12.538  19.421   0.561 -0.1659  0.0816 -0.0906
19023W        W35870   8.664   8.695  13.915 -0.0308  0.0101  0.0319
19024W        W35871  16.525   5.246  14.568  0.2021  0.2448 -0.0035
19025W        W35872  15.816   5.823   4.852  0.0507 -0.0527  0.2285
19026W        W35873  12.149  11.821  10.121 -0.4012 -0.0228 -0.3085
19027W        W35874   3.428  18.494   3.627 -0.1681  0.2865 -0.2366
19028W        W35875   0.267   5.636  13.613 -0.3022  0.2521 -0.0564
19029W        W35876   8.304  17.336   3.743  0.1731  0.0842 -0.0651
19030W        W35877   2.611   3.537  11.378  0.1825 -0.0141  0.0475
19031W        W35878   5.374   9.915   2.279 -0.0089  0.1910  0.1112
19032W        W35879  14.959  15.702   5.091 -0.1181  0.1678 -0.2298
19033W        W35880  12.082  11.288   0.823  0.1909 -0.1425  0.2608
19034W        W35881   7.575   3.587   5.695 -0.0122  0.1401  0.5025
19035W        W35882  17.940   9.436  12.297 -0.2886  0.0664 -0.4319
19036W        W35883   4.244   6.571  12.985  0.0896  0.0002  0.0328
19037W        W35884   1.332   8.699  11.979 -0.0406 -0.3513 -0.0038
19038W        W35885  10.797  11.134  10.910 -0.3097 -0.4021  0.1184
19039W        W35886  16.409   6.372  10.830  0.2041 -0.0196  0.2674
19040W        W35887  14.549  10.997   1.124 -0.0440 -0.0066  0.0086
19041W        W35888   8.121   2.214   2.072 -0.3262  0.0187 -0.3368
19042W        W35889   2.994  14.838   5.109 -0.0137 -0.1717  0.0658
19043W        W35890   1.978  11.514   4.479 -0.1317  0.0667  0.4872
19044W        W35891   0.791  13.785   3.728 -0.0521 -0.1213 -0.1891
19045W        W35892   7.677  15.075   4.629  0.1619 -0.2994  0.0776
19046W        W35893  18.014  11.693   9.582 -0.1026  0.0801 -0.5788
19047W        W35894  10.502   4.015   2.724  0.2847 -0.1423  0.0215
19048W        W35895   5.508   4.528  11.049  0.0369  0.3370 -0.2080
19049W        W35896  10.389   3.259  13.577  0.2682  0.1922  0.1254
19050W        W35897   9.950   2.416  10.512  0.2469  0.0984  0.2815
19051W        W35898  14.374   7.562   0.143 -0.0942 -0.1008 -0.1796
19052W        W35899   4.410  18.319   1.815  0.0318  0.1490 -0.0651
19053W        W35900   6.057  16.151  13.163 -0.1464 -0.2042 -0.1590
19054W        W35901   6.564   1.706  12.280  0.2182 -0.2565  0.3530
19055W        W35902   2.870  18.036   3.124 -0.0267 -0.1109 -0.2111
19056W        W35903   9.049  17.678  10.651  0.1753 -0.0061 -0.0880
19057W        W35904   9.002  11.819   9.873 -0.0160  0.1959 -0.1057
19058W        W35905  13.185   6.027   2.678  0.2198  0.0292 -0.2843
19059W        W35906  18.480   3.661   2.943 -0.2169  0.0061  0.1285
19060W        W35907   7.405  12.918   1.696  0.0089 -0.0558  0.1727
19061W        W35908   9.632  10.584  14.488  0.2365 -0.1938 -0.1920
19062W        W35909  11.126  11.652   2.007  0.2969  0.0328  0.3402
19063W        W35910   5.341  13.897  13.696  0.1306  0.0195 -0.0973
19064W        W35911  19.323  10.004   1.110  0.0565 -0.1197 -0.0404
19065W        W35912  10.999  16.255   4.818 -0.0853  0.1851  0.4647
19066W        W35913  16.452   5.732  11.097  0.1068 -0.0846 -0.3263
19067W        W35914   1.976   7.501   2.566  0.0463 -0.2372  0.0609
19068W        W35915   4.573  10.615   5.670  0.1326  0.1002 -0.0368
19069W        W35916  19.283  14.351   2.325 -0.2482  0.3241  0.0050
19070W        W35917   9.101   3.449   0.941 -0.2579  0.2592 -0.0242
19071W        W35918   3.971  19.186   2.710  0.0258  0.1266 -0.2784
19072W        W35919  17.797  12.074   2.792  0.0789  0.1993 -0.0530
19073W        W35920  16.968  15.525  12.727 -0.0674  0.0540 -0.0615
19074W        W35921  15.018  16.374   1.871  0.3617  0.0520 -0.0754
19075W        W35922  10.808  12.827  11.645 -0.0946 -0.3845  0.1863
19076W        W35923   1.071   8.211  12.686 -0.0563 -0.0609  0.0610
19077W        W35924   7.435  11.303  14.560 -0.1059 -0.0529 -0.2867
19078W        W35925   9.858   3.780   3.482 -0.2352 -0.0951  0.0907
19079W        W35926  16.067   9.250  10.456  0.2953 -0.0446  0.1110
19080W        W35927   4.974   9.975  10.008  0.1611 -0.2713  0.0910
19081W        W35928  18.745   6.476   3.273  0.2670 -0.0544  0.1825
19082W        W35929   4.345  14.014   1.503 -0.0108  0.0520  0.2312
19083W        W35930  18.496  13.273  14.288  0.1040 -0.2325  0.0091
19084W        W35931  17.284   7.592  13.001 -0.4329 -0.3064  0.0285
19085W        W35932   1.086  14.666   1.799 -0.1522  0.2644 -0.0177
19086W        W35933  12.987   6.732  14.349  0.1339  0.0138  0.2178
19087W        W35934   2.011  16.179  14.531 -0.0920 -0.3546 -0.2136
19088W        W35935   5.153  16.878   2.551 -0.0036 -0.2791  0.1218
19089W        W35936  10.683   4.644  11.216 -0.2830  0.2356  0.1002
19090W        W35937   7.020  11.920   0.566 -0.0472 -0.0204  0.0686
19091W        W35938  11.524   5.195  10.991  0.0394 -0.1589  0.1878
19092W        W35939   2.903  17.752   0.356 -0.2140  0.2254  0.0006
19093W        W35940  13.856   3.323  13.951  0.1207  0.3192 -0.3344
19094W        W35941  13.119  10.402   1.172  0.0307 -0.1893  0.0446
19095W        W35942  15.745   9.757   4.055  0.1165 -0.1337 -0.3665
19096W        W35943  15.626  18.799  11.547 -0.1576 -0.4018 -0.0091
19097W        W35944  13.678   7.515  14.269 -0.1623  0.0139 -0.0981
19098W        W35945  17.496   7.655  11.414  0.2447 -0.1405  0.3616
19099W        W35946   8.370  11.264   3.180  0.1940  0.0896  0.3666
19100W        W35947   0.218   2.745   9.479  0.0819  0.1623 -0.2486
19101W        W35948   1.721  10.630   1.389 -0.3000  0.1104 -0.2500
19102W        W35949   2.307   6.325   4.954  0.2412 -0.1712  0.3261
19103W        W35950  13.168  15.208   0.304  0.1337 -0.0693  0.0109
19104W        W35951   7.466   8.514   1.621 -0.0652  0.2859 -0.0225
19105W        W35952  17.369  12.097  11.388  0.2243 -0.0085 -0.0171
19106W        W35953  13.033   4.888   0.707 -0.1099  0.0593  0.0887
19107W        W35954   5.572  13.756   2.004 -0.0537 -0.0098  0.4044
19108W        W35955   5.579  13.535   4.120  0.1527 -0.2928 -0.1269
19109W        W35956  13.682  19.616   3.446  0.0187  0.0802  0.4174
19110W        W35957  12.912   9.816  11.397  0.0029 -0.0897 -0.2940
19111W        W35958  16.716   8.158  13.093 -0.0693 -0.3740 -0.0508
19112W        W35959   5.606  16.828   3.692  0.0291  0.1536 -0.0024
19113W        W35960   7.638   6.934   2.911 -0.0224  0.0170  0.0088
19114W        W35961   7.969  13.107   2.079 -0.3781 -0.1235  0.1005
19115W        W35962   9.146   4.235  13.210  0.0513  0.2453  0.2177
19116W        W35963  10.426   0.036  10.469 -0.0056  0.0886  0.2610
19117W        W35964   0.522   5.133  11.431  0.0172  0.3963 -0.2559
19118W        W35965  15.724  13.903  12.743 -0.5741 -0.2193 -0.0769
19119W        W35966   5.520  15.451  12.156 -0.2496  0.0050 -0.4469
19120W        W35967   3.703   3.057   1.342  0.1077  0.1883  0.0433
19121W        W35968   9.859  10.949  10.841 -0.0091  0.1843  0.2018
19122W        W35969   8.616   5.994  13.698 -0.0430 -0.1734 -0.0042
19123W        W35970   7.478   5.892   3.890  0.2819 -0.0014 -0.0891
19124W        W35971  10.454  11.084   1.604 -0.2032 -0.2255 -0.2019
19125W        W35972  17.418  18.823  13.399  0.1365 -0.0520  0.2856
19126W        W35973   5.012   1.879   3.446  0.0469  0.0502  0.0368
19127W        W35974   1.715   4.504   3.649  0.0405  0.0606 -0.0227
19128W        W35975  10.285  17.530  11.124  0.0343 -0.2117  0.0523
19129W        W35976   3.977  16.102  13.830 -0.1288  0.0035  0.1273
19130W        W35977  11.120   7.014  13.302 -0.0940  0.2226  0.1226
19131W        W35978  17.100  17.834  14.353 -0.0743  0.1585  0.4999
19132W        W35979  13.739  11.908  10.601 -0.0021 -0.3163  0.0432
19133W        W35980  16.983   0.891  13.830 -0.0324  0.0468  0.3821
19134W        W35981   2.731   8.833  12.682  0.0059  0.1733 -0.0780
19135W        W35982   0.746   5.775  11.256 -0.3543 -0.1832  0.2859
19136W        W35983  17.535  11.669  11.096 -0.1338  0.0239 -0.3909
19137W        W35984  19.302   1.771   3.468  0.1944  0.3488  0.2490
19138W        W35985  11.616  12.941  11.003  0.0223 -0.0420 -0.1981
19139W        W35986  16.155   8.027   3.344  0.1345  0.0878 -0.1753
19140W        W35987  14.434   7.006   0.139  0.0244 -0.2126  0.0017
19141W        W35988  10.896   4.284   9.141  0.2131  0.3664  0.1161
19142W        W35989  12.299  10.979   5.202 -0.2431  0.0785  0.0499
19143W        W35990  19.575   1.771   2.468  0.2074 -0.2976 -0.1980
19144W        W35991   1.476   0.748  14.072 -0.0446 -0.0300 -0.1892
19145W        W35992  15.581   1.727  10.625  0.3173 -0.0053  0.1095
19146W        W35993  15.076  15.568   1.619 -0.2219  0.2808  0.1151
19147W        W35994  12.002   3.264  12.155 -0.2530 -0.0922 -0.1760
19148W        W35995   2.934   3.251  13.245  0.2178  0.0444  0.1875
19149W        W35996   1.318   8.002   1.567  0.2382 -0.1296 -0.1112
19150W        W35997   8.580  15.676   0.359 -0.0397  0.0326  0.1833
19151W        W35998  18.104  10.839  14.415  0.0086  0.0230 -0.2056
19152W        W35999  16.162   8.636  12.318  0.2212 -0.1515 -0.0501
19153W        W36000   8.560   2.436   4.529  0.3882 -0.1101  0.1280
19154W        W36001  18.871  15.903   4.775 -0.0823  0.1008 -0.2483
19155W        W36002  15.726   7.750   1.792  0.1262 -0.3449  0.1488
19156W        W36003  15.776   1.963   5.292 -0.0434  0.4276 -0.4170
19157W        W36004   5.260  19.213  10.481 -0.0750  0.0545 -0.0827
19158W        W36005   3.096   0.505  13.426  0.2505 -0.0237 -0.0285
19159W        W36006   2.496  17.428   9.905  0.0641 -0.0672  0.1193
19160W        W36007   9.464  17.915  12.818  0.1616 -0.1645  0.0253
19161W        W36008  10.637   4.455  10.504 -0.2402  0.1742  0.3679
19162W        W36009   5.348  13.707  14.220  0.0716  0.1228  0.1480
19163W        W36010  18.085  10.812   1.694 -0.0677  0.0341 -0.0223
19164W        W36011   0.212  11.009  13.046 -0.1892  0.0302 -0.1178
19165W        W36012   8.478  12.708  13.360 -0.2470  0.0656 -0.0808
19166W        W36013   9.423  13.855  10.756 -0.0471  0.0254 -0.0089
19167W        W36014   4.736   5.296   4.787 -0.2667 -0.1798  0.0117
19168W        W36015  12.424   1.502  10.074 -0.4568 -0.1148 -0.1725
19169W        W36016  13.248   3.270   2.188 -0.0575 -0.0557  0.3268
19170W        W36017  15.390  16.544   3.570 -0.5125 -0.0156 -0.2625
19171W        W36018   5.923   7.176  10.631 -0.1942  0.0800 -0.3873
19172W        W36019  18.806   7.283  11.435  0.0166 -0.0124 -0.3295
19173W        W36020   6.992  12.255   4.343  0.0736  0.0416 -0.0406
19174W        W36021   5.652   1.135   1.190 -0.1729 -0.4320 -0.1589
19175W        W36022   6.908  18.807   0.943  0.0729  0.1470 -0.1611
19176W        W36023   6.306  19.364   5.232  0.0062 -0.1385  0.0966
19177W        W36024  15.871  14.202   3.341  0.2983  0.2903 -0.1631
19178W        W36025   3.181  14.591   3.384  0.2447  0.3386 -0.0239
19179W        W36026  17.645   0.481  11.373 -0.4742  0.0002  0.1399
19180W        W36027   5.806   8.866  11.857  0.3381 -0.3818  0.1179
19181W        W36028  11.088   0.503   1.778 -0.1196 -0.2521  0.3410
19182W        W36029   5.978  14.264   0.684 -0.0747 -0.0093 -0.0374
19183W        W36030   8.188  12.512   3.458  0.1694 -0.1152 -0.0286
19184W        W36031   0.586  13.636   5.193 -0.0591 -0.1345 -0.1820
19185W        W36032   2.073  14.925  14.442  0.4657 -0.2339 -0.2858
19186W        W36033  16.559  18.868  12.077 -0.0410  0.0052 -0.0394
19187W        W36034  19.234   1.505   3.904  0.1404  0.2250 -0.2578
19188W        W36035   8.405  19.247   1.769  0.0391 -0.2029  0.0640
19189W        W36036   0.117   7.700  11.606  0.2822  0.0314 -0.1599
19190W        W36037   9.272  16.514  11.947 -0.1724  0.2815 -0.1407
19191W        W36038  14.377   8.598   0.670  0.0287 -0.0644 -0.0516
19192W        W36039  14.113  19.032  12.352  0.0077 -0.1807 -0.0329
19193W        W36040  10.541   4.104   3.871  0.1535  0.0647  0.1746
19194W        W36041   3.724   8.960   2.448 -0.0788  0.3681  0.0756
19195W        W36042  19.522   9.787   4.855 -0.1263 -0.0994  0.2335
19196W        W36043   1.611  15.339  13.657  0.0692  0.2166 -0.2634
19197W        W36044   7.178  12.000   1.441  0.6280  0.5621 -0.0899
19198W        W36045   3.096   9.758   5.367 -0.4621  0.0168 -0.0571
19199W        W36046  14.853  10.768   0.199 -0.1140  0.0404  0.1312
19200W        W36047  19.338  12.342   2.828  0.2990  0.1945 -0.1010
19201W        W36048  13.009   3.820   2.741  0.1119  0.2801 -0.2894
19202W        W36049   9.562  15.327  12.731 -0.1585  0.0903  0.2568
19203W        W36050   4.629  14.186  13.220  0.1590  0.2750 -0.1896
19204W        W36051  14.147   3.525  10.949  0.2007  0.0116 -0.1294
19205W        W36052   8.320   5.592  10.469  0.1772  0.2799  0.1521
19206W        W36053  13.467  14.031  13.586 -0.0486  0.0320 -0.1189
19207W        W36054   2.402  11.054  12.369 -0.1904  0.0766  0.2297
19208W        W36055   8.518  17.091   0.371 -0.3434 -0.2146 -0.2722
19209W        W36056  11.862  14.934   0.362  0.0076 -0.0942  0.1052
19210W        W36057   1.057   5.161  10.230 -0.4106 -0.1769 -0.1305
19211W        W36058   8.904   0.331  11.856  0.3788  0.1934 -0.1706
19212W        W36059   9.646   4.516   9.420 -0.2392  0.1222 -0.3370
19213W        W36060   9.490   0.178  11.982 -0.2401  0.0909 -0.2624
19214W        W36061   6.015   2.812  10.199  0.0206  0.0879  0.3438
19215W        W36062   6.524  12.622   0.118  0.5179 -0.1066  0.0506
19216W        W36063   8.279   2.275   3.634 -0.0037 -0.3374  0.1367
19217W        W36064   0.704  13.224   0.687  0.0947  0.2209 -0.0104
19218W        W36065   9.569  10.555   0.446  0.4005  0.0481  0.1972
19219W        W36066   3.174   2.085   4.146  0.2411 -0.1231 -0.0372
19220W        W36067   2.510  11.974   4.339  0.0336 -0.1471  0.1863
19221W        W36068  18.364   4.131  11.133  0.0771  0.0339 -0.0966
19222W        W36069  13.652   1.796   3.521  0.1402 -0.2759 -0.3452
19223W        W36070  13.094  13.668  13.670 -0.2368  0.2518  0.2699
19224W        W36071   1.933   7.322  14.523 -0.2442  0.1484  0.0141
19225W        W36072  14.616  18.195   2.838 -0.3081 -0.1018  0.3945
19226W        W36073  12.137   8.416   5.558  0.2926 -0.4780  0.0153
19227W        W36074   8.281  12.704   2.006  0.2020 -0.2664  0.1701
19228W        W36075  12.509   5.325  13.919 -0.0464 -0.0450 -0.1730
19229W        W36076  10.952   7.367  12.558  0.1494  0.0510  0.0126
19230W        W36077  10.403  15.638   4.741 -0.2553  0.0975 -0.2437
19231W        W36078  18.253  19.467  14.303 -0.3753 -0.0589 -0.3702
19232W        W36079  13.574   4.945   1.539 -0.0259  0.0838 -0.3839
19233W        W36080   3.589   9.746  11.800  0.1617  0.0340  0.1341
19234W        W36081  17.947  16.413   4.446 -0.0103 -0.0842 -0.1557
19235W        W36082   1.405   8.690   0.493 -0.0466 -0.2726  0.2060
19236W        W36083   4.380   6.536   4.890  0.0101 -0.1233  0.1756
19237W        W36084  15.333   3.277   3.259  0.4289  0.1484  0.1371
19238W        W36085   0.480  16.185  12.547 -0.0917  0.0564  0.0364
19239W        W36086  16.883   5.510   0.260  0.0004 -0.1216  0.1190
19240W        W36087  12.512  11.615   2.306 -0.2041 -0.0766  0.0944
19241W        W36088   7.728   1.099   3.354 -0.0086  0.1099  0.1693
19242W        W36089  16.993  13.617   0.807  0.0831 -0.0411  0.0436
19243W        W36090  11.615   9.922  13.113 -0.4816 -0.1178 -0.0049
19244W        W36091   0.650  14.016   0.567  0.0857  0.2698 -0.2769
19245W        W36092   6.238  11.594   1.540  0.4126  0.0871  0.0500
19246W        W36093   2.744   7.435   9.646  0.3357  0.1776  0.4074
19247W        W36094   7.985   0.714   3.509  0.1274 -0.2761 -0.2058
19248W        W36095   0.249  17.576   0.490 -0.0015 -0.0445  0.0649
19249W        W36096   9.399  15.544  12.190  0.3632 -0.0408  0.1918
19250W        W36097   9.496   9.174   3.677 -0.0517 -0.1527 -0.0239
19251W        W36098  17.559  18.365  12.446 -0.4644  0.0354 -0.2450
19252W        W36099   8.363  16.429  13.916 -0.1217 -0.4424 -0.0405
19253W        W36100   2.166  12.155   5.838 -0.0239 -0.0757  0.0311
19254W        W36101  13.143  13.603  14.182 -0.0690  0.1583 -0.1961
19255W        W36102  18.016  16.532   0.579 -0.0973  0.2201 -0.1475
19256W        W36103   3.010  18.987   9.520 -0.4424 -0.1935 -0.0042
19257W        W36104   2.338  13.653   2.156 -0.0191 -0.0951  0.1275
19258W        W36105   0.970  10.825  10.959  0.2130  0.1519  0.2472
19259W        W36106  11.594   3.055   2.538  0.0812  0.0886  0.2435
19260W        W36107  17.106  11.658   0.095  0.0187 -0.0735  0.1596
19261W        W36108  18.613  12.771  11.661 -0.0828 -0.1236  0.1236
19262W        W36109   1.673   5.443  13.417  0.0472 -0.2728 -0.0340
19263W        W36110  18.865  13.227   3.003 -0.1461 -0.0032 -0.3949
19264W        W36111  13.057   2.895   5.100 -0.1316 -0.3040 -0.0108
19265W        W36112   1.930  15.457  12.123  0.2428 -0.0662 -0.4173
19266W        W36113  17.549   3.589  10.946  0.0420  0.1020 -0.1976
19267W        W36114  12.939  14.544   3.720  0.0022  0.0470 -0.2355
19268W        W36115  18.900   1.201   3.066 -0.0916  0.1661  0.0594
19269W        W36116   0.415   3.007   9.890  0.3555 -0.1178 -0.2524
19270W        W36117   8.806   1.530  12.538 -0.1856  0.0401  0.1135
19271W        W36118  17.501   9.222  14.355 -0.0907 -0.2199  0.3507
19272W        W36119   7.498   3.667   2.947 -0.2437 -0.1674 -0.0172
19273W        W36120   7.422  18.247  14.463 -0.0824 -0.0860  0.2515
19274W        W36121   7.368  13.067   4.300  0.2636 -0.1764  0.2408
19275W        W36122   6.199  14.522   3.204  0.2144 -0.0324 -0.2227
19276W        W36123   7.660  19.106   3.247 -0.3590 -0.2015  0.0438
19277W        W36124  14.288   9.862   0.935  0.0126  0.0314 -0.1535
19278W        W36125   1.636  19.037  12.166  0.0425  0.1184 -0.2035
19279W        W36126   7.543  16.679   4.010  0.2098  0.4566  0.1398
19280W        W36127   7.320  18.104   4.467  0.2154 -0.2227 -0.1463
19281W        W36128   3.994   5.055   3.944 -0.1758 -0.2127 -0.1737
19282W        W36129   3.729   8.930   4.053 -0.0218  0.1218 -0.0020
19283W        W36130  15.679   7.659   4.722 -0.0771 -0.0753  0.1677
19284W        W36131  19.103  13.145  10.792 -0.0685  0.1468  0.1443
19285W        W36132  19.618   6.571  12.342 -0.1137  0.4550  0.0873
19286W        W36133  10.407  17.110   0.283  0.0730 -0.1881  0.0102
19287W        W36134  17.621  10.603   2.462 -0.0403 -0.1813  0.1199
19288W        W36135  17.067   8.362   4.304 -0.0078 -0.5505 -0.3373
19289W        W36136   5.593  12.186   0.542  0.2476 -0.2638  0.1638
19290W        W36137  14.743   8.440  10.490  0.2250 -0.0356 -0.0043
19291W        W36138   6.799   9.459   4.175 -0.2427 -0.0439  0.1911
19292W        W36139   8.142  18.279   2.517  0.0606  0.1526 -0.0430
19293W        W36140  18.331   2.056  10.932 -0.2414  0.1196  0.1447
19294W        W36141   6.565  16.223   0.641  0.1619  0.0098 -0.0031
19295W        W36142  12.372  12.205  11.131  0.4493  0.1447  0.0100
19296W        W36143   1.108  18.138  11.398  0.0632  0.2018  0.2203
19297W        W36144   2.513   7.172  10.667  0.0442  0.1281 -0.1447
19298W        W36145   1.439  15.995  11.542  0.1138 -0.2686  0.2665
19299W        W36146   1.313  15.233   4.502 -0.0704  0.1904  0.1843
19300W        W36147   7.952  15.446   1.414  0.0323  0.3052  0.0006
19301W        W36148   3.766  18.368   2.947  0.0787 -0.1672  0.1337
19302W        W36149   9.443   2.741  12.705  0.2316  0.1392  0.4821
19303W        W36150   7.723   9.940  10.950  0.0177 -0.0534  0.1152
19304W        W36151   4.463  10.330  13.713 -0.0939  0.1890 -0.1003
19305W        W36152   8.956  17.746   0.858  0.2542 -0.0964  0.0125
19306W        W36153   3.890  19.270  12.736 -0.0373 -0.0313  0.1675
19307W        W36154   4.566  14.220  13.850  0.1518  0.0757 -0.0698
19308W        W36155   7.245  13.884   3.664 -0.0060  0.5523  0.1809
19309W        W36156  15.609  15.794   3.502  0.1048 -0.3310 -0.3349
19310W        W36157   9.577   5.864   3.397 -0.1274 -0.1551  0.2122
19311W        W36158  16.196  19.452   3.444  0.1529  0.0671  0.4614
19312W        W36159  15.198   6.920   0.117  0.1271 -0.0325 -0.2110
19313W        W36160   6.595  18.401  11.085 -0.2535 -0.2000 -0.0112
19314W        W36161  11.630   3.716   3.282  0.1325 -0.1684  0.0145
19315W        W36162  12.127  12.239  14.219 -0.1408  0.0200  0.3398
19316W        W36163   4.036  17.374  13.329 -0.0969  0.0240  0.0574
19317W        W36164  10.134   8.745  10.956 -0.1128 -0.0045  0.3037
19318W        W36165  16.270  12.042   1.780  0.0254 -0.2113 -0.2752
19319W        W36166   4.201   2.067   0.018 -0.2109  0.0736  0.1545
19320W        W36167  11.711  18.553  10.314  0.1750  0.2097 -0.1013
19321W        W36168   1.588   0.094   0.138 -0.1792  0.0094 -0.3813
19322W        W36169  18.113  12.804   0.285 -0.0786 -0.1357 -0.0723
19323W        W36170  15.239   8.434  12.849  0.0301 -0.0478  0.1330
19324W        W36171  12.501  14.289   3.901 -0.1479 -0.2416 -0.0275
19325W        W36172   8.386  19.227  12.161 -0.3038  0.1967  0.3010
19326W        W36173  16.001  14.150   9.173  0.0103 -0.3490 -0.3063
19327W        W36174  17.355  16.327  14.442  0.1938  0.0312  0.2695
19328W        W36175  15.653   7.311  11.715  0.1684  0.2992 -0.1406
19329W        W36176   7.096  16.327  13.471 -0.0319 -0.1012  0.2217
19330W        W36177  10.996  17.501  12.832  0.0944  0.1531  0.0906
19331W        W36178   3.000   3.670   4.085  0.1123 -0.3004  0.0073
19332W        W36179   5.844   5.496   5.208 -0.5583  0.1591 -0.0588
19333W        W36180   6.815  16.276   1.714  0.0500 -0.0768 -0.2119
19334W        W36181   0.233   8.083  12.601  0.1913 -0.2203 -0.2448
19335W        W36182  14.743   4.036   0.993 -0.0690  0.1711  0.0763
19336W        W36183  18.436  10.407   1.433 -0.3048  0.0276 -0.0881
19337W        W36184   8.920  10.835  11.945  0.0994 -0.1106  0.0018
19338W        W36185  17.963   9.946  11.986  0.0402  0.2127  0.1887
19339W        W36186  19.606  18.746   3.050 -0.1365 -0.0953  0.1030
19340W        W36187  11.737   4.691   3.673  0.0090  0.0194  0.3178
19341W        W36188  10.114   7.687  13.405  0.0103 -0.4042  0.0241
19342W        W36189   1.169   4.459   0.924 -0.0750  0.0490 -0.0561
19343W        W36190   1.838  12.361  11.071 -0.1370 -0.1324  0.1300
19344W        W36191   1.522  18.980  14.237 -0.2131  0.1589 -0.2838
19345W        W36192   4.061   7.622  13.796 -0.0001  0.1451 -0.0267
19346W        W36193  11.423  15.423   2.238 -0.0275  0.2516 -0.0835
19347W        W36194   7.019   0.884   3.520  0.0072  0.0829  0.2581
19348W        W36195  14.091   7.962   5.141  0.0452 -0.0112  0.1790
19349W        W36196   2.370   7.145  14.436 -0.0699  0.0904  0.1714
19350W        W36197   6.894   2.064   1.521  0.2205  0.3232 -0.0184
19351W        W36198  13.651  16.761   1.520  0.4135 -0.0169 -0.0356
19352W        W36199   4.915  17.977   3.027  0.0833 -0.1417  0.0116
19353W        W36200   3.143   5.589   1.445 -0.0237  0.1139  0.0217
19354W        W36201  10.268   7.291   0.124  0.1791 -0.0202 -0.1306
19355W        W36202   7.207  14.812  11.303 -0.0395  0.3200  0.0110
19356W        W36203  15.864   4.032  12.020  0.2637 -0.1663 -0.2084
19357W        W36204   1.719   8.540   4.679 -0.0468 -0.1800 -0.2066
19358W        W36205  12.938  18.115   2.535  0.0362 -0.2769  0.1972
19359W        W36206  15.120  15.039   3.793 -0.0625 -0.1194 -0.1511
19360W        W36207   8.757  16.186   9.903 -0.0471 -0.1760  0.2649
19361W        W36208   1.796   8.270  10.700 -0.0759 -0.1612 -0.2428
19362W        W36209  12.187   8.547   2.811 -0.3772 -0.0466 -0.3851
19363W        W36210  13.269   5.170  11.877 -0.0347  0.3781  0.2402
19364W        W36211  15.159  13.325   9.995  0.2041 -0.0713 -0.2312
19365W        W36212   7.542   2.961   3.667  0.0007  0.0901  0.2656
19366W        W36213  17.613  13.629   5.694 -0.0481  0.0700  0.1753
19367W        W36214  19.414   7.323   2.996 -0.0881  0.0172  0.0011
19368W        W36215  15.449   7.649   2.705  0.2218 -0.0074 -0.1341
19369W        W36216  12.265  13.214   2.674 -0.2675 -0.1333  0.4584
19370W        W36217   0.279  13.939  10.649 -0.0616  0.2088  0.1019
19371W        W36218   4.271  15.940  12.169 -0.2399 -0.0359 -0.0610
19372W        W36219   1.673  11.111   3.448  0.1485 -0.0354  0.0055
19373W        W36220   2.402  16.462  13.445  0.1752  0.1955  0.2309
19374W        W36221  14.847   4.048  10.327  0.0491 -0.1018  0.2275
19375W        W36222  10.459   2.541  10.778 -0.0953  0.0786 -0.0532
19376W        W36223   0.404  12.199  13.396  0.2832 -0.2309 -0.1483
19377W        W36224  15.193   0.634   3.699  0.0611 -0.2398 -0.3107
19378W        W36225  17.753  16.484   1.880 -0.0688  0.0976  0.2631
19379W        W36226   3.314   1.668   2.325  0.0765 -0.3284  0.2490
19380W        W36227   9.538  13.009  14.083  0.1803  0.0650 -0.1814
19381W        W36228  18.475   8.966   3.789  0.1360  0.3762 -0.1548
19382W        W36229  10.461  14.308  11.269  0.1596  0.0773  0.0451
19383W        W36230  11.328  15.926  12.494  0.1844  0.2155  0.0067
19384W        W36231  13.250   7.567   2.747 -0.0164 -0.0235 -0.1950
19385W        W36232  14.300  11.721  10.777 -0.1447 -0.4300  0.0908
19386W        W36233   5.129  19.166   5.037 -0.1471 -0.0752  0.0814
19387W        W36234  14.968  18.423   0.304 -0.1143 -0.3999  0.1316
19388W        W36235  16.207   2.088   4.479 -0.3164 -0.3990 -0.1485
19389W        W36236  18.638   7.513   2.447 -0.4486 -0.3455  0.0304
19390W        W36237  13.704  19.589   9.395  0.0245 -0.1835  0.3063
19391W        W36238   8.985  14.402   0.095 -0.2001  0.0349 -0.1636
19392W        W36239   6.769   2.188   4.340 -0.0675  0.0900  0.1237
19393W        W36240   7.634  16.666   0.046  0.3469 -0.2193 -0.0587
19394W        W36241   1.996   3.486  11.332  0.3966 -0.0110 -0.2689
19395W        W36242  10.148   3.704  11.995  0.3013  0.2279  0.1337
19396W        W36243  11.587  10.729  11.796 -0.0895 -0.0261 -0.0516
19397W        W36244   9.080  18.299   2.058  0.2730 -0.1682 -0.1051
19398W        W36245  17.190  16.085  12.760  0.1383 -0.1732  0.0782
19399W        W36246  13.079   6.336  12.901 -0.2246  0.4258  0.2852
19400W        W36247   8.314   3.922  11.181 -0.5096 -0.0057 -0.5503
19401W        W36248  10.854   1.440  11.690 -0.2352 -0.0876 -0.2214
19402W        W36249   5.911   8.576   1.676 -0.1832  0.0351  0.0022
19403W        W36250   7.529  11.465   3.340 -0.1401 -0.3409 -0.1512
19404W        W36251  18.294   8.922  10.965 -0.3218 -0.0178 -0.2947
19405W        W36252   8.787  14.970  11.861 -0.0331 -0.2777 -0.1424
19406W        W36253   5.205  14.779  10.411 -0.3494  0.1177 -0.0644
19407W        W36254   2.239  14.508  12.334 -0.0334 -0.1183  0.0234
19408W        W36255   6.676  16.929  13.384  0.0265 -0.0781  0.1570
19409W        W36256  14.941  14.349  14.422 -0.0542  0.0856  0.1478
19410W        W36257  19.548   7.842   0.583 -0.0018 -0.2596  0.3085
19411W        W36258   5.151  16.772   4.833 -0.2767  0.1116  0.0277
19412W        W36259  17.509  17.481  11.578 -0.0415 -0.0212 -0.1583
19413W        W36260  13.479   3.938   9.426 -0.0670  0.0580  0.3032
19414W        W36261  12.072  12.617   2.037  0.1705  0.4993  0.0738
19415W        W36262  10.781  10.924  11.866  0.1181 -0.3196 -0.1066
19416W        W36263   4.808  15.782  13.439 -0.0280  0.0061  0.1678
19417W        W36264   8.486  10.380   3.367  0.1924 -0.3407  0.2360
19418W        W36265  12.424  15.740   1.796 -0.0019 -0.1930 -0.0276
19419W        W36266   3.795   5.909   0.680  0.2862  0.4046 -0.0574
19420W        W36267  13.028   9.471  12.510 -0.3380  0.1857  0.1172
19421W        W36268   9.019   2.022  14.305  0.0091  0.0959 -0.1093
19422W        W36269  11.495   3.462   2.874  0.2017 -0.0174  0.1317
19423W        W36270   5.189   9.511   9.956 -0.0726 -0.4053  0.2276
19424W        W36271   8.223   9.398  10.410  0.5130 -0.1418  0.1967
19425W        W36272   4.145  10.299   5.778 -0.4163  0.0001 -0.0246
19426W        W36273  18.247   9.308   4.088  0.4636 -0.0873 -0.0589
19427W        W36274   1.086  17.006   1.000 -0.1317  0.1306  0.1751
19428W        W36275  13.599   1.377  13.852  0.1096  0.0562  0.1539
19429W        W36276  12.992   0.187  10.040  0.2208 -0.0471  0.5902
19430W        W36277   9.913  10.289  13.612 -0.1552 -0.0335 -0.1037
19431W        W36278  15.703   3.578   3.060  0.0724  0.1056 -0.1886
19432W        W36279   5.715  15.484  14.320  0.1102 -0.0817 -0.0631
19433W        W36280  17.784   7.518  10.911  0.1550 -0.2412 -0.0174
19434W        W36281  17.528   2.721   0.542 -0.6137 -0.4647 -0.1018
19435W        W36282   7.391   7.596  12.954 -0.2578  0.0404  0.0146
19436W        W36283   0.802  13.077  10.806 -0.0974  0.7775 -0.0589
19437W        W36284  11.090   8.955  13.604  0.0422  0.1949  0.1056
19438W        W36285  17.484   4.426   4.463 -0.1767  0.0467  0.1054
19439W        W36286  12.687   0.223   4.520  0.3528 -0.0729 -0.0253
19440W        W36287   7.146   7.409  10.707  0.0487 -0.1319  0.1573
19441W        W36288  17.923   1.251   0.145  0.3532 -0.1035 -0.0155
19442W        W36289   6.857  12.386  12.296 -0.2198 -0.0413  0.2147
19443W        W36290  17.518   0.031   2.960  0.1335  0.0835  0.1949
19444W        W36291  18.457  15.722   0.491 -0.1777  0.1765  0.1981
19445W        W36292   3.778  10.331   1.459 -0.0546  0.1395 -0.2230
19446W        W36293   4.756  10.529   1.859  0.2794 -0.0059  0.3596
19447W        W36294   7.682  13.965   0.525 -0.1390  0.2253  0.0492
19448W        W36295   1.705   8.121  13.953 -0.2607  0.2975  0.0797
19449W        W36296  16.768  18.271   9.480 -0.2440  0.0171  0.0607
19450W        W36297   3.828  11.731   4.418  0.2578  0.1109 -0.1856
19451W        W36298  18.493  16.778  12.593 -0.0593  0.0311  0.1400
19452W        W36299  13.825   1.554   4.104  0.0898  0.1722 -0.3937
19453W        W36300   8.592  15.836  10.872 -0.0945 -0.0501  0.2523
19454W        W36301   6.612  14.863  10.016 -0.3713 -0.2050  0.0905
19455W        W36302   8.486   4.381  11.367 -0.2346 -0.1180 -0.0518
19456W        W36303   4.331   8.956   2.344 -0.0130  0.0668  0.1354
19457W        W36304   6.786  14.708  13.602  0.0293 -0.1617  0.0547
19458W        W36305   4.269   1.548  14.512 -0.4457 -0.2273  0.3016
19459W        W36306  13.733  18.514   2.178  0.1302  0.3407  0.1604
19460W        W36307  16.092   1.643   3.500 -0.0288 -0.0069 -0.1930
19461W        W36308  15.564  12.675   0.370 -0.0404  0.4140 -0.1125
19462W        W36309  11.279  16.536  11.745 -0.1268 -0.3365  0.0145
19463W        W36310  13.321   6.944   1.427 -0.0677  0.3060 -0.0130
19464W        W36311  14.713  13.722   2.195 -0.1259 -0.0228 -0.1129
19465W        W36312   6.954  19.131  13.881 -0.0668  0.1678 -0.0636
19466W        W36313  14.380  13.333   9.684  0.0884  0.1108  0.0988
19467W        W36314  13.292  14.735   1.000 -0.1707  0.2162  0.1432
19468W        W36315   9.625  18.516   4.477 -0.4574 -0.1271  0.4311
19469W        W36316  16.792   9.508  12.879 -0.0205 -0.2487 -0.0962
19470W        W36317  18.886   8.945   0.486 -0.1908  0.0762 -0.2069
19471W        W36318   6.948  16.109  14.040  0.3321  0.2222 -0.1160
19472W        W36319  12.666  16.247   4.388 -0.1115  0.4523  0.0626
19473W        W36320   2.730   8.977   0.118  0.0567 -0.0524  0.3850
19474W        W36321  11.816  17.281  12.972  0.6503 -0.0333 -0.0545
19475W        W36322  15.459   9.153  14.071 -0.0966 -0.1061  0.0940
19476W        W36323  16.029   9.277   0.347  0.1304 -0.0998 -0.0055
19477W        W36324   2.872  10.282   2.997  0.0134 -0.0738  0.4195
19478W        W36325  15.810  11.773  10.791  0.5190 -0.0279 -0.0023
19479W        W36326   0.723  11.577   9.886  0.1234  0.0995 -0.0200
19480W        W36327   6.148  14.195  14.585 -0.2047  0.0714  0.0472
19481W        W36328  17.194   1.223   2.151  0.4180 -0.0203 -0.2641
19482W        W36329   8.138  12.521   5.423 -0.0761  0.2359 -0.0715
19483W        W36330   5.137   4.093   2.028 -0.2353  0.1025  0.1646
19484W        W36331   1.825  17.303   1.436  0.2390  0.3433 -0.2214
19485W        W36332  13.597  19.037  13.125 -0.1038  0.2364 -0.0097
19486W        W36333   6.849   8.805  11.756  0.1414 -0.2623 -0.2826
19487W        W36334  10.102   1.409   4.769  0.0762 -0.0908  0.1281
19488W        W36335  12.045   5.156  10.285 -0.0211  0.2580  0.3431
19489W        W36336   2.816  18.074  12.048  0.1627 -0.1287  0.1387
19490W        W36337  13.546   6.842  11.298 -0.0037  0.1974  0.1832
19491W        W36338   2.116  18.379  11.493 -0.2168 -0.0296  0.0122
19492W        W36339  14.180  17.407   1.055  0.0159  0.0994  0.0514
19493W        W36340  16.270  19.536  11.245  0.1971  0.0371  0.1223
19494W        W36341   4.433   9.039  10.309 -0.0619 -0.2978  0.0304
19495W        W36342   0.383   1.207  10.726 -0.0735 -0.0732 -0.2215
19496W        W36343  19.335  13.281  10.283  0.1054 -0.4904 -0.1511
19497W        W36344   8.005  17.894   1.255 -0.2036 -0.0561 -0.2912
19498W        W36345  11.571  19.534   3.355 -0.1909 -0.1333 -0.0183
19499W        W36346  14.003  11.568  10.351 -0.1359 -0.3800  0.2103
19500W        W36347  10.196   1.634  10.663 -0.1236  0.0221  0.0043
19501W        W36348   9.395   1.289   3.734  0.3387  0.0084  0.0147
19502W        W36349  15.439  10.726  11.410 -0.0509  0.1727  0.0980
19503W        W36350   3.457   8.578   4.695  0.1839  0.2770 -0.2234
19504W        W36351   1.819  15.680   3.002  0.0623  0.0861  0.0543
19505W        W36352  12.757   3.144  11.917  0.0934 -0.0460  0.0114
19506W        W36353   1.445   7.238  11.598  0.1018 -0.0376  0.1365
19507W        W36354   1.832  10.915  11.777  0.0605 -0.0185  0.0032
19508W        W36355   0.222  15.775   0.118 -0.2470  0.1171  0.3926
19509W        W36356  18.366   1.461   3.138  0.0593 -0.1102 -0.0891
19510W        W36357   5.873  11.880   0.797  0.0247  0.0617 -0.2280
19511W        W36358   8.834   4.845  14.067  0.0237 -0.1339  0.2388
19512W        W36359  15.644  17.447   0.221  0.0484 -0.0286 -0.1531
19513W        W36360   4.297   6.147  14.610  0.0844 -0.0113 -0.0614
19514W        W36361   1.165   3.739   4.080 -0.1778 -0.0348 -0.2810
19515W        W36362  10.243  18.870  13.823  0.1726  0.1881  0.0257
19516W        W36363  16.821  18.940   3.455 -0.0956 -0.0432 -0.3014
19517W        W36364  13.729   6.955  10.520 -0.2745  0.5655  0.1259
19518W        W36365   3.281  13.692  11.161  0.0782 -0.3361  0.2945
19519W        W36366  11.294  13.032  11.438 -0.1782  0.3273  0.0648
19520W        W36367  10.415   6.496  12.326  0.0865 -0.0702 -0.0092
19521W        W36368   2.919  17.100   2.615 -0.1756  0.0759 -0.0600
19522W        W36369   6.194   3.088  11.161  0.0991 -0.3742  0.3930
19523W        W36370  11.033   4.986   1.865  0.1882 -0.2484  0.1348
19524W        W36371   9.563  12.390   3.738 -0.0982  0.1153  0.0481
19525W        W36372  18.954   2.059   4.722 -0.1461 -0.3370 -0.1795
19526W        W36373  11.965   7.103  11.364 -0.4547 -0.1383 -0.2116
19527W        W36374  10.991   1.585   9.638 -0.0102 -0.0437  0.1169
19528W        W36375  11.780   8.911   0.891 -0.2384 -0.0249 -0.0795
19529W        W36376   9.271   0.890  11.231 -0.1000 -0.0200 -0.0387
19530W        W36377   7.380   0.712   0.547 -0.2515  0.2689 -0.1318
19531W        W36378   4.570  18.647   3.912 -0.1383 -0.0125 -0.1914
19532W        W36379   2.897   9.227  12.843 -0.0655  0.0565 -0.0254
19533W        W36380  12.449  17.831   1.391  0.0154 -0.1259 -0.0096
19534W        W36381   6.798  10.178  10.784 -0.2542 -0.1840  0.2145
19535W        W36382   9.755   2.725  14.392  0.0433 -0.3273 -0.3794
19536W        W36383   2.076   1.956   1.070  0.1145  0.1438  0.3867
19537W        W36384  17.234  14.574   2.869  0.1715 -0.2323 -0.0415
19538W        W36385   3.540  19.277   3.442 -0.0380 -0.0723  0.1151
19539W        W36386  17.332   9.512   5.174  0.1414 -0.1001 -0.0491
19540W        W36387  16.952   1.145  14.476  0.2710  0.1677 -0.0183
19541W        W36388  12.097   2.910   2.366  0.0606  0.0007 -0.0418
19542W        W36389  10.898  15.279   3.603 -0.1798 -0.2051  0.1875
19543W        W36390   0.558   9.741  13.624 -0.1175  0.0143 -0.2235
19544W        W36391   6.458  15.433  10.902  0.4305  0.0232 -0.0195
19545W        W36392   1.594  17.067   5.426  0.1131  0.1468  0.0695
19546W        W36393   3.516   9.370   5.202  0.1630  0.2467  0.0363
19547W        W36394   4.293  15.482  14.178  0.1344  0.0764  0.0658
19548W        W36395  17.780   1.526  11.860  0.0724  0.1817  0.1449
19549W        W36396   7.349  12.348   0.644 -0.0223 -0.2361  0.0119
19550W        W36397   4.115   4.369  11.193  0.2276 -0.4475  0.1266
19551W        W36398   4.537   2.388   4.686 -0.0716  0.2192 -0.0838
19552W        W36399  12.904  15.068  11.667 -0.0719  0.0499 -0.1686
19553W        W36400  17.959  14.880  13.048  0.0656 -0.2907  0.1420
19554W        W36401   5.170  13.680  11.362  0.1632  0.0293 -0.4635
19555W        W36402   5.645   1.513  12.685 -0.2712 -0.1373 -0.1186
19556W        W36403   2.804   7.463  14.551 -0.0932  0.1666 -0.0358
19557W        W36404   5.127   4.765   1.965 -0.0174 -0.3626 -0.3603
19558W        W36405  12.176   7.861  13.447  0.2227 -0.1013 -0.1070
19559W        W36406  19.196   1.487  11.045  0.0972 -0.1876  0.2629
19560W        W36407  14.990  15.246  10.936 -0.0099  0.0272 -0.0746
19561W        W36408  12.469  18.281   2.733  0.1192  0.3157 -0.1406
19562W        W36409  11.807   4.606   3.198  0.0761 -0.1332  0.3186
19563W        W36410  12.241  15.923   4.436 -0.3365 -0.1582  0.0404
19564W        W36411   4.748  18.503  14.308  0.4166 -0.1301  0.0098
19565W        W36412  13.063   7.181  11.752  0.2501 -0.2461 -0.2660
19566W        W36413   0.958   5.334   1.158 -0.2379 -0.2556  0.2529
19567W        W36414  15.362   7.009   3.660 -0.2652 -0.1044  0.0308
19568W        W36415  17.615   6.465  14.219 -0.0924 -0.1144  0.0684
19569W        W36416   4.013  19.404  10.696 -0.2467  0.0062  0.0681
19570W        W36417   7.534   5.604   9.817 -0.1087 -0.4594  0.0906
19571W        W36418   3.182   4.221   4.094 -0.0945  0.0620 -0.0052
19572W        W36419  16.349   4.683   4.661 -0.0490 -0.0482  0.1932
19573W        W36420  17.159   8.120   1.254 -0.0753  0.0795  0.3197
19574W        W36421   6.051   8.437   4.061 -0.0296 -0.1003 -0.0645
19575W        W36422   0.785   3.287  12.714  0.3213  0.0424  0.1461
19576W        W36423  11.525  13.930  14.247  0.1028  0.0312  0.1491
19577W        W36424  10.802  13.313  13.993 -0.1916  0.1026  0.3376
19578W        W36425   3.597  11.439   1.291 -0.0451 -0.2990 -0.1206
19579W        W36426  12.512   7.684  11.157 -0.0692 -0.0980 -0.0318
19580W        W36427   2.956   3.113  10.451  0.2816  0.2237  0.0725
19581W        W36428   5.893  14.483   2.706  0.3133 -0.1036  0.0314
19582W        W36429   8.004  15.059  14.585 -0.0021 -0.1253  0.2159
19583W        W36430  16.087  14.491  11.343 -0.2257 -0.2719  0.2258
19584W        W36431   4.323   8.735  13.060 -0.1153 -0.3230  0.2997
19585W        W36432  17.436   0.488   2.864  0.2833 -0.2272 -0.0436
19586W        W36433   2.377   2.848   2.595  0.2905  0.2246  0.0234
19587W        W36434  13.561   5.002  12.239  0.2123  0.0017  0.0484
19588W        W36435  15.587  13.832   5.544 -0.3255  0.0405 -0.0058
19589W        W36436  15.300   6.964   5.874 -0.0463  0.1912  0.0370
19590W        W36437  18.943   3.833  12.879 -0.2171 -0.1847  0.2805
19591W        W36438  14.797   3.271   4.987 -0.3733  0.1133  0.0959
19592W        W36439   8.605   4.057  10.517 -0.1855  0.0999 -0.1353
19593W        W36440  11.210   2.642  13.973 -0.0300  0.0870 -0.1610
19594W        W36441   4.172   2.188   2.860 -0.4109  0.1483 -0.0188
19595W        W36442  13.528   9.610   4.290 -0.0795 -0.0078 -0.0793
19596W        W36443   7.980  16.436  10.697  0.0232  0.4986 -0.3506
19597W        W36444   8.522  11.649  10.131 -0.0162 -0.1213 -0.2830
19598W        W36445   1.251  11.517  13.593  0.3512 -0.0798  0.0894
19599W        W36446  13.068   7.874   0.629 -0.1599 -0.3709  0.1204
19600W        W36447  14.296  14.704  13.288 -0.2873 -0.0767 -0.1009
19601W        W36448   3.252  10.161   5.643 -0.0495 -0.1583  0.1974
19602W        W36449  10.714   8.075  14.360  0.2815  0.0456 -0.0055
19603W        W36450   7.369   3.590   3.842 -0.1153  0.1451 -0.2222
19604W        W36451  17.583  19.087   1.010  0.0259  0.1557 -0.1401
19605W        W36452   0.417   7.668  13.254 -0.1770  0.2436 -0.0175
19606W        W36453   9.444   4.736  12.943 -0.1058 -0.0619 -0.1533
19607W        W36454  10.057   4.703  12.592 -0.0255 -0.3155 -0.0275
19608W        W36455  14.892   8.893  10.557 -0.1161  0.0001  0.3425
19609W        W36456  13.069   0.675   4.276  0.1083 -0.3311  0.0017
19610W        W36457   1.215  11.915   3.009  0.0106 -0.1652 -0.4539
19611W        W36458   1.359   8.156   0.358  0.0957  0.1534 -0.0174
19612W        W36459   6.034   1.323   2.703 -0.1997  0.0783 -0.0586
19613W        W36460   0.823  11.720  11.993 -0.3046 -0.0374 -0.0295
19614W        W36461   7.995   7.877  13.953 -0.0898  0.0407  0.4248
19615W        W36462  10.361   2.298   2.977  0.0346 -0.0131 -0.0421
19616W        W36463   9.240  12.642   1.629  0.2883 -0.1530 -0.0528
19617W        W36464   0.864  16.534  11.772  0.2458  0.2264  0.0304
19618W        W36465  16.757   9.030   4.657 -0.0078  0.0203 -0.0511
19619W        W36466   9.075   7.883  13.839  0.0932  0.2320  0.1101
19620W        W36467   4.392   3.017   2.384 -0.0992 -0.0604  0.1434
19621W        W36468   0.039   4.028   2.819  0.0637 -0.1514  0.1552
19622W        W36469  18.487   5.056   4.850  0.1551 -0.2391  0.2413
19623W        W36470  10.639   4.169  12.957  0.1090  0.3844 -0.2428
19624W        W36471  13.009  11.638   2.136 -0.0670  0.0484  0.0924
19625W        W36472  17.681   6.203   2.173  0.1956  0.0917 -0.1944
19626W        W36473   9.310   6.459   2.015 -0.0105 -0.0895 -0.0740
19627W        W36474  16.795  17.493  11.923 -0.0562 -0.1029  0.1101
19628W        W36475  15.777  14.736   3.311  0.1191 -0.0943 -0.2718
19629W        W36476  19.611  14.482   0.484 -0.0079 -0.1749  0.1871
19630W        W36477  11.051  18.857   1.864 -0.1487 -0.1596 -0.0963
19631W        W36478  11.595   6.331  13.726 -0.0537 -0.0876 -0.2454
19632W        W36479  18.524   4.005   1.390 -0.0546  0.1325  0.0381
19633W        W36480  11.838   1.949   4.701  0.0487 -0.2316  0.0167
19634W        W36481   4.280   4.295  14.503 -0.2166  0.1382 -0.1345
19635W        W36482   2.067   1.920  12.769  0.0514 -0.0131 -0.1881
19636W        W36483  15.548  15.773  13.472  0.3766  0.1424  0.2714
19637W        W36484   2.127  15.233   0.307 -0.2147 -0.1105 -0.2397
19638W        W36485   8.447   6.713   0.568  0.0426 -0.0597 -0.0581
19639W        W36486  11.306  14.591  14.016  0.1451  0.1012  0.1126
19640W        W36487  14.058  19.412   3.869 -0.3692 -0.0112 -0.2927
19641W        W36488   7.230  13.166  11.985  0.0789  0.0511 -0.0143
19642W        W36489   8.039   1.554  13.053  0.0971 -0.2275 -0.0235
19643W        W36490  10.528  13.635   4.275 -0.0277 -0.2433  0.0397
19644W        W36491  19.126  18.508   4.456  0.1714 -0.2941  0.0011
19645W        W36492  16.684  17.283   3.851 -0.0105 -0.0872  0.3588
19646W        W36493   4.966   2.310   5.265  0.0862  0.0816  0.4569
19647W        W36494   9.604   5.652  11.529 -0.0614  0.0843  0.2049
19648W        W36495   2.565  17.125   4.089  0.0892  0.1187  0.2765
19649W        W36496   9.294   0.791   3.636 -0.3586 -0.2293 -0.3212
19650W        W36497  10.567   7.071   2.353  0.2182  0.0514  0.2298
19651W        W36498  18.226   8.910   1.642 -0.1394 -0.3151  0.1854
19652W        W36499   7.696   0.941   2.825  0.1266  0.1973 -0.3038
19653W        W36500   0.598   5.062   1.521 -0.2388  0.1218  0.0957
19654W        W36501   2.610   2.031   0.507  0.1463 -0.1751  0.2072
19655W        W36502  18.477   1.630   3.993  0.0502 -0.0604 -0.3802
19656W        W36503   8.908  18.262  11.406  0.1105 -0.1213 -0.1130
19657W        W36504  19.331  13.189   1.611  0.0131 -0.0658  0.1803
19658W        W36505   4.482  12.801  13.273 -0.4643 -0.1132 -0.0546
19659W        W36506   7.825  18.776   0.708 -0.0109  0.0920  0.0732
19660W        W36507   4.620   7.955   5.478  0.2039 -0.0984 -0.0084
19661W        W36508   8.448  18.444   9.670  0.1934 -0.2077 -0.2860
19662W        W36509   9.803  12.174   1.149  0.0471  0.0788  0.0043
19663W        W36510   8.322   9.579   3.324  0.0421 -0.0046 -0.0075
19664W        W36511   2.296   7.666   3.901 -0.0932  0.3540  0.0428
19665W        W36512  11.567   9.240   9.058 -0.0489 -0.2440 -0.0452
19666W        W36513  10.505  16.114   4.816  0.2093  0.1410  0.3250
19667W        W36514  15.712   0.279  12.591 -0.2334 -0.1594  0.3115
19668W        W36515  14.558   5.829  13.570 -0.0317  0.1307  0.0699
19669W        W36516  16.110  17.524  13.031  0.0292 -0.0776 -0.1286
19670W        W36517  10.851   1.210  12.559 -0.0597 -0.0581  0.1142
19671W        W36518   2.277   6.836  10.221 -0.0911 -0.0354 -0.1371
19672W        W36519  12.401   3.224  14.145  0.1403 -0.0019  0.0040
19673W        W36520  12.304   3.250   0.434  0.0660 -0.3580  0.2938
19674W        W36521  14.431   0.504   0.104  0.2561 -0.2684 -0.0145
19675W        W36522  10.969   2.600   1.510  0.0748 -0.2047  0.1195
19676W        W36523  12.120  13.287  11.669 -0.1626  0.0796  0.1690
19677W        W36524   1.435  16.317   0.526  0.0890  0.2273 -0.0558
19678W        W36525   1.540  16.660   3.629 -0.0037  0.2199  0.0585
19679W        W36526   1.479  17.834  12.915  0.0710 -0.0024  0.0285
19680W        W36527  10.635   2.500  13.530  0.1615 -0.2946 -0.0911
19681W        W36528   8.191  11.943   0.008  0.0364  0.1415 -0.1850
19682W        W36529  18.604   1.925   3.607 -0.0685 -0.1654  0.1582
19683W        W36530  19.320  14.745   1.449 -0.0763  0.0852  0.2475
19684W        W36531  12.162  15.472   4.767 -0.0051 -0.1632 -0.3708
19685W        W36532   4.564  14.620  13.616 -0.3413 -0.1890  0.2527
19686W        W36533   5.602   4.349   0.684  0.1111  0.0391  0.1182
19687W        W36534  12.774   8.512   2.269 -0.0099 -0.0769 -0.1105
19688W        W36535   9.661   4.316  12.662 -0.1124 -0.1693  0.0764
19689W        W36536  17.981   1.660  14.152  0.0830 -0.0409  0.1629
19690W        W36537  16.347   5.789   2.128  0.2751  0.2610 -0.1980
19691W        W36538  17.911   2.253  14.337 -0.0596  0.1269 -0.1666
19692W        W36539  15.595   8.694  13.138  0.4116 -0.2354  0.0160
19693W        W36540  13.256   7.827   2.295  0.1627  0.4336 -0.2624
19694W        W36541   2.949  16.611   2.862  0.1784  0.0218  0.0561
19695W        W36542   6.845   7.011  13.403 -0.3423  0.1254 -0.0245
19696W        W36543   9.491  11.784   0.213 -0.0446 -0.2366  0.1267
19697W        W36544   6.059  16.359  10.246 -0.2650  0.1434 -0.0885
19698W        W36545   6.968   2.496   4.718  0.0310  0.0762 -0.0872
19699W        W36546  19.274   4.489   0.075  0.0941 -0.3400 -0.2094
19700W        W36547   8.861  16.176   0.408  0.1438 -0.0185 -0.0445
19701W        W36548   8.964   6.877   5.069 -0.1280 -0.0262 -0.4284
19702W        W36549   5.039   2.732   2.982 -0.0833  0.3952 -0.3083
19703W        W36550   2.422  14.160   0.689  0.2084  0.1552 -0.1088
19704W        W36551   6.219  14.289   2.410 -0.3652 -0.1435  0.1088
19705W        W36552  13.117   0.367  10.482  0.0883 -0.0631 -0.4367
19706W        W36553  15.779  10.686   4.204 -0.1044  0.1004  0.1544
19707W        W36554   9.652  16.190  10.045  0.4090 -0.0616  0.1920
19708W        W36555   2.604   8.584   1.347  0.0631  0.2014 -0.0978
19709W        W36556   5.125  11.760  12.146  0.0234  0.0264  0.3820
19710W        W36557   1.898   1.673   0.341 -0.1424  0.2203  0.1352
19711W        W36558   4.267   6.325  13.933 -0.1707  0.3874 -0.0165
19712W        W36559   3.055   4.721  12.427 -0.1220  0.1808  0.3625
19713W        W36560  11.285  14.482   0.386  0.1790  0.3212 -0.1583
19714W        W36561   2.364  12.930  12.672  0.0466  0.1187  0.2271
19715W        W36562   1.897  14.990   4.895  0.1165  0.1808  0.0615
19716W        W36563   7.996   6.363  11.414 -0.0722  0.1262 -0.0054
19717W        W36564  16.248  16.485  10.537 -0.1293  0.0788 -0.3257
19718W        W36565  13.013  12.731   0.591 -0.0827  0.1773  0.0557
19719W        W36566  15.288   6.031  13.201 -0.2983 -0.3166 -0.1925
19720W        W36567  16.628  15.596   3.250 -0.1190  0.0471 -0.3414
19721W        W36568   4.922  15.000  13.491  0.3631 -0.0629  0.0461
19722W        W36569  10.502   0.361   2.597 -0.0645  0.0440  0.1574
19723W        W36570  11.633  19.056  10.331 -0.1734  0.2664  0.1792
19724W        W36571  11.745   5.027  13.092  0.2584  0.0863  0.1102
19725W        W36572   6.147  10.947   2.346 -0.0694 -0.0173  0.2187
19726W        W36573  12.756  11.661  13.791  0.2155 -0.0451 -0.0219
19727W        W36574  10.102  10.199  12.996  0.0998  0.4236 -0.1439
19728W        W36575  13.400  14.322  11.591  0.1113 -0.0333 -0.2249
19729W        W36576  15.004  18.747   0.810 -0.1025 -0.0514  0.1364
19730W        W36577  16.587  19.403   3.069  0.0232 -0.0207 -0.2623
19731W        W36578  14.316  12.962   3.422  0.2604 -0.0542  0.0477
19732W        W36579   6.183  15.776  10.622 -0.0428  0.0623 -0.2249
19733W        W36580   0.340  10.787   3.888 -0.0702 -0.0491 -0.0845
19734W        W36581  12.892  13.184   3.590  0.1500  0.0198 -0.0308
19735W        W36582  17.215  14.824  12.260  0.0857  0.3799 -0.1556
19736W        W36583   1.576   9.652  12.158  0.0814  0.4247  0.2535
19737W        W36584   1.793   0.278   2.127 -0.0271 -0.1612 -0.3649
19738W        W36585  15.707   4.928   1.117 -0.1961  0.1322  0.0047
19739W        W36586  14.454   3.140  10.545  0.4762 -0.2155 -0.0781
19740W        W36587   2.731  16.810  10.992 -0.0740 -0.4027  0.0952
19741W        W36588  18.081  11.595  11.089  0.2799 -0.1625  0.0139
19742W        W36589  14.890  16.718   3.017 -0.0077  0.0201 -0.0793
19743W        W36590   0.471  15.542  11.115  0.3737  0.2595 -0.0502
19744W        W36591   8.049  16.380   4.614  0.2566 -0.0567 -0.1250
19745W        W36592   9.683   3.704   2.134  0.0603 -0.2494  0.0731
19746W        W36593   1.517   5.831  11.460 -0.1052  0.2229 -0.1168
19747W        W36594  15.933   9.721   4.937  0.2279 -0.1299  0.4350
19748W        W36595   6.242   5.864   5.212  0.0373  0.2043 -0.0430
19749W        W36596  14.453   2.861  10.978  0.1915  0.0915  0.4009
19750W        W36597  11.265  19.091   3.729 -0.2280 -0.2759 -0.0531
19751W        W36598   4.850  15.493   2.890 -0.2266  0.1080 -0.1495
19752W        W36599  14.551  15.357   0.480 -0.2374 -0.0563 -0.0766
19753W        W36600  16.670  12.082   4.631  0.2289  0.0436 -0.0755
19754W        W36601  15.772  16.833   3.953  0.1383  0.2687 -0.1471
19755W        W36602   2.325  15.279   0.837 -0.3254  0.1879 -0.2187
19756W        W36603   4.123   6.570  11.779 -0.1090  0.0756 -0.0294
19757W        W36604   5.244   6.564  11.593 -0.1902 -0.0333  0.0150
19758W        W36605  17.064  13.580   2.825 -0.0410 -0.0293  0.1134
19759W        W36606   9.085  10.715   2.251  0.1314 -0.1332  0.2181
19760W        W36607  16.224  10.403   4.230 -0.0445  0.3396 -0.1540
19761W        W36608   5.246  15.059  10.003 -0.0667 -0.0801  0.2098
19762W        W36609  12.447   3.922   3.496  0.2167 -0.0139  0.4842
19763W        W36610   6.431  10.108  13.360 -0.1769  0.1733  0.1146
19764W        W36611  14.273   8.159   3.725  0.3399 -0.1809  0.0285
19765W        W36612  14.621  16.368   1.506 -0.0287  0.3905  0.4029
19766W        W36613   4.002   0.780  13.294  0.1640 -0.1805 -0.2092
19767W        W36614  10.981  10.301   3.796  0.3342  0.2300  0.2676
19768W        W36615   7.044  12.715  11.915 -0.2362  0.1259 -0.1080
19769W        W36616  19.238  19.290   0.033  0.0592 -0.0792 -0.0959
19770W        W36617   6.125  15.723  14.010 -0.0044  0.1676  0.0959
19771W        W36618  15.198   1.545  12.164 -0.1137 -0.0889  0.1793
19772W        W36619   8.651  12.730   0.089  0.0605  0.2839  0.3448
19773W        W36620   6.976   2.750   3.464 -0.2255 -0.1508  0.2167
19774W        W36621  12.628  18.250   3.415  0.1899  0.4233  0.2572
19775W        W36622   4.088  12.501  14.312 -0.1818 -0.4621  0.1551
19776W        W36623   4.693   1.547  14.072  0.1353  0.1394 -0.3103
19777W        W36624   9.806  13.135   0.521  0.1654  0.4640  0.1283
19778W        W36625   1.445   9.015   1.540 -0.0385  0.1046  0.2051
19779W        W36626  17.479  19.577   0.182 -0.2266 -0.2535  0.0228
19780W        W36627   9.105   5.943  10.793  0.0369 -0.0987 -0.3570
19781W        W36628  12.807   4.596   1.135 -0.0640  0.0003 -0.2076
19782W        W36629   1.877   3.073   1.620 -0.0954 -0.0501  0.2475
19783W        W36630  16.145   9.956  13.681 -0.0697  0.0534  0.1493
19784W        W36631   6.746   1.820   1.941  0.1060  0.2749  0.1691
19785W        W36632  18.713   8.425   5.901  0.0970  0.4081  0.1315
19786W        W36633   2.362  15.452   3.657 -0.1749  0.2541  0.1838
19787W        W36634  16.644  14.975  11.551  0.0338 -0.0371  0.2282
19788W        W36635   1.604   9.715   0.557  0.0397  0.0161 -0.2173
19789W        W36636   0.794  14.847   3.505 -0.0229 -0.2224  0.0194
19790W        W36637  14.330   0.729   0.516 -0.1051  0.0650 -0.1349
19791W        W36638  10.401   7.945  12.977 -0.0149 -0.1265 -0.0986
19792W        W36639   1.968   5.939  12.177 -0.0852  0.1382  0.0169
19793W        W36640   0.763  18.337  12.939  0.1719  0.0140  0.1723
19794W        W36641   8.016   2.264   2.553  0.0754 -0.2234 -0.0344
19795W        W36642   2.835   7.954  14.555 -0.3304 -0.0146 -0.0261
19796W        W36643   9.903  16.245  13.645 -0.0154 -0.2232  0.1993
19797W        W36644   0.902   4.952   3.019 -0.0324 -0.0319  0.3067
19798W        W36645  18.842   0.103   1.124  0.2954 -0.0632  0.0554
19799W        W36646  10.570   6.307   0.105 -0.0994 -0.0760 -0.4733
19800W        W36647  10.005   7.074  11.658 -0.0188  0.0511 -0.2835
19801W        W36648   2.295  19.043   1.531  0.1872 -0.3118 -0.0659
19802W        W36649  18.883  18.645   3.226 -0.0487 -0.2291 -0.1129
19803W        W36650   4.446  10.280  12.748 -0.1342  0.0561 -0.1186
19804W        W36651   4.922   9.204   0.116  0.4621  0.0398 -0.2132
19805W        W36652   6.120  16.535   0.663 -0.1664  0.0835  0.1585
19806W        W36653  10.577  17.659  11.590 -0.0556  0.2789  0.1824
19807W        W36654   9.396  16.382   1.525  0.1883  0.0771 -0.0409
19808W        W36655  14.317   8.063   3.177  0.0341 -0.0107 -0.0058
19809W        W36656  11.212  16.780   5.049 -0.5179 -0.1934  0.1530
19810W        W36657   9.990  18.372  11.240  0.4428 -0.5228  0.0212
19811W        W36658   7.467   6.433   3.249 -0.3662 -0.4435 -0.0663
19812W        W36659   1.670  18.619  12.839 -0.0896 -0.3091 -0.2258
19813W        W36660  14.512  15.673   4.402 -0.4142  0.0524  0.4244
19814W        W36661   2.825  11.017  14.305 -0.0806  0.0923  0.1611
19815W        W36662   5.372   7.464  12.622  0.3243 -0.2038 -0.0253
19816W        W36663   3.141  18.096  11.656 -0.3509 -0.2468 -0.0810
19817W        W36664   6.272   2.664   1.001 -0.1630 -0.1648  0.0573
19818W        W36665  15.654  12.041   2.388  0.0827 -0.3515  0.5131
19819W        W36666  15.729   4.641  14.219  0.0221  0.1505  0.0045
19820W        W36667   3.674  19.568   4.696 -0.0163  0.2143 -0.2379
19821W        W36668   4.009  16.212   1.587 -0.1854 -0.0889 -0.1077
19822W        W36669   5.297  10.941   3.295 -0.2106  0.3165  0.1766
19823W        W36670   6.092  16.345  14.000  0.0356 -0.4619  0.1567
19824W        W36671   1.050  15.787  12.623 -0.1359 -0.2237 -0.1558
19825W        W36672   5.620  10.051  13.881  0.1679 -0.0570  0.2168
19826W        W36673  19.013  13.579   3.827 -0.0763 -0.0951 -0.4000
19827W        W36674  18.172  18.088  11.597  0.1861  0.1458 -0.2461
19828W        W36675  19.289   9.027   3.403 -0.5678  0.1409 -0.1054
19829W        W36676  11.358  18.779  12.861 -0.2624  0.2851 -0.2245
19830W        W36677   8.780   1.499   1.623 -0.0208  0.1816  0.2451
19831W        W36678   9.335  16.729  10.860 -0.1893 -0.0979  0.0805
19832W        W36679   2.215  14.250   1.537 -0.0965  0.1719  0.2094
19833W        W36680   3.889  12.191   4.259  0.3402 -0.1989 -0.1157
19834W        W36681  11.674  16.332  12.590 -0.3648  0.0668  0.2353
19835W        W36682   0.296   2.356  11.199 -0.1620  0.0078  0.0746
19836W        W36683   4.984   3.512   1.405 -0.1414  0.0355  0.1304
19837W        W36684  15.456   7.740  13.182 -0.2941  0.1491 -0.0263
19838W        W36685   5.602   0.634   4.034 -0.0770 -0.0419  0.0309
19839W        W36686   2.654  10.981  11.356  0.0045  0.2642 -0.1513
19840W        W36687  19.496  15.238  13.089 -0.0759  0.3932 -0.1157
19841W        W36688  11.053  16.349   4.284  0.0363  0.0826 -0.0126
19842W        W36689  15.782  14.780   9.452 -0.0877 -0.0521  0.1671
19843W        W36690  10.596  13.585  11.634 -0.3237 -0.4887 -0.1771
19844W        W36691   8.414  18.732   0.168  0.0888 -0.0397 -0.1298
19845W        W36692  12.816   8.144   1.554 -0.0205  0.1037 -0.0281
19846W        W36693   5.983   2.265   1.601 -0.1039 -0.0530  0.2227
19847W        W36694  18.204  12.744   2.699  0.0915 -0.4099 -0.0362
19848W        W36695  13.116   3.941  12.732  0.0284 -0.5454  0.0862
19849W        W36696  17.957   2.852  13.272 -0.1820  0.2331  0.1054
19850W        W36697  10.851  11.649  11.200 -0.1435  0.1211 -0.1924
19851W        W36698  18.763   5.250   2.885  0.2141 -0.2566 -0.1628
19852W        W36699   6.942   3.026   2.541 -0.1352  0.0272 -0.0609
19853W        W36700  17.112  12.760   2.604  0.0341  0.0413  0.1058
19854W        W36701   5.041   7.860  10.894 -0.1766  0.4870 -0.0345
19855W        W36702  13.810  17.232  12.572 -0.0424  0.2741  0.0029
19856W        W36703  14.287   1.393  11.689 -0.0502  0.0083 -0.1096
19857W        W36704   8.132  14.132   1.902  0.1755 -0.1665 -0.5208
19858W        W36705  19.354  15.217  11.070 -0.0342  0.0117 -0.2008
19859W        W36706   5.866  19.149   0.937 -0.1216  0.2389 -0.1344
19860W        W36707   8.378  13.819  14.081 -0.1534  0.0647  0.5737
19861W        W36708  15.209   2.432   3.102 -0.0285 -0.1992  0.0073
19862W        W36709  11.145  14.549   1.304  0.1250 -0.0362  0.1229
19863W        W36710  17.826  12.623  11.997 -0.1867 -0.2158  0.0560
19864W        W36711  16.171   1.930  10.700 -0.3208  0.0453 -0.0280
19865W        W36712  12.866  11.814  10.436 -0.0959 -0.0096 -0.3339
19866W        W36713   2.944   5.579  10.495 -0.0619 -0.1016  0.1628
19867W        W36714  17.665  16.960   9.188 -0.1625 -0.2028 -0.1562
19868W        W36715   8.029   2.686   4.751 -0.1708 -0.2656  0.0463
19869W        W36716   5.217   7.584  13.792 -0.1031  0.0693  0.4293
19870W        W36717   9.991   8.187   4.623 -0.1715 -0.1955  0.2570
19871W        W36718   8.192  14.718  12.933  0.2208 -0.1832 -0.0830
19872W        W36719   1.286   6.313  11.128  0.0414 -0.2924  0.0322
19873W        W36720  10.313  14.757  13.737 -0.1840  0.1022  0.1703
19874W        W36721  17.957   4.028   0.227  0.2765  0.3522 -0.1606
19875W        W36722   4.198  10.097   4.433  0.2955  0.1378 -0.2203
19876W        W36723   6.889  16.620  12.940  0.0988  0.4901 -0.2199
19877W        W36724  11.075   4.142   0.565 -0.2170  0.4395 -0.2015
19878W        W36725  16.614   4.217  14.450  0.4244 -0.0498  0.4259
19879W        W36726  16.676   7.980   1.440  0.2505  0.1780 -0.0392
19880W        W36727   7.829  13.841  12.024  0.1714 -0.5794  0.1434
19881W        W36728   2.864   4.519  13.863 -0.3287 -0.1437  0.5417
19882W        W36729  17.576   6.624   3.585  0.0579 -0.2285  0.1722
19883W        W36730   3.215  13.769  13.023  0.3489 -0.3265  0.4364
19884W        W36731  16.463   1.100   0.042 -0.3567  0.0508 -0.1742
19885W        W36732  16.983   1.680  10.219 -0.4122 -0.2235 -0.0258
19886W        W36733  15.272  19.302   2.468 -0.1171  0.2756 -0.0216
19887W        W36734   2.965  14.048  10.913 -0.1769  0.2690  0.0929
19888W        W36735  11.692  19.472   0.845  0.0318  0.1845 -0.0070
19889W        W36736  12.209  17.477   0.193 -0.1265 -0.1928  0.0016
19890W        W36737  13.360   6.259  10.676  0.3085  0.2407  0.1081
19891W        W36738  17.259   6.777   1.637 -0.2111  0.1194  0.0843
19892W        W36739   5.391   3.403  14.469  0.0959  0.0195  0.0423
19893W        W36740  18.918   4.093   4.190  0.0437 -0.0578  0.1998
19894W        W36741  11.779   8.258  13.423  0.1374 -0.2520  0.0331
19895W        W36742  13.249  14.443   0.163  0.0885  0.1220  0.1609
19896W        W36743  11.430   4.189  13.673  0.1547 -0.0338 -0.0839
19897W        W36744  18.135  11.591   1.113  0.1502 -0.3906 -0.0918
19898W        W36745  12.137   7.445   2.053 -0.0318 -0.5321 -0.1392
19899W        W36746  10.940   3.497   4.549 -0.0316 -0.2583 -0.0795
19900W        W36747  19.138  12.073   1.441 -0.4428 -0.2498 -0.0385
19901W        W36748   9.643  11.414   3.200  0.1908 -0.1410 -0.1525
19902W        W36749  11.772   2.300  10.250 -0.1891  0.1712  0.0112
19903W        W36750   8.080   8.079  13.362 -0.1881 -0.1419 -0.0258
19904W        W36751  14.028  10.248  11.826  0.0815 -0.1995  0.1281
19905W        W36752  11.373  15.980  13.749  0.4049 -0.0995 -0.1691
19906W        W36753   7.212  10.263   3.912  0.1764  0.1122  0.1160
19907W        W36754   8.543  14.614   3.563 -0.0250  0.1370 -0.1499
19908W        W36755   3.365   8.691   4.218  0.0690  0.2395 -0.1220
19909W        W36756  14.079   7.752   2.904  0.2180  0.2066 -0.4118
19910W        W36757  18.579  11.166  11.906 -0.3167 -0.0306 -0.1158
19911W        W36758   8.905  19.603   3.594  0.0063  0.1260  0.4244
19912W        W36759  19.353  18.185  13.726 -0.0522  0.4655 -0.0320
19913W        W36760  12.892   6.245   5.230  0.3008  0.2903  0.0454
19914W        W36761  15.994   1.283  14.186  0.0700 -0.1738  0.1466
19915W        W36762  19.262   6.441   5.036 -0.0444  0.2569 -0.2814
19916W        W36763   5.724   7.333   4.295  0.1007  0.2249 -0.0280
19917W        W36764   7.455  15.935  11.761 -0.0787 -0.0099  0.1000
19918W        W36765   0.756  11.987   0.141 -0.1429 -0.0312 -0.0614
19919W        W36766   4.264   3.522  12.670  0.1438 -0.0574  0.1814
19920W        W36767  19.020  16.861  11.825  0.0006  0.2427  0.2398
19921W        W36768  18.670   8.494   3.785 -0.0059  0.0293  0.1405
19922W        W36769   9.602   2.184  10.911  0.0892  0.1216  0.0745
19923W        W36770  12.496   0.999  10.637 -0.2885  0.0293 -0.0808
19924W        W36771   4.974   6.150   9.372 -0.1055  0.2173  0.1210
19925W        W36772   7.786  18.982   2.355 -0.0582  0.0721 -0.0287
19926W        W36773  18.727   4.633   3.129  0.1387 -0.0095  0.1182
19927W        W36774   2.901   0.585   2.505  0.1536 -0.2882 -0.1410
19928W        W36775  15.936   2.478   2.094 -0.0024  0.2332 -0.2128
19929W        W36776   4.189   6.207  11.429 -0.1831  0.2043  0.4497
19930W        W36777  13.369  19.127  13.578 -0.3849 -0.0479 -0.1480
19931W        W36778  13.926   3.737  12.385  0.0227 -0.2850  0.0932
19932W        W36779   0.738   3.172  14.507  0.3078 -0.1293  0.0341
19933W        W36780   8.967  15.596   2.492  0.0354  0.4341 -0.2002
19934W        W36781  11.196  17.696   2.367  0.0471 -0.3060  0.2192
19935W        W36782  11.481  11.953   1.162 -0.0175 -0.2070  0.1522
19936W        W36783  10.992  19.388  10.874 -0.1351 -0.1655 -0.2993
19937W        W36784  18.326  15.616  13.792 -0.0009  0.1810  0.0299
19938W        W36785  14.948  19.031  13.122  0.1627  0.0347 -0.0626
19939W        W36786  15.349  10.412   0.732 -0.1054  0.1365  0.2611
19940W        W36787   1.591  15.829  13.460 -0.2912  0.0474  0.0866
19941W        W36788   4.778   6.665   1.527  0.2169  0.0455  0.2530
19942W        W36789   6.812   1.119  13.057  0.2117  0.1401 -0.0640
19943W        W36790   9.085  13.643  12.028 -0.0237  0.1796  0.0171
19944W        W36791  16.185  18.617   9.925  0.1428  0.0376  0.2583
19945W        W36792   2.551   4.736  12.068 -0.3409  0.2508  0.0301
19946W        W36793   7.931  14.611   2.990  0.0225  0.0915  0.1448
19947W        W36794  14.217   5.507  13.860 -0.1301 -0.2180 -0.1455
19948W        W36795  11.576  19.374   2.761  0.0058 -0.0880  0.1030
19949W        W36796  15.196   8.717  10.963  0.0624  0.1636  0.3555
19950W        W36797  10.517  15.061   4.497 -0.0159  0.3669 -0.1974
19951W        W36798   9.999   6.519  12.574  0.1681  0.0856  0.0182
19952W        W36799  13.812  18.543   0.832 -0.0130 -0.1599  0.0727
19953W        W36800  15.678   1.065   2.117 -0.1138 -0.1954 -0.0383
19954W        W36801   1.966   9.061   4.576  0.0792  0.1157 -0.0044
19955W        W36802  15.214  16.586  13.301  0.0573 -0.1203  0.0351
19956W        W36803   3.817   1.303   3.066 -0.0381  0.1427  0.1031
19957W        W36804   5.485   8.063   0.451 -0.3888  0.2458 -0.1841
19958W        W36805  10.370   7.801   2.796 -0.0762  0.0739 -0.2083
19959W        W36806  19.343   1.225  14.035 -0.1197 -0.0506 -0.0828
19960W        W36807  13.587  17.214  10.401  0.0377  0.2427 -0.0816
19961W        W36808   9.253  18.867   1.890  0.0419 -0.0726 -0.0876
19962W        W36809  11.289   1.942   9.772  0.1478 -0.2396 -0.2425
19963W        W36810  18.855   1.609  13.809  0.1064  0.3295 -0.0311
19964W        W36811   5.385   3.669  11.112 -0.1667  0.0992  0.0144
19965W        W36812   7.131  16.326  12.542 -0.0457  0.1402 -0.3842
19966W        W36813  11.529   7.441  13.520  0.1427 -0.0255  0.1197
19967W        W36814   1.194  16.284  11.057 -0.0602 -0.2245 -0.1613
19968W        W36815  13.881  16.084  12.012  0.1854  0.1128  0.1448
19969W        W36816  12.280  11.833  13.799  0.0990  0.0126  0.1288
19970W        W36817  11.166   6.370  13.446  0.2660 -0.0429 -0.1276
19971W        W36818   0.458   2.853  13.367 -0.0498  0.0430  0.0230
19972W        W36819   5.534   1.514   2.593 -0.2294 -0.5388  0.0030
19973W        W36820  10.751   7.014  14.391 -0.3830  0.1556  0.0668
19974W        W36821   4.946   6.853  13.304 -0.1461 -0.4049  0.3070
19975W        W36822  14.251  19.499  11.749  0.2064  0.1548  0.1492
19976W        W36823  12.000  18.126  13.289 -0.1833  0.3606  0.0578
19977W        W36824   7.639   5.557   1.345 -0.0688 -0.2205 -0.1864
19978W        W36825  17.310   4.220   3.654  0.0146  0.2710  0.0550
19979W        W36826  10.010  19.338   3.047  0.0333  0.1132 -0.1751
19980W        W36827   1.056  14.864  11.687 -0.0375 -0.1206 -0.0711
19981W        W36828  13.402  12.663  10.908 -0.1798 -0.1043  0.5209
19982W        W36829  12.832   5.146   2.499  0.1759  0.2888  0.0296
19983W        W36830  14.715  15.877   2.985 -0.0534 -0.1008 -0.1334
19984W        W36831  11.775  15.809   0.045 -0.1381 -0.0177 -0.3155
19985W        W36832   0.438  11.756   4.421  0.1292 -0.1525 -0.3958
19986W        W36833  14.798   6.156  14.440  0.1265  0.0519 -0.2306
19987W        W36834   7.391  17.583   1.903 -0.1685 -0.1344 -0.0634
19988W        W36835   7.954   6.855   2.511 -0.1251 -0.4849 -0.0114
19989W        W36836   1.211   5.685  11.135  0.0921 -0.2281  0.1635
19990W        W36837  19.267   8.718   0.331  0.0740  0.4151 -0.1432
19991W        W36838  10.852  12.096   5.615  0.1185 -0.0031 -0.1203
19992W        W36839   2.096   0.897   0.271  0.1834  0.2450  0.2330
19993W        W36840  16.422   8.353   1.622  0.2746  0.0914  0.0465
19994W        W36841   2.861  19.443   2.999 -0.1580 -0.0429 -0.0051
19995W        W36842  12.023  19.523  11.598 -0.0825  0.2580 -0.1530
19996W        W36843  12.153  16.945   9.425 -0.2576  0.3335  0.0383
19997W        W36844  12.418   8.033   5.473  0.1240  0.0878 -0.0621
19998W        W36845  13.053   7.492   0.973  0.0142  0.0758  0.3396
19999W        W36846   2.307  13.097   4.278 -0.0431  0.3556 -0.0027
20000W        W36847  16.140  16.005   4.166  0.0604 -0.1985 -0.0132
20001W        W36848   7.873  10.629  12.625  0.4314 -0.3548  0.0224
20002W        W36849  10.666   3.076  12.230 -0.0085 -0.0578 -0.1396
20003W        W36850   6.940  14.435  10.668  0.1022 -0.0204  0.1900
20004W        W36851  16.019  16.835  12.714  0.0390 -0.1560 -0.2007
20005W        W36852   1.937  19.218  14.027 -0.1608  0.0791 -0.0168
20006W        W36853  10.039   3.589  13.864 -0.2887 -0.0278  0.1245
20007W        W36854  13.411  15.456   4.160 -0.1113  0.1311  0.3852
20008W        W36855  10.135  19.026   0.156  0.0121 -0.2108 -0.0508
20009W        W36856   3.277  16.618  11.360  0.1573  0.0445  0.0566
20010W        W36857  11.488   7.757   3.783  0.0023 -0.2811 -0.1399
20011W        W36858   9.371  10.432  13.617 -0.5423  0.4367 -0.0832
20012W        W36859   4.190   3.338  10.004 -0.0853  0.1757 -0.2927
20013W        W36860  18.224   2.314  12.372  0.1395 -0.2722 -0.0395
20014W        W36861   8.913   9.585   3.355 -0.0586  0.0701 -0.1027
20015W        W36862  15.886   7.079   2.361 -0.2671  0.1695 -0.0839
20016W        W36863  15.744   3.624  10.370  0.1481  0.0205  0.0606
20017W        W36864  13.166  12.153   1.321  0.3888 -0.2536  0.1561
20018W        W36865  15.149   4.213   2.430 -0.0342 -0.0964  0.3828
20019W        W36866   6.210  13.093   5.080  0.0458 -0.1406 -0.1122
20020W        W36867   3.742  15.442   9.786  0.0234 -0.1448  0.2336
20021W        W36868  14.138  14.413  11.119  0.0937 -0.0246 -0.1933
20022W        W36869  15.797  18.782  13.219  0.0260  0.3949  0.4193
20023W        W36870   9.113   0.075  10.547  0.0820 -0.2834  0.0234
20024W        W36871  15.173   6.999   0.668  0.0066 -0.1528  0.1335
20025W        W36872   5.793  11.690  13.867  0.1251  0.1082  0.3525
20026W        W36873  14.775   7.936   1.641 -0.1849  0.0127  0.1282
20027W        W36874  12.925   0.703  11.477 -0.0090 -0.1008  0.2918
20028W        W36875   8.993   2.559   0.256 -0.2171 -0.0047  0.3008
20029W        W36876  11.671   5.738  12.819 -0.0726 -0.1387 -0.1869
20030W        W36877   8.947  19.502   2.766  0.0573 -0.3764 -0.0994
20031W        W36878   0.239  12.950  11.136  0.1713 -0.1868  0.0896
20032W        W36879   2.117  15.661  13.324 -0.0523  0.1134  0.0320
20033W        W36880   2.072   9.228   3.133  0.3732  0.0384 -0.2703
20034W        W36881  11.968  10.506  10.445 -0.0051 -0.3168  0.1126
20035W        W36882   6.566  11.147   4.304 -0.1199  0.1744 -0.1389
20036W        W36883   6.877   7.004  10.783 -0.0878  0.0655  0.0519
20037W        W36884  14.420   2.864  14.246 -0.0623 -0.2296  0.1562
20038W        W36885  19.275   8.091  13.502 -0.0007  0.1689  0.2163
20039W        W36886   4.836   1.150  13.664 -0.1119  0.1467  0.0055
20040W        W36887  15.658  10.437   1.122  0.2982 -0.0642 -0.0109
20041W        W36888   9.704  10.739   3.832  0.0264  0.0773  0.1877
20042W        W36889   9.077  18.660  12.235 -0.3736 -0.0371 -0.1643
20043W        W36890  14.956  16.414   3.386 -0.0648 -0.1087  0.0064
20044W        W36891   4.602  18.452   3.397  0.2173 -0.0443  0.1028
20045W        W36892  18.376  11.393   2.487  0.1195  0.1080  0.0724
20046W        W36893   7.660   2.523  14.052 -0.2923  0.4066 -0.0098
20047W        W36894   6.990   5.799   3.820 -0.3455  0.1026 -0.1128
20048W        W36895  13.179  16.760  13.990  0.1335 -0.1955 -0.1601
20049W        W36896   7.152  10.330  10.443 -0.1289 -0.1073  0.2664
20050W        W36897   1.291   8.075   3.482  0.3139 -0.0261  0.4535
20051W        W36898   7.608   7.743  12.470  0.0002  0.0075 -0.0197
20052W        W36899  19.068   8.032  10.579  0.3642  0.1165  0.0267
20053W        W36900   9.343  14.054   2.930  0.1247 -0.3963  0.2058
20054W        W36901  12.097   9.889  11.812  0.4134 -0.3121  0.0233
20055W        W36902  14.736   7.438  10.879 -0.2495  0.0449  0.0315
20056W        W36903   9.098  15.523   0.737 -0.1448 -0.2413  0.1106
20057W        W36904  10.798  16.172  11.509  0.2938  0.2781 -0.0800
20058W        W36905   2.344  10.909  14.020  0.2925 -0.0858  0.1340
20059W        W36906  12.607  17.240   0.605  0.0583  0.1640  0.1266
20060W        W36907  16.495  17.758  10.162 -0.0557  0.0414 -0.3082
20061W        W36908   8.216   1.756  10.825  0.1576  0.1266 -0.1651
20062W        W36909   7.147   6.100  10.952  0.0231 -0.0161 -0.2327
20063W        W36910  11.056  17.233  13.651  0.3936 -0.3480 -0.1471
20064W        W36911  17.288  18.645   1.166  0.1589  0.1771  0.0406
20065W        W36912   7.675   0.654   2.356  0.0439  0.2189  0.1727
20066W        W36913  18.192   9.688  11.616  0.0958  0.3181 -0.0563
20067W        W36914   5.199   3.567   1.962  0.1083 -0.5309 -0.1342
20068W        W36915   0.492  15.038   3.909 -0.2539 -0.0581 -0.1620
20069W        W36916   4.751   1.706  10.552  0.3096 -0.1297 -0.2292
20070W        W36917  11.789  19.404   5.636 -0.2581  0.1062 -0.3263
20071W        W36918   7.831   8.031  12.823  0.1403 -0.3425 -0.2763
20072W        W36919   6.539   2.145  10.268  0.0617  0.2243  0.0465
20073W        W36920   3.380   4.710  10.815 -0.1396  0.1634 -0.2558
20074W        W36921   2.810   7.664   4.161  0.2834  0.2887  0.2913
20075W        W36922  19.384   3.740   2.111 -0.2635 -0.0356 -0.1392
20076W        W36923   4.494  18.991   1.475  0.0190  0.0778 -0.2582
20077W        W36924   8.117   1.026  12.970  0.0790  0.0326  0.0106
20078W        W36925   8.457   7.250  11.308  0.0563 -0.1163  0.0139
20079W        W36926   1.006  17.074   3.095 -0.2686  0.1451 -0.0554
20080W        W36927  16.589  11.223  12.437  0.3417  0.4717 -0.0582
20081W        W36928  11.405  11.408  12.594  0.1010  0.1018  0.2356
20082W        W36929   4.592   6.429   2.390 -0.3380  0.0414  0.0750
20083W        W36930   7.015  15.765   0.152  0.3416  0.0340 -0.0482
20084W        W36931   8.773   8.560   9.260  0.1568 -0.0656 -0.1506
20085W        W36932  13.377   2.098  12.423  0.0928 -0.1230  0.2521
20086W        W36933   3.287   5.099   3.775  0.1514  0.2116  0.1175
20087W        W36934   3.418  15.360  12.719  0.0120 -0.0947  0.0560
20088W        W36935  13.420  12.469   0.984 -0.1792  0.1994 -0.0058
20089W        W36936  11.554  10.599  13.053  0.0550  0.0661  0.2296
20090W        W36937  18.352  18.312  10.014  0.0383  0.0207  0.0559
20091W        W36938  19.181   9.745  10.980 -0.2450  0.2497  0.0679
20092W        W36939  12.350   8.123   3.060 -0.2621 -0.0754 -0.0636
20093W        W36940   2.839   6.994  14.412 -0.0061 -0.0954 -0.1006
20094W        W36941  15.125   5.020  12.589 -0.0626 -0.2539 -0.0998
20095W        W36942   7.814  17.459  11.858 -0.3037  0.2029 -0.2138
20096W        W36943  15.241   8.325   0.312 -0.3581  0.1411 -0.1588
20097W        W36944   9.523  18.530   2.725  0.1349  0.0523  0.1509
20098W        W36945  11.988   6.066  11.867 -0.0288 -0.3104  0.0591
20099W        W36946  12.532  19.376  13.710  0.0555  0.2864 -0.0752
20100W        W36947   9.518   0.992  10.241 -0.1172  0.2698 -0.0064
20101W        W36948   7.979  14.382   3.973  0.1098  0.0569 -0.1467
20102W        W36949  15.492  13.215  14.263  0.0517  0.0467  0.2116
20103W        W36950  15.151   6.908  10.616  0.2073  0.1812 -0.0413
20104W        W36951   8.810   1.422  13.415 -0.0568 -0.3373 -0.2851
20105W        W36952   3.472   5.120   3.181  0.2011 -0.0404  0.0284
20106W        W36953   8.615   9.089   9.154 -0.0453  0.1471 -0.0117
20107W        W36954   0.208  16.235   3.379  0.0512 -0.1325  0.1068
20108W        W36955  10.106  18.380  12.143 -0.2080 -0.1433  0.3822
20109W        W36956   4.630   2.051   1.504  0.0318  0.0350 -0.2037
20110W        W36957   8.753  19.026   4.567  0.0929  0.0316 -0.0544
20111W        W36958   9.710   3.672   0.188 -0.0013  0.2105 -0.2658
20112W        W36959   1.064  11.173   4.586  0.1401  0.2764  0.0177
20113W        W36960  11.953   5.315   2.239 -0.1307 -0.1062 -0.0165
20114W        W36961   3.037  10.681   0.013 -0.1104 -0.0559  0.0101
20115W        W36962   2.380   4.358   4.762  0.2732 -0.0619 -0.0697
20116W        W36963  13.810  19.345  12.008  0.3357 -0.3413  0.2057
20117W        W36964  17.416   6.521   2.989 -0.0510  0.3161 -0.0419
20118W        W36965   0.566  18.097  12.207  0.0650 -0.0761  0.2227
20119W        W36966  15.103  18.291  14.066 -0.3544 -0.2322 -0.3108
20120W        W36967  10.146  13.846  14.459 -0.1346  0.1078  0.1211
20121W        W36968   0.944   7.343   2.193  0.0393  0.0689 -0.0191
20122W        W36969   9.606   4.632   4.083  0.1700 -0.1005  0.2520
20123W        W36970   7.684  13.300   1.714 -0.2531 -0.1485 -0.2792
20124W        W36971  13.681   8.876   2.840  0.0198 -0.3208  0.2022
20125W        W36972  17.594  16.627   0.980 -0.0279  0.0725 -0.1530
20126W        W36973   4.823  14.584  14.613  0.0498  0.2009 -0.2489
20127W        W36974  18.793   8.823   3.414 -0.2957 -0.0132 -0.0021
20128W        W36975   3.418   9.576  14.458  0.0568  0.1421  0.0804
20129W        W36976  11.626  15.426  10.377  0.3372 -0.2589 -0.1031
20130W        W36977  15.413  11.383   0.582  0.1225  0.2659  0.0471
20131W        W36978   4.914  15.471   4.588  0.2346  0.0826 -0.0064
20132W        W36979   9.040   4.578   2.848  0.2440  0.2260 -0.3726
20133W        W36980  11.672   5.348   0.272  0.0560 -0.1953 -0.1221
20134W        W36981   6.920   0.886  13.841  0.1994  0.3926  0.1098
20135W        W36982  18.936   2.843  10.907  0.0075  0.0405  0.2240
20136W        W36983   1.401  17.879  13.390  0.0176  0.2340 -0.0494
20137W        W36984  11.032  10.183   0.695 -0.1101 -0.0164  0.1327
20138W        W36985   3.548  19.607  12.907  0.0261 -0.1310 -0.2378
20139W        W36986  12.458   2.545  13.352 -0.2095  0.0568 -0.2291
20140W        W36987  11.694   9.259  10.582 -0.0677 -0.1980  0.0786
20141W        W36988   0.669  15.418  12.586  0.1484 -0.0700  0.2572
20142W        W36989   3.398  14.898  13.433  0.0987  0.1701  0.0740
20143W        W36990   0.039  18.634  13.900  0.2603 -0.0917 -0.0879
20144W        W36991  11.893   9.727   5.577  0.1418 -0.3228  0.1165
20145W        W36992  16.556   6.050   1.786 -0.1208 -0.1364 -0.1410
20146W        W36993  11.969   1.901   2.043  0.1335  0.0830  0.2407
20147W        W36994  13.596  16.480   3.230 -0.1154  0.0448 -0.2770
20148W        W36995  14.923  14.298   1.084  0.0613 -0.0761  0.1304
20149W        W36996   4.258  18.224   4.662 -0.1542 -0.1813  0.2250
20150W        W36997  11.393  14.915  13.015  0.1398 -0.0509  0.0441
20151W        W36998   7.478  18.634   9.496  0.1421  0.0061  0.1457
20152W        W36999   8.336  18.221   0.340 -0.0486  0.1349  0.3905
20153W        W37000   4.941  17.397   2.146  0.0512 -0.0436 -0.2091
20154W        W37001   3.160   0.534   2.091 -0.0379 -0.3147 -0.0076
20155W        W37002  12.921  16.481   1.799 -0.0747  0.4138 -0.1788
20156W        W37003  16.659   9.734  13.394 -0.3096 -0.2881  0.1398
20157W        W37004  14.015   1.918   5.228 -0.3725 -0.1364 -0.0738
20158W        W37005   8.252   0.736   4.405  0.4318 -0.1270 -0.1329
20159W        W37006   4.049  13.176   2.534  0.1205  0.0711  0.3216
20160W        W37007   7.444   5.276  13.118 -0.1620 -0.0143 -0.0897
20161W        W37008   9.271  10.375  12.757 -0.2812 -0.0573  0.2387
20162W        W37009   7.556   3.878  14.130 -0.0066  0.0528 -0.0937
20163W        W37010  17.470   3.270   0.464  0.4821 -0.0435 -0.0716
20164W        W37011  10.101  13.368   2.007  0.0514  0.3329  0.0090
20165W        W37012  14.723  13.253   1.975 -0.4226  0.0559 -0.1147
20166W        W37013  17.646  10.606   0.367  0.1066  0.2145  0.1926
20167W        W37014   9.657   6.198   1.713 -0.1401  0.1288  0.3117
20168W        W37015  17.065  14.377  13.953  0.2400  0.2044  0.2858
20169W        W37016  14.056  17.777   0.632 -0.2929  0.0502  0.2534
20170W        W37017  12.818  11.500  11.611  0.4850 -0.1035  0.0379
20171W        W37018  14.237  10.622   2.079 -0.2142  0.2771  0.1694
20172W        W37019   1.471   9.234  12.488 -0.0936  0.1218 -0.0162
20173W        W37020  18.326  16.145  13.021  0.0836  0.2712  0.0661
20174W        W37021   5.316  10.011  12.334  0.0483 -0.0231  0.1296
20175W        W37022   2.300  17.829  12.949 -0.1276 -0.2228  0.1396
20176W        W37023  13.366   3.634  14.128  0.0116 -0.2282  0.1895
20177W        W37024   1.362  12.679   1.699 -0.2248  0.1815 -0.1523
20178W        W37025  13.022  11.165   1.814  0.0482  0.1298  0.4107
20179W        W37026   3.203   6.557  12.804  0.1147 -0.0530  0.0538
20180W        W37027  14.348  15.583   3.724 -0.0429  0.0555 -0.2428
20181W        W37028   1.826   1.179   2.164 -0.2575  0.2063 -0.3446
20182W        W37029   6.525   4.931  12.772  0.2024 -0.1422 -0.1891
20183W        W37030  15.613   6.139   1.443 -0.0997 -0.0485 -0.1985
20184W        W37031  10.997  14.359   3.143  0.4086  0.1856  0.2105
20185W        W37032  17.642   3.003   3.274 -0.2108  0.1260  0.3885
20186W        W37033  11.541   1.842  11.837  0.1881  0.1755 -0.0058
20187W        W37034  13.641  10.746  14.202  0.0343 -0.1323  0.0068
20188W        W37035   7.629   8.125  10.831 -0.0736 -0.1809 -0.3546
20189W        W37036  17.417   1.343   3.282  0.1645 -0.3662 -0.1551
20190W        W37037   3.621  18.916   2.925  0.2976 -0.1191 -0.1623
20191W        W37038  18.295   2.674  13.646 -0.1126 -0.1002 -0.1905
20192W        W37039  15.829  17.375   3.747 -0.2674  0.1824 -0.1132
20193W        W37040   7.230  16.639   4.554  0.1258 -0.1708 -0.1332
20194W        W37041  10.072   9.175   2.726 -0.3065  0.1408 -0.1932
20195W        W37042   1.557  17.024  12.170 -0.2590  0.3744  0.2923
20196W        W37043   4.328  14.887   2.837 -0.2249 -0.0868  0.1181
20197W        W37044   5.809   5.646  14.428  0.0172 -0.2179  0.0020
20198W        W37045   2.951  15.100  10.723 -0.0300  0.1455  0.0651
20199W        W37046   2.752   2.831  13.597  0.1625  0.1498 -0.2342
20200W        W37047  15.567  12.353  12.965 -0.3734 -0.1383 -0.2305
20201W        W37048   0.656   7.752   2.093 -0.0414  0.2278 -0.0672
20202W        W37049   5.242  10.783   0.295  0.0725 -0.3630  0.2070
20203W        W37050   3.187  11.840   0.080  0.2564 -0.1831 -0.0032
20204W        W37051   5.200   9.657   1.794 -0.0166 -0.1263  0.1426
20205W        W37052  16.891   1.500  11.108 -0.1137  0.3092 -0.0259
20206W        W37053   6.905  14.424  11.170  0.2296 -0.0808 -0.0469
20207W        W37054  13.348  13.310   2.292  0.0112 -0.0447 -0.2900
20208W        W37055  13.064   2.403   2.410  0.2565 -0.2794 -0.0741
20209W        W37056  10.881   7.857   3.094 -0.1026 -0.2818 -0.0341
20210W        W37057  11.245   4.711   4.526  0.0901 -0.0893 -0.3950
20211W        W37058   1.625   5.698   1.489 -0.0617 -0.2042 -0.1581
20212W        W37059  14.429   3.641   0.983 -0.5469  0.2527 -0.1084
20213W        W37060   0.926  18.875  11.620 -0.2223 -0.1027  0.1135
20214W        W37061   9.958  19.231  11.374  0.3525  0.2780  0.0603
20215W        W37062  12.360  10.448   5.338 -0.1795 -0.2408  0.0416
20216W        W37063  16.492  17.537   5.156 -0.4021 -0.3376 -0.0369
20217W        W37064  11.457  12.477   1.400  0.0249 -0.1703 -0.2137
20218W        W37065   6.083   8.131   2.585 -0.2302  0.0676  0.0979
20219W        W37066   6.301  17.093  11.530  0.0570 -0.1176 -0.0496
20220W        W37067   1.497  16.344  13.409  0.0246 -0.2496  0.1510
20221W        W37068  15.464   0.144  10.524 -0.0335 -0.1652 -0.1494
20222W        W37069   4.051   3.858  14.473 -0.0478 -0.0970 -0.2676
20223W        W37070  13.327  15.910   1.129  0.0568 -0.0113 -0.2254
20224W        W37071   6.487   3.624  13.451 -0.1578 -0.0989 -0.1336
20225W        W37072  19.548   4.199   1.226  0.0011 -0.0264 -0.1878
20226W        W37073   4.031   0.301   0.969  0.1323 -0.0172  0.1861
20227W        W37074   5.440  12.773   5.457  0.2447 -0.1046  0.0828
20228W        W37075  12.201   1.139   0.710 -0.3746  0.2875  0.2246
20229W        W37076   0.589   2.054  10.242  0.1001 -0.0600  0.1190
20230W        W37077  11.792   0.955   0.323 -0.0124  0.3386  0.0659
20231W        W37078   3.271   7.850   9.841  0.0294 -0.2082 -0.4292
20232W        W37079  15.835   2.751   1.595 -0.2019 -0.1594  0.3875
20233W        W37080   7.423  13.065   1.218 -0.2353  0.1026 -0.1374
20234W        W37081   6.745  11.066   2.449  0.1403 -0.1473 -0.2195
20235W        W37082  19.359  17.252   1.142  0.1835  0.1978 -0.0859
20236W        W37083   9.316   6.178   2.491  0.0766 -0.1537 -0.0056
20237W        W37084   5.254   8.025  12.373  0.1795 -0.0172  0.5836
20238W        W37085  11.633   4.486  14.471 -0.1292 -0.0330  0.2333
20239W        W37086  10.890   0.743   3.905  0.0463  0.1440 -0.0885
20240W        W37087   6.626  10.197   2.352 -0.2252  0.0681  0.0131
20241W        W37088   2.548   8.386   4.289  0.0336  0.1144 -0.1833
20242W        W37089   1.146   9.269  10.341  0.0035  0.1696  0.1659
20243W        W37090  15.454   8.037   1.424  0.1168 -0.0863  0.1583
20244W        W37091  11.325  17.829  11.071 -0.1256 -0.0652 -0.1546
20245W        W37092  11.695   1.237   2.374  0.0750  0.3616  0.4433
20246W        W37093   0.552   1.159  11.906  0.3405 -0.1148 -0.2765
20247W        W37094  12.675  16.819   2.299  0.0069 -0.2945 -0.0262
20248W        W37095   3.083   1.462   1.897 -0.3322  0.1703  0.0511
20249W        W37096  10.990  12.419  14.575  0.1837  0.0731 -0.0039
20250W        W37097   6.543   2.963   0.721 -0.4614 -0.1665  0.0447
20251W        W37098   7.657   8.085  13.611 -0.0782  0.0867  0.1184
20252W        W37099  15.687  13.429  10.063  0.0439  0.1524  0.1549
20253W        W37100   3.436  18.847  14.353 -0.2956 -0.0432  0.1848
20254W        W37101   4.670  13.193   3.806 -0.0785 -0.0919  0.0253
20255W        W37102  13.690   3.400  10.739  0.1222 -0.3367 -0.2078
20256W        W37103   9.051  14.330   2.651 -0.1552 -0.1369 -0.0776
20257W        W37104  14.156   2.464  14.462 -0.0200 -0.2144  0.2785
20258W        W37105  17.949  14.209  10.298  0.0253 -0.1087  0.2897
20259W        W37106  13.108   2.846  13.728 -0.0236 -0.0218  0.1695
20260W        W37107  17.488   9.441  12.831  0.1373  0.1811 -0.2124
20261W        W37108  18.057   8.848  13.427 -0.5638 -0.0042  0.2697
20262W        W37109  18.510  19.152   2.477 -0.0457  0.0164  0.0179
20263W        W37110  13.943  15.922   2.475  0.1943 -0.3343  0.2574
20264W        W37111  19.608   6.037   0.286  0.0902 -0.2641  0.2256
20265W        W37112  18.325   6.708  13.721 -0.3658  0.0669  0.1525
20266W        W37113  10.638   7.815  11.124 -0.0769  0.1749  0.0610
20267W        W37114   2.046  13.076   5.322  0.0459 -0.4910  0.2591
20268W        W37115   5.959   4.954  12.681  0.2176  0.0933 -0.2490
20269W        W37116   8.970  11.724   0.125 -0.1528  0.3470 -0.3548
20270W        W37117   6.443  12.730   0.669  0.2055 -0.0438  0.2539
20271W        W37118   5.922   2.650  12.360 -0.1943  0.1015  0.1837
20272W        W37119  18.526   6.007   4.503  0.3676 -0.0402  0.1765
20273W        W37120  10.455   1.997  12.120 -0.2151 -0.1855 -0.1654
20274W        W37121   9.179   8.776  14.301  0.1606 -0.1329 -0.1489
20275W        W37122  17.125  17.087  10.966  0.0344  0.0524  0.4257
20276W        W37123   3.253   1.805  10.327  0.0977  0.2506 -0.3879
20277W        W37124  16.020   0.861   1.798  0.0549 -0.3206  0.0319
20278W        W37125   8.431  16.969  14.133 -0.2452 -0.0471  0.2136
20279W        W37126  10.233   8.562  14.436 -0.2208  0.1169  0.0105
20280W        W37127  14.715  14.929  13.208  0.1301 -0.2042  0.1159
20281W        W37128   4.413   3.448  11.377  0.0152 -0.0634  0.0085
20282W        W37129  10.219   3.538   0.138 -0.0684  0.0778  0.2114
20283W        W37130   8.712   7.705  11.291  0.2451  0.0766 -0.0142
20284W        W37131   0.098   4.391   1.686  0.0116 -0.0829 -0.1516
20285W        W37132   3.660   7.721   3.872  0.2380  0.0420 -0.1650
20286W        W37133   7.782  14.846   3.401 -0.2447  0.0356 -0.2650
20287W        W37134   3.097  17.807  13.269 -0.2623 -0.0250  0.1948
20288W        W37135   6.096  10.525   4.569 -0.0580 -0.1435 -0.1511
20289W        W37136  17.559   2.117  13.691  0.1172  0.2741  0.0061
20290W        W37137   8.327  18.834  10.918 -0.0116 -0.3847  0.0817
20291W        W37138  19.454   9.428  11.415 -0.0914 -0.2529  0.2026
20292W        W37139  10.361   1.552   0.105 -0.1596 -0.1690 -0.4544
20293W        W37140   8.193  17.385   0.691 -0.0711  0.0655  0.2315
20294W        W37141   6.139  19.408  14.490 -0.2601  0.0801 -0.0607
20295W        W37142   9.484   7.169   2.925  0.1664  0.1564 -0.1267
20296W        W37143   8.378  14.686   3.115  0.1492  0.1396  0.2110
20297W        W37144  19.249  10.513   5.044 -0.1565 -0.1127  0.0565
20298W        W37145   6.485  15.866  13.040 -0.1610  0.2663  0.0434
20299W        W37146   8.545   0.331   1.859  0.1947  0.1460  0.0788
20300W        W37147  10.020  16.643  12.185 -0.1951  0.1682  0.0538
20301W        W37148   4.213  12.136   0.742 -0.0458  0.1979  0.2207
20302W        W37149   9.469   5.704  13.952  0.2736  0.1050  0.0404
20303W        W37150   1.176  16.096  13.852 -0.4592 -0.0280 -0.0947
20304W        W37151  13.137  16.804   2.515 -0.2481 -0.1156  0.1359
20305W        W37152   7.347  14.191   5.655 -0.1018  0.0428 -0.0188
20306W        W37153  17.430   8.951   4.645 -0.0738  0.1349 -0.1828
20307W        W37154  14.283   0.259  12.019  0.1015 -0.0917  0.0509
20308W        W37155  19.416  14.603  10.334 -0.2698 -0.1324  0.3934
20309W        W37156   3.378   2.384   2.784 -0.2547 -0.1315 -0.0224
20310W        W37157  17.092   1.613   1.271 -0.1792 -0.0961  0.0484
20311W        W37158   1.508  15.510   2.636  0.0913 -0.0260  0.0031
20312W        W37159   2.790  10.944   1.279 -0.2844  0.0680  0.0908
20313W        W37160   7.935  19.359  11.743 -0.0872 -0.2532 -0.1143
20314W        W37161   8.133  15.446  13.408 -0.1042  0.0444  0.2958
20315W        W37162   3.174   1.824  13.209 -0.0138 -0.1431 -0.1565
20316W        W37163   6.875  17.848  10.931  0.4813 -0.0365  0.3067
20317W        W37164  16.897  16.909  10.410 -0.2712  0.2283  0.0039
20318W        W37165  14.135   5.923   5.224 -0.1740  0.1646 -0.2527
20319W        W37166   4.889   5.960  14.505  0.3013  0.2353 -0.1944
20320W        W37167  14.213  15.405  13.934  0.1833 -0.1573 -0.3130
20321W        W37168   4.590   7.528  12.694  0.1038 -0.0326 -0.0653
20322W        W37169   9.856   4.494   0.286 -0.0963 -0.0240 -0.1271
20323W        W37170   8.052  11.726  10.237 -0.3816  0.1229  0.0749
20324W        W37171  11.171   4.639  14.086 -0.3506 -0.1013  0.2547
20325W        W37172   7.933  10.704  13.721 -0.0613  0.0308  0.0414
20326W        W37173   2.577  18.525   9.092 -0.1132  0.5006  0.4129
20327W        W37174  19.565  11.298  12.075 -0.2741  0.0643  0.3668
20328W        W37175   3.699  10.387   2.846  0.1376 -0.0712 -0.0200
20329W        W37176   0.034   3.600  14.013 -0.1540 -0.0541 -0.2380
20330W        W37177   2.275   0.035   4.336 -0.0758 -0.0259  0.1109
20331W        W37178   8.071  18.041   3.889  0.1035 -0.1819  0.0056
20332W        W37179   6.376  13.708   0.570  0.2427  0.0541 -0.1623
20333W        W37180   4.387   7.070   5.131 -0.2196 -0.2208 -0.2740
20334W        W37181   7.328  16.622  10.491  0.0170  0.4087  0.1112
20335W        W37182   0.475  18.692  13.073 -0.4262 -0.1636 -0.0138
20336W        W37183  16.752  15.826  11.284 -0.4639  0.3882 -0.3327
20337W        W37184   7.058   4.305   4.999 -0.0994 -0.0019  0.1968
20338W        W37185   3.125  14.071  13.821  0.0101  0.1513  0.3622
20339W        W37186   7.687   3.648   2.461 -0.0347  0.0355 -0.0394
20340W        W37187   4.459  14.065  10.386 -0.0482  0.1765  0.0652
20341W        W37188   8.222  15.770   1.176 -0.2824 -0.1083  0.1668
20342W        W37189   8.097   8.022   0.581  0.2257  0.0137 -0.1477
20343W        W37190   7.845  18.381   2.961  0.2898  0.3055 -0.0594
20344W        W37191   0.032  11.866   2.544 -0.1578 -0.0372  0.0147
20345W        W37192   1.126   0.207  14.291 -0.1261  0.1012 -0.0852
20346W        W37193   5.219   5.775  12.054  0.0910  0.0508 -0.1369
20347W        W37194  11.977   2.533  10.630  0.3797  0.0780  0.1017
20348W        W37195  14.827  13.811  11.453  0.1216  0.1936  0.3143
20349W        W37196  11.817   0.049   1.789  0.1570  0.0614  0.1550
20350W        W37197  14.867   6.224   2.393  0.1147  0.0592  0.3576
20351W        W37198   2.933   6.407  13.178  0.0835  0.1577 -0.2668
20352W        W37199  10.091  19.489  11.929 -0.2230  0.0994 -0.0005
20353W        W37200   7.372   3.424  11.723  0.0548 -0.0167  0.0375
20354W        W37201  15.983   1.535   4.365  0.1298  0.0184  0.0450
20355W        W37202  17.001   5.765  14.178 -0.1852 -0.0738 -0.4509
20356W        W37203   9.528  12.228  13.215  0.2463  0.1070 -0.1053
20357W        W37204   5.058   5.442   0.025 -0.0755  0.0950  0.0477
20358W        W37205  18.666   4.979   0.606 -0.0636 -0.0311  0.0754
20359W        W37206   1.964   1.388  12.154  0.0393 -0.2354 -0.2608
20360W        W37207  17.179   3.093   1.685 -0.1459 -0.0243  0.0629
20361W        W37208  14.653  11.337   1.633 -0.0967 -0.0608 -0.1438
20362W        W37209   8.256   0.409   0.274 -0.0417  0.0593  0.0444
20363W        W37210   1.813   5.953  13.508  0.1300  0.0532  0.1055
20364W        W37211   7.277   9.683   4.505  0.0713 -0.2050 -0.0493
20365W        W37212  16.187   0.213  13.458 -0.2404  0.1699  0.0904
20366W        W37213   6.827  11.543   4.461 -0.0324  0.3006  0.1636
20367W        W37214   4.126   1.641   0.428  0.0956  0.0635  0.3128
20368W        W37215   8.405   2.920   4.403 -0.1381 -0.0627 -0.2639
20369W        W37216  13.512   4.129  12.490 -0.0593  0.2272 -0.1640
20370W        W37217   1.109   7.959   2.984 -0.1412  0.1226  0.1114
20371W        W37218   0.130   1.722   4.582 -0.0836  0.2128 -0.1387
20372W        W37219  16.034   3.038   4.202 -0.1098 -0.0269 -0.0609
20373W        W37220   9.161  17.721   4.724 -0.1098  0.1491  0.0463
20374W        W37221   8.315  11.677  12.606 -0.0754  0.1732 -0.3536
20375W        W37222  14.253  10.807  11.674 -0.0038  0.1021  0.1480
20376W        W37223  13.004   7.913   3.722  0.0296  0.1743 -0.1282
20377W        W37224   3.935  18.100   1.692  0.2183  0.0473  0.0233
20378W        W37225   1.359  16.591  13.905 -0.2420  0.1141  0.1337
20379W        W37226   5.317   1.744   2.109 -0.2520  0.1761  0.5849
20380W        W37227   8.906   7.260  14.310 -0.1714  0.1652 -0.2711
20381W        W37228  18.671   8.313  10.757 -0.0916  0.3491 -0.1310
20382W        W37229   6.984  11.423   9.901  0.0348 -0.3427  0.1402
20383W        W37230  17.651   0.800   0.092 -0.2050 -0.0549  0.1063
20384W        W37231  17.820  13.732  10.186 -0.1237 -0.3087  0.0224
20385W        W37232   3.084   4.063  10.391  0.0679  0.0880 -0.1633
20386W        W37233  19.298   1.711  10.248 -0.0664  0.2823  0.2831
20387W        W37234   2.597   4.244   1.079  0.3202  0.1038  0.2003
20388W        W37235   1.595  16.488  14.339 -0.2275 -0.0257  0.0010
20389W        W37236  15.119  19.144   1.141 -0.2140  0.1210 -0.0863
20390W        W37237  15.646  16.239   3.950  0.2755 -0.1322 -0.0666
20391W        W37238   3.654  11.651   3.108  0.0315 -0.1641  0.1506
20392W        W37239   6.742  11.480   0.430 -0.1114 -0.2125  0.3339
20393W        W37240   0.503  13.313   4.772  0.0784  0.1564 -0.1471
20394W        W37241   2.697  17.875   2.276  0.0310 -0.0644  0.1448
20395W        W37242   4.444  16.273   1.850  0.0998  0.1950  0.1969
20396W        W37243   1.897  11.258   0.554  0.1078 -0.4284 -0.2655
20397W        W37244   9.897   9.097  13.568 -0.1278 -0.1732 -0.0552
20398W        W37245  19.563   6.746  14.400 -0.0110  0.2541  0.1769
20399W        W37246   0.640  12.011   9.583 -0.2147  0.2536  0.0006
20400W        W37247   8.955  12.326  12.356  0.0837 -0.0879  0.0940
20401W        W37248  16.915   4.008   3.226 -0.3581 -0.2791  0.0246
20402W        W37249  12.019   5.376   1.206  0.1359  0.0085  0.0668
20403W        W37250  11.627   3.347  10.771  0.3475 -0.1379  0.2440
20404W        W37251  13.243   6.716   3.019  0.1669  0.1915  0.1116
20405W        W37252  16.465   5.276   0.469 -0.1681  0.0816 -0.2280
20406W        W37253   9.167  12.426  12.823  0.3598 -0.1351  0.4450
20407W        W37254  18.095   9.916  13.748  0.1142 -0.0319  0.1502
20408W        W37255  12.378   3.278  10.901 -0.3885  0.1859  0.0805
20409W        W37256  14.540   3.941  11.131  0.1389 -0.2753 -0.2519
20410W        W37257  10.906  13.994  13.318 -0.2217 -0.1152 -0.3395
20411W        W37258   3.186  13.414  12.453  0.1427  0.0804  0.0687
20412W        W37259   0.284  16.429   1.953 -0.0530  0.3882  0.2121
20413W        W37260  11.355   6.064  12.244  0.1216  0.2004  0.0475
20414W        W37261   2.785   0.448   0.258  0.0613 -0.1034 -0.3772
20415W        W37262  16.306   4.053  11.303 -0.2865 -0.0152 -0.2611
20416W        W37263  15.875   8.864  14.180 -0.1710  0.0216  0.0334
20417W        W37264  15.071   0.117  13.801 -0.0306  0.0295  0.0762
20418W        W37265  19.568  10.920  14.056 -0.0561 -0.0799 -0.4133
20419W        W37266  11.212  18.934   0.128  0.2296 -0.3930  0.0316
20420W        W37267   0.552  10.435  12.274  0.1245 -0.0718 -0.0570
20421W        W37268   2.541   6.990   5.538  0.2459 -0.0243 -0.2367
20422W        W37269  17.706  16.851   9.719  0.0202 -0.0514 -0.1072
20423W        W37270   0.925  18.569   3.982 -0.1310  0.0536  0.0696
20424W        W37271  15.890   9.134   1.190  0.1142 -0.2321  0.0163
20425W        W37272  19.555  10.730   5.307 -0.1191  0.2052  0.2837
20426W        W37273   9.534   1.596  10.290  0.0877  0.1072 -0.0660
20427W        W37274  12.639   2.709   2.286  0.0410 -0.1280 -0.0038
20428W        W37275  19.044  13.534   1.884  0.1932 -0.2753  0.1025
20429W        W37276   7.903   0.787   3.980  0.2155  0.0973  0.2935
20430W        W37277   8.465   5.140  12.650 -0.0066  0.0117 -0.2636
20431W        W37278  15.787   3.950   2.387 -0.3870  0.0779 -0.0227
20432W        W37279  13.716  17.690   2.602  0.5049  0.1817 -0.3301
20433W        W37280   2.158  10.808  13.336  0.1364 -0.0337 -0.0418
20434W        W37281  16.268  13.979   4.479 -0.0615  0.0080 -0.3019
20435W        W37282  19.015  11.741   1.789  0.1056 -0.0676 -0.0557
20436W        W37283   2.404  17.031  11.466  0.2185  0.0454  0.3559
20437W        W37284   6.303   4.473  10.054  0.1944  0.2768  0.1408
20438W        W37285  19.553  12.087  10.870  0.2337  0.0048  0.3725
20439W        W37286   0.937   8.734  13.052 -0.1590  0.0889 -0.1416
20440W        W37287  18.696   5.023  14.056 -0.0706  0.0313  0.2618
20441W        W37288  16.049  16.522  13.162  0.0336  0.2863 -0.0201
20442W        W37289   0.120   1.242  12.122 -0.4359  0.0399  0.0793
20443W        W37290   7.353   2.269   1.696  0.2186  0.2505  0.1708
20444W        W37291  10.280   1.988   9.808 -0.2492  0.2930  0.2207
20445W        W37292   0.443   7.797   2.541 -0.1713 -0.0333  0.0454
20446W        W37293  19.163   5.484   5.067  0.1038 -0.4096  0.0521
20447W        W37294   9.007  10.044  13.886  0.0315 -0.4647  0.4007
20448W        W37295  16.530  13.566  13.224 -0.0837 -0.1997 -0.2987
20449W        W37296  14.120  12.758   0.731  0.0325 -0.0838 -0.1288
20450W        W37297   1.304  11.481   3.191 -0.2422  0.0079 -0.0739
20451W        W37298   2.315  10.059  12.023 -0.1298  0.1193  0.0373
20452W        W37299  16.106  15.967   3.678  0.2345 -0.2038  0.4815
20453W        W37300  13.573   6.456   2.707 -0.1631 -0.0653  0.0060
20454W        W37301  11.654   6.941  13.399 -0.0211 -0.2312  0.1123
20455W        W37302  13.261   2.545  11.086  0.2215 -0.3100  0.3521
20456W        W37303  10.995   9.620  10.955  0.2799  0.0917  0.3693
20457W        W37304  16.268   6.002  11.882 -0.0150  0.0284 -0.2769
20458W        W37305  15.890   4.488   2.991 -0.3279 -0.2415 -0.2026
20459W        W37306   2.114   8.720   1.562 -0.0089 -0.3524 -0.0607
20460W        W37307  13.970   0.322   9.663 -0.1750 -0.0662 -0.0478
20461W        W37308   4.108   5.570   3.975 -0.0740 -0.1910 -0.1488
20462W        W37309  12.795  13.056   1.338  0.0284 -0.0970  0.1489
20463W        W37310   8.124   0.858   2.407  0.1491  0.2351  0.0505
20464W        W37311  12.651  13.999   5.157 -0.1737  0.3086  0.0590
20465W        W37312   6.377  18.913   3.944 -0.0188  0.0114  0.0481
20466W        W37313  13.508   6.015  11.092 -0.0247  0.1978  0.2377
20467W        W37314  10.106  18.585  13.075  0.0192  0.1913 -0.1150
20468W        W37315   3.418   2.573   0.004  0.3488  0.2030 -0.5154
20469W        W37316   2.364   3.810  13.972  0.2701  0.3064  0.1963
20470W        W37317  16.242  18.412  12.099 -0.2871  0.0853  0.0417
20471W        W37318   6.727   9.751   4.581  0.4005 -0.0641 -0.0926
20472W        W37319   4.818  11.650  10.930 -0.0398  0.0308  0.3027
20473W        W37320  19.555   4.901   3.860 -0.1266 -0.1684 -0.0739
20474W        W37321   0.384   0.541   0.694 -0.1688  0.1403  0.1180
20475W        W37322  14.864   4.195   3.602 -0.0705  0.0127  0.0646
20476W        W37323  16.024  15.915   3.119 -0.0243 -0.2925 -0.0917
20477W        W37324  11.821   6.231   0.071 -0.2207  0.2117  0.1286
20478W        W37325  13.668   8.065   4.692  0.1000  0.1503  0.0834
20479W        W37326   4.837  17.250   2.625 -0.3517 -0.0282 -0.0859
20480W        W37327  11.384  16.851  13.832  0.4301  0.1199 -0.0921
20481W        W37328  12.876  14.104  13.697 -0.2510 -0.1822  0.2661
20482W        W37329   1.525   6.689   2.591  0.0501  0.1416  0.1316
20483W        W37330   6.696  13.272  11.828 -0.0315  0.1946  0.2119
20484W        W37331  12.948   9.840   3.533  0.0170  0.0980 -0.0179
20485W        W37332   8.615  15.112  12.857  0.2091  0.2516 -0.1698
20486W        W37333  10.281  19.050  11.758 -0.0800  0.1002 -0.0909
20487W        W37334  17.696  14.657  10.190  0.3368 -0.0769  0.1475
20488W        W37335  11.694  16.474  10.296  0.0117 -0.2806 -0.0577
20489W        W37336   1.380  19.025   9.072 -0.0824  0.0821 -0.0594
20490W        W37337  13.001  15.436  13.370 -0.2086 -0.1457 -0.1384
20491W        W37338  13.530   7.310  13.779 -0.2221  0.1304  0.0426
20492W        W37339   9.388  19.106  14.370 -0.0860 -0.3083  0.1786
20493W        W37340  11.065   6.159  10.456 -0.1608  0.4058 -0.1882
20494W        W37341  13.862   0.257  13.262 -0.2267 -0.0528  0.3035
20495W        W37342   4.616  12.569  14.504 -0.1756 -0.2442 -0.1370
20496W        W37343   5.641   4.079  11.326  0.0668  0.1765  0.0825
20497W        W37344  12.159  18.096   1.925 -0.1826  0.3304 -0.0807
20498W        W37345  18.749  15.428   2.491 -0.2302  0.1610 -0.4178
20499W        W37346  12.869   7.880  12.377  0.2132  0.1746 -0.1376
20500W        W37347  11.028   7.297  11.900  0.0647 -0.1363  0.1552
20501W        W37348  10.668   0.577  13.743  0.2831  0.1963 -0.2729
20502W        W37349  12.085   1.605   3.217  0.5441 -0.2429  0.2546
20503W        W37350   1.508   0.014  11.805 -0.2932  0.0769 -0.1034
20504W        W37351   6.745  11.786  13.663  0.0810 -0.4135  0.2860
20505W        W37352   2.381  11.123   1.063  0.1428  0.0354  0.0752
20506W        W37353   8.683   0.681   0.170 -0.1107 -0.2245  0.0970
20507W        W37354   8.656   8.123  10.910  0.2235  0.1714 -0.1103
20508W        W37355   1.029  13.076   1.795  0.2715  0.4284 -0.1218
20509W        W37356   8.707   1.820  10.946  0.2948 -0.2263 -0.1993
20510W        W37357  19.500  12.146  13.614 -0.0758  0.0269  0.0688
20511W        W37358   0.512   7.578  11.986 -0.2213 -0.0034  0.4063
20512W        W37359  11.431  14.824   0.011 -0.1321 -0.2845 -0.2152
20513W        W37360   6.194   9.570   1.872 -0.3868  0.0123  0.0263
20514W        W37361   7.486   9.843   0.051 -0.2902  0.1628 -0.1364
20515W        W37362   4.462  17.733   2.970 -0.0494  0.2063  0.1938
20516W        W37363   1.583   4.145   0.717 -0.0365 -0.0714  0.0234
20517W        W37364  12.328   2.105   1.801 -0.0280  0.2196 -0.3877
20518W        W37365   9.096  19.203  10.610  0.1027  0.1423  0.0236
20519W        W37366  18.273  18.570  12.953 -0.0517  0.0643  0.2593
20520W        W37367   5.461   0.947   3.262  0.0909  0.0432 -0.0631
20521W        W37368   9.963   9.129   1.939  0.0632  0.0456 -0.2816
20522W        W37369   2.546  11.563  13.857 -0.0815  0.2566  0.0629
20523W        W37370  11.211   1.804  13.324  0.0026  0.1330  0.3833
20524W        W37371   5.414  14.126  12.720  0.1153 -0.2590  0.0716
20525W        W37372  18.460  10.113   2.987  0.1870 -0.0907  0.1018
20526W        W37373   9.940  11.574  10.987 -0.1282  0.1262  0.2090
20527W        W37374  12.243  13.955   1.620  0.0367  0.2129  0.1298
20528W        W37375   7.794  12.970   0.665  0.1656  0.2062 -0.2163
20529W        W37376  15.317  17.162   2.143 -0.0920  0.1554  0.1676
20530W        W37377   8.845   7.542   1.524  0.0910  0.3756  0.0426
20531W        W37378  14.794   8.197  13.571  0.1125 -0.1890  0.0133
20532W        W37379   4.072   1.743   3.213  0.0827 -0.1497  0.0193
20533W        W37380   9.914   0.304   2.436  0.1279 -0.2086  0.0038
20534W        W37381   4.153   8.162  12.342 -0.0621  0.1145 -0.0117
20535W        W37382  15.116   1.702   2.219  0.2113 -0.0262  0.2852
20536W        W37383  12.823  12.815   0.064 -0.1361 -0.1333 -0.0532
20537W        W37384   8.725   2.577   3.052 -0.2362  0.2657 -0.0588
20538W        W37385   5.584   0.744   1.451  0.1993  0.0311  0.3497
20539W        W37386  16.441  10.648  12.441 -0.0607 -0.3518  0.2563
20540W        W37387  11.429   9.544   5.687 -0.1354 -0.1358  0.0746
20541W        W37388   7.370  19.025   2.050 -0.1175  0.2198 -0.2195
20542W        W37389   5.989   5.820  12.907 -0.1619  0.0785  0.1277
20543W        W37390   0.125  17.223   0.198 -0.0496  0.0167  0.4868
20544W        W37391  10.996   3.418  11.976 -0.0003  0.2750 -0.1761
20545W        W37392  16.436  13.335   1.195 -0.1213 -0.0340  0.1657
20546W        W37393   0.352   9.318  12.717  0.1754 -0.1991 -0.2409
20547W        W37394   4.403  18.215  13.539 -0.3387  0.2254  0.1186
20548W        W37395  10.438  10.349  14.328 -0.2151  0.2988 -0.1915
20549W        W37396   2.235   7.693   0.164  0.0280 -0.1389 -0.2560
20550W        W37397  12.787   8.007  14.260 -0.0751  0.1100 -0.2700
20551W        W37398  10.705   6.522  14.244 -0.1290  0.0948 -0.4466
20552W        W37399   5.604   9.224  12.258  0.1538 -0.3093  0.1997
20553W        W37400  17.976   6.032  13.816 -0.3527 -0.1010 -0.0638
20554W        W37401   9.284  13.876  12.563  0.0700 -0.3573  0.2122
20555W        W37402   1.758   5.997  10.435 -0.1572 -0.0839 -0.2006
20556W        W37403  13.741   3.998  11.979  0.0192 -0.1812 -0.1477
20557W        W37404  15.209   4.168  13.623 -0.0040 -0.1732 -0.1744
20558W        W37405   2.738   0.129   2.189  0.0250  0.3375  0.0654
20559W        W37406  11.196  19.277   0.566 -0.5040 -0.2031 -0.0593
20560W        W37407   8.786  13.282  14.522  0.1335 -0.3863  0.1042
20561W        W37408  10.783  10.197  13.185  0.1358 -0.0213 -0.2905
20562W        W37409   0.893   1.789  13.202 -0.0171 -0.0256 -0.0656
20563W        W37410   8.450   7.787   1.785  0.2272  0.2660 -0.0995
20564W        W37411   2.528  12.490   1.172 -0.0451  0.1459  0.4135
20565W        W37412   9.280   1.318  12.616 -0.0470  0.1684  0.1205
20566W        W37413  19.438  18.292   3.035 -0.2372  0.0851  0.0847
20567W        W37414  13.843  16.397   0.041  0.0636  0.2027  0.2983
20568W        W37415   4.992   0.867   9.263  0.2601  0.1196 -0.0185
20569W        W37416   6.901  12.969   3.763 -0.0574  0.0255 -0.0996
20570W        W37417   2.232   1.682  10.567  0.1241  0.0927  0.1801
20571W        W37418   6.777   7.517   2.237 -0.1592 -0.1002 -0.0058
20572W        W37419  10.848  17.859   9.835 -0.0104  0.1092  0.2342
20573W        W37420   2.364   5.719   2.580  0.1045 -0.0515 -0.3200
20574W        W37421   1.440   3.860   1.543 -0.0184 -0.0897 -0.2327
20575W        W37422   6.655   5.864   2.408 -0.0622 -0.1122 -0.0386
20576W        W37423  17.638   1.060  11.196 -0.2133 -0.1267 -0.1194
20577W        W37424  14.714  14.825   0.806 -0.0338 -0.1801 -0.1785
20578W        W37425  15.616  14.381  11.535 -0.1645 -0.0528  0.2068
20579W        W37426   8.241  10.750   9.486  0.0605 -0.0796  0.5069
20580W        W37427   8.965  10.794   2.751  0.3345  0.2134 -0.1324
20581W        W37428   4.020  10.858   4.222  0.1799  0.3317 -0.1373
20582W        W37429  18.871   7.799   2.760 -0.1669 -0.2135  0.0180
20583W        W37430  14.103   6.153   1.519  0.1077  0.0818 -0.1333
20584W        W37431  12.644  12.563  11.380  0.0010 -0.2519 -0.0534
20585W        W37432   4.767   9.887  12.175  0.1729  0.1611  0.0918
20586W        W37433   0.656   2.311   2.708  0.2019 -0.2074 -0.2150
20587W        W37434  11.178  12.853  10.662 -0.0428  0.4453  0.3183
20588W        W37435   7.199   9.008   3.751  0.2204 -0.2174  0.2035
20589W        W37436   8.301  14.019  12.164  0.0412 -0.3792  0.1885
20590W        W37437   7.849  10.297  13.460  0.0168  0.1352  0.4626
20591W        W37438   6.933   9.835   1.148 -0.1311  0.0598  0.0267
20592W        W37439   2.824  12.935   1.750  0.0637 -0.0301 -0.0802
20593W        W37440  15.108   2.154  10.721 -0.2733 -0.5837 -0.2086
20594W        W37441  12.288   4.170  10.998 -0.0323 -0.1888  0.1417
20595W        W37442   6.227   7.355  12.422 -0.4388 -0.2788 -0.2583
20596W        W37443  17.464   8.331  13.807 -0.0663 -0.0206 -0.1685
20597W        W37444  19.406   3.122  12.298 -0.3974 -0.1209  0.1168
20598W        W37445   8.583   2.155   2.764  0.0824 -0.3805 -0.4322
20599W        W37446   0.118   5.432   3.941 -0.1391  0.3089  0.1001
20600W        W37447  14.997   5.479   4.178  0.0382 -0.0626 -0.0518
20601W        W37448   1.825   3.915  11.077  0.1937  0.1055 -0.2580
20602W        W37449   3.936  12.284   5.318 -0.2045 -0.2102 -0.2477
20603W        W37450   5.103   1.468  14.368  0.0649 -0.0583 -0.2291
20604W        W37451   8.634  17.906   1.461  0.1212  0.0528  0.0559
20605W        W37452  18.137   4.457   0.375  0.0377 -0.0504 -0.1575
20606W        W37453   4.179  18.471   2.629  0.2879 -0.0893  0.1679
20607W        W37454   8.808   5.821  11.219 -0.4144  0.0307 -0.0533
20608W        W37455  17.321   2.105  13.217  0.0163  0.3711  0.0867
20609W        W37456  11.954  17.969   4.066  0.3427 -0.2581  0.2660
20610W        W37457  10.491   4.591  12.162 -0.1400 -0.2236  0.0652
20611W        W37458  15.149  11.747   3.017 -0.0576  0.0752 -0.2013
20612W        W37459  14.587  16.962  10.494 -0.2014 -0.0744 -0.1985
20613W        W37460  14.078  14.224  13.446  0.1307  0.2644 -0.1867
20614W        W37461  15.924   6.149  13.759 -0.0200 -0.1475  0.0355
20615W        W37462  10.892   4.109   0.127 -0.2681  0.0923  0.0766
20616W        W37463   7.924  17.397   1.984 -0.0190  0.1567  0.0110
20617W        W37464  18.824   7.184   2.882  0.5089 -0.0539 -0.0274
20618W        W37465  18.981  11.084  12.179 -0.1944 -0.0880  0.1583
20619W        W37466  12.902  17.576   1.416  0.1895  0.1247 -0.0793
20620W        W37467  14.448  13.037  11.052 -0.0068 -0.0296  0.2813
20621W        W37468   8.963  12.968   1.345 -0.0551  0.1541 -0.0586
20622W        W37469   6.353  13.722   3.240 -0.0562 -0.1996 -0.0090
20623W        W37470   5.568  19.475  14.288  0.1842 -0.2639 -0.0969
20624W        W37471  18.137   7.718   0.122  0.1820  0.0193 -0.0319
20625W        W37472   7.847   5.015  13.080 -0.1310  0.0791 -0.0845
20626W        W37473   8.191  10.957   1.412 -0.0886  0.1041 -0.0243
20627W        W37474  11.629  15.389   2.694 -0.4284 -0.0397  0.0101
20628W        W37475  16.300   7.385  10.880 -0.1937 -0.0693 -0.2328
20629W        W37476   1.267  13.850   3.834 -0.1483  0.4465  0.4180
20630W        W37477   1.464  11.339  12.425  0.0871  0.1271 -0.0782
20631W        W37478   8.241   0.188   9.865 -0.0847  0.3204 -0.0450
20632W        W37479  15.014   2.019  12.041  0.0788 -0.0697  0.2679
20633W        W37480  13.339   6.935   2.027 -0.1873 -0.0846  0.0117
20634W        W37481   5.968   2.897   3.329  0.1279 -0.0785  0.0561
20635W        W37482  15.085  19.164   4.581 -0.1487  0.1078  0.1892
20636W        W37483   7.313   6.625   2.290 -0.1695 -0.1004 -0.1084
20637W        W37484   7.829  15.968   0.154  0.0383  0.2766  0.0670
20638W        W37485  12.152   3.428  13.674  0.1789  0.2591 -0.0841
20639W        W37486  15.349   0.188   1.962  0.1103 -0.2454  0.1536
20640W        W37487   3.310   9.428   2.939  0.0832 -0.0245 -0.1007
20641W        W37488   8.042  19.403   3.431 -0.1428  0.4125  0.0770
20642W        W37489   8.952   8.764  10.476  0.2683 -0.1973 -0.0543
20643W        W37490   8.145   5.289   1.970  0.4587  0.0991  0.1008
20644W        W37491  10.685  17.564   3.767  0.0941 -0.0371 -0.1017
20645W        W37492   7.349   5.286   4.673  0.3432  0.0119 -0.0631
20646W        W37493   0.191   1.435  10.203 -0.0995 -0.2347 -0.0558
20647W        W37494  18.264  16.542   1.893  0.1157 -0.1113 -0.3154
20648W        W37495   0.851   5.117   4.560 -0.0088 -0.3825  0.0240
20649W        W37496   5.023  17.335  10.685  0.2241 -0.1429  0.1283
20650W        W37497  14.357   1.892  11.708 -0.1524 -0.0447 -0.0269
20651W        W37498   8.087  15.417   3.655  0.0143 -0.2259 -0.1720
20652W        W37499  18.199  18.808  10.783 -0.1898  0.1157  0.1624
20653W        W37500   9.377  16.256  10.670  0.1693  0.2721 -0.3471
20654W        W37501   4.174  16.728  11.373  0.0308 -0.1009  0.1500
20655W        W37502   4.006   5.934  12.025 -0.0411  0.0468  0.2556
20656W        W37503  13.060  16.346  13.323 -0.0163 -0.1568  0.1684
20657W        W37504  15.406  12.700   3.209 -0.4302  0.0716  0.2791
20658W        W37505   2.143   4.463  13.417  0.3293  0.3062  0.1306
20659W        W37506  11.306   0.910   3.636 -0.1234 -0.0907 -0.0783
20660W        W37507  12.067   4.302   9.281  0.0076 -0.3131  0.1582
20661W        W37508  12.405  18.177   4.021 -0.0946  0.0923  0.0847
20662W        W37509  14.934   8.284   4.712 -0.1337 -0.0899 -0.0778
20663W        W37510  11.142  14.049   3.554  0.0110 -0.2581 -0.0629
20664W        W37511   8.124  13.918   2.448  0.0572 -0.1692 -0.0275
20665W        W37512   5.000  10.195  13.612  0.1181  0.1359 -0.1316
20666W        W37513   0.122   3.093   4.618  0.1883  0.0302  0.2022
20667W        W37514  11.584   8.863  13.140  0.0249 -0.0409  0.0642
20668W        W37515  18.970  10.689   0.326  0.1083  0.4275 -0.0087
20669W        W37516  18.039   1.208   1.650  0.1939 -0.0193  0.1541
20670W        W37517  17.909   2.087  10.061 -0.1674  0.0358 -0.2346
20671W        W37518  12.228   5.127   0.403  0.2121  0.3981 -0.2105
20672W        W37519  16.549  12.477   1.767  0.3755 -0.0329  0.1786
20673W        W37520   1.815   4.773  10.460  0.0705  0.1819  0.0588
20674W        W37521  17.519  15.642   0.794 -0.3814  0.0049  0.2158
20675W        W37522  13.953   8.529  14.368  0.2734 -0.2797  0.1567
20676W        W37523   9.548  15.060   4.465  0.0587  0.2189 -0.1852
20677W        W37524   9.935  14.142   0.221  0.0121  0.2472 -0.2104
20678W        W37525   2.198   7.755  11.235 -0.1329  0.5736  0.3233
20679W        W37526  10.525  12.572   4.396  0.3006 -0.2544 -0.2341
20680W        W37527  17.376  16.917  11.508  0.0057  0.0044  0.1005
20681W        W37528   1.653   2.794   4.736 -0.0901  0.0013 -0.0738
20682W        W37529  16.794   5.531  12.543  0.2369 -0.1677 -0.0201
20683W        W37530  12.353   6.579   2.018 -0.1599 -0.1853  0.2207
20684W        W37531   1.187   6.395  12.576 -0.3411 -0.2494 -0.0912
20685W        W37532   9.436  12.731  11.797 -0.0622  0.2960 -0.0745
20686W        W37533  18.321   8.459  14.119  0.0474 -0.0780  0.3622
20687W        W37534   5.573   9.700  10.176 -0.4972  0.0582  0.0013
20688W        W37535   9.105  12.631   0.326  0.2824  0.1268  0.0707
20689W        W37536  15.406   8.145   3.764 -0.0936  0.2194  0.0737
20690W        W37537  14.928  16.483   2.400 -0.2553  0.1821  0.0826
20691W        W37538   0.488   3.382  13.489  0.2665  0.0482  0.1133
20692W        W37539   8.655   9.322   1.673 -0.0212 -0.1427  0.0396
20693W        W37540   8.607  18.237  12.826 -0.1480  0.2612  0.1908
20694W        W37541  11.648   1.204  11.789  0.1341  0.3573 -0.1460
20695W        W37542  19.457  17.290  12.544  0.2640  0.1802  0.1656
20696W        W37543   1.427  17.377   1.079 -0.3813  0.1799 -0.0555
20697W        W37544  18.836  11.247   1.822  0.0658 -0.0368  0.2003
20698W        W37545   5.991   0.442  13.704  0.2367 -0.0118 -0.4250
20699W        W37546   0.191  15.636   4.765 -0.0569 -0.1215 -0.1635
20700W        W37547   1.976   4.728  14.401  0.1110 -0.0421  0.4495
20701W        W37548   2.257  11.453   1.499  0.3139 -0.0983  0.0105
20702W        W37549  13.078   2.567  14.540  0.0201 -0.1332  0.1132
20703W        W37550   8.262  13.941  10.794  0.0475 -0.1729 -0.0466
20704W        W37551  17.300   8.967   0.249  0.1920 -0.2223  0.2317
20705W        W37552   0.486  18.989   4.204 -0.4925 -0.1283  0.0654
20706W        W37553  11.449   0.131  13.107 -0.0508 -0.1680 -0.3804
20707W        W37554  19.193  10.448  11.503 -0.2036 -0.2157 -0.1149
20708W        W37555  10.794  15.773   0.346 -0.0087 -0.1266 -0.1612
20709W        W37556   7.915   1.146   4.400  0.1902 -0.2424  0.4410
20710W        W37557  18.740   0.543  12.712  0.1131  0.2316  0.2031
20711W        W37558   6.006   3.840   9.370  0.0892  0.5948  0.0117
20712W        W37559  11.333  16.817   3.751  0.4739  0.2101  0.0623
20713W        W37560  17.252  12.114   4.977  0.2932 -0.0270 -0.1668
20714W        W37561  19.206   5.389   3.117 -0.2967 -0.1273  0.1986
20715W        W37562  17.823  15.196   1.114 -0.3239 -0.0713 -0.3019
20716W        W37563   2.576  10.816  13.040 -0.0491 -0.0015  0.0670
20717W        W37564  11.218  16.439  14.072 -0.1758 -0.0876  0.0718
20718W        W37565   7.066   7.145   0.092 -0.4351  0.1078  0.0949
20719W        W37566  12.450  17.961  10.701 -0.3385  0.2813 -0.3328
20720W        W37567  10.101  18.613   0.945 -0.2702  0.2874  0.0008
20721W        W37568  11.743  11.288   1.487 -0.2373 -0.0589 -0.0007
20722W        W37569  11.458  15.448  12.401  0.0691 -0.1377 -0.0605
20723W        W37570   7.965   1.291   1.406  0.3134  0.3320 -0.1151
20724W        W37571   3.442  19.200  12.544  0.0220  0.1497 -0.2104
20725W        W37572  10.907   5.521   0.595 -0.1606  0.0384 -0.1463
20726W        W37573   9.880  10.553  12.156 -0.2018  0.2115 -0.0764
20727W        W37574  17.587  11.466  14.605 -0.3752 -0.1522 -0.0375
20728W        W37575  13.551   9.789  14.061  0.0178 -0.0884  0.1742
20729W        W37576   6.574   2.927  10.863 -0.1533 -0.3081  0.0928
20730W        W37577  12.613   3.676  11.648 -0.2518 -0.0081 -0.2528
20731W        W37578  11.135  11.992  14.346 -0.0525  0.2169  0.1173
20732W        W37579   3.526   2.323   0.713 -0.2617  0.0060 -0.1415
20733W        W37580   5.834  18.687  10.550 -0.1153 -0.1647 -0.5080
20734W        W37581  11.353   9.602   1.611  0.2642  0.3285 -0.1369
20735W        W37582  10.492  17.542   2.801 -0.4411  0.2343  0.1194
20736W        W37583  15.422   9.362   4.578  0.1370 -0.1236 -0.0976
20737W        W37584  16.181   1.794  14.436  0.2318  0.1520 -0.2490
20738W        W37585  18.199   8.669   9.350 -0.1316 -0.0361 -0.1990
20739W        W37586   0.294   3.866  10.182 -0.3280 -0.5910 -0.0895
20740W        W37587   0.962  18.901  13.917  0.0814 -0.0998  0.1973
20741W        W37588  19.122   5.446   4.218  0.0192 -0.0424  0.1906
20742W        W37589   6.906  13.557   0.586 -0.0457  0.1707 -0.2045
20743W        W37590   4.294   3.566   3.664  0.0690 -0.2835 -0.0503
20744W        W37591   8.522   5.638  12.622  0.4056  0.0043  0.0152
20745W        W37592   6.294   4.530  13.563 -0.2475  0.2109  0.1560
20746W        W37593  13.862   7.024  12.135  0.0068  0.2564  0.6404
20747W        W37594  18.668  15.449   1.661  0.1357  0.0556  0.1423
20748W        W37595  19.031   0.270   4.296 -0.2000  0.2366  0.0161
20749W        W37596  10.733  10.223  12.666 -0.2444  0.1558  0.0325
20750W        W37597  14.712   8.004  10.720 -0.2553 -0.1651  0.1459
20751W        W37598  18.279  19.398  12.197  0.1194 -0.0685  0.2255
20752W        W37599   3.703  15.846   1.842 -0.0601  0.1605  0.2116
20753W        W37600   6.549   0.731  14.394 -0.0181 -0.1914 -0.3534
20754W        W37601   5.973  17.906  11.972 -0.3047  0.1193  0.0826
20755W        W37602  13.066  12.733   1.651  0.0758  0.2732  0.0554
20756W        W37603  18.121   5.318  12.351  0.1316 -0.0901 -0.2799
20757W        W37604   4.506   0.181   2.716  0.1643  0.1452  0.0230
20758W        W37605  10.586   6.754  11.854  0.1169 -0.0209  0.1978
20759W        W37606   5.074   5.242  11.990 -0.1818 -0.1078  0.0609
20760W        W37607   4.449   7.541  11.362  0.0665  0.1361  0.2877
20761W        W37608   7.397   7.867   1.156 -0.3319 -0.1753  0.3545
20762W        W37609   3.359  18.039   3.363  0.0190  0.0637  0.1106
20763W        W37610  19.378  10.428  10.246 -0.1628  0.1549  0.2108
20764W        W37611   2.649  17.854  13.376  0.1996 -0.2012  0.1073
20765W        W37612   3.362  12.287   4.773 -0.3734 -0.1087  0.2650
20766W        W37613   1.538   8.378  12.521 -0.1208  0.0109  0.0346
20767W        W37614   4.133   4.543   2.795  0.0027  0.3538 -0.1132
20768W        W37615   7.906   9.188  13.970  0.2708 -0.3864  0.1858
20769W        W37616   9.942  17.869  10.935  0.0916  0.2013  0.1589
20770W        W37617   4.215  18.928  11.055 -0.1651 -0.2301 -0.2607
20771W        W37618  11.073  17.405  11.888 -0.1642  0.0961  0.0890
20772W        W37619  14.857   7.350  11.336 -0.1820  0.1989 -0.2006
20773W        W37620  12.365   6.222  12.369 -0.1859  0.0693 -0.0775
20774W        W37621   2.115   1.874  12.263  0.2612  0.3773  0.1230
20775W        W37622   8.749  18.259   4.023 -0.1089 -0.1535  0.3677
20776W        W37623   2.777   8.906   2.545 -0.2690  0.0878 -0.2306
20777W        W37624   5.046   6.333   2.695  0.0428  0.1235  0.0210
20778W        W37625   1.490   3.060   4.369 -0.4291  0.0911  0.1987
20779W        W37626   2.193  17.406  11.792 -0.3374  0.2572 -0.0174
20780W        W37627  15.535   4.871   0.082  0.2585  0.3028 -0.0063
20781W        W37628   2.040  10.154   3.584 -0.1692  0.0944 -0.0297
20782W        W37629   3.145   1.727   4.896 -0.2167 -0.0480 -0.4257
20783W        W37630  10.962   7.865   1.399 -0.0788 -0.0954 -0.1957
20784W        W37631  18.426  10.589   9.743  0.0417 -0.2198 -0.0963
20785W        W37632  18.347  10.074  11.117  0.1151 -0.0657  0.1525
20786W        W37633  10.604  12.313   0.612  0.0072  0.0300  0.1433
20787W        W37634  15.282   5.512   1.111  0.1487 -0.1334 -0.1109
20788W        W37635  18.704   8.807  10.721 -0.3251  0.1663  0.0423
20789W        W37636   3.905  16.224   4.041  0.0664  0.4039 -0.0879
20790W        W37637   9.765   2.709  13.698 -0.1019  0.1053  0.0881
20791W        W37638   8.788   6.303  10.152  0.0710 -0.0062  0.1992
20792W        W37639   5.142  17.488   2.918 -0.0876 -0.1943 -0.0220
20793W        W37640   9.114   9.566   4.379 -0.2208 -0.0321  0.2434
20794W        W37641  17.219  10.952   1.493 -0.1248  0.1979  0.5537
20795W        W37642  10.950   2.476  12.086 -0.0908  0.1481 -0.2595
20796W        W37643  18.741   5.417  13.798  0.1094  0.0146 -0.0820
20797W        W37644  18.057   0.387  12.693 -0.2677  0.2153 -0.0457
20798W        W37645  12.949   5.453   0.574  0.0150  0.0010 -0.0639
20799W        W37646   1.730   5.689   2.443  0.2699 -0.2688  0.1571
20800W        W37647  18.628  17.035  13.058 -0.1140 -0.1095  0.1714
20801W        W37648   5.295  13.228  11.210 -0.0046 -0.1410  0.4876
20802W        W37649  11.476  13.708  13.264  0.0614  0.1806 -0.3629
20803W        W37650   3.991   6.316   0.417 -0.5266 -0.3298 -0.1302
20804W        W37651   7.632   7.223   2.488  0.1085  0.1118 -0.2550
20805W        W37652   9.959   2.597   3.585 -0.6803 -0.0006 -0.0078
20806W        W37653   4.605   6.533   2.895  0.2303  0.3333 -0.0087
20807W        W37654  12.438  16.200  14.462 -0.3712 -0.0234 -0.0239
20808W        W37655  14.513   4.257   4.735  0.1613  0.2072 -0.0254
20809W        W37656  14.965  15.779  14.480 -0.1737  0.1929  0.2844
20810W        W37657  19.398   6.811   2.711 -0.1695  0.1952  0.2053
20811W        W37658  19.315  13.181   2.128 -0.1609 -0.3981  0.3822
20812W        W37659   4.659  17.247  11.528 -0.2521 -0.0427  0.3408
20813W        W37660  14.456  15.209   2.796 -0.0165 -0.1205  0.1074
20814W        W37661  14.316   3.197   8.888 -0.0555  0.0175  0.1372
20815W        W37662  15.543   9.838  12.431 -0.1621 -0.1913 -0.1495
20816W        W37663  11.725  17.538  11.037 -0.0887  0.1635  0.2069
20817W        W37664   2.663  10.098   0.030 -0.1064  0.1017  0.4111
20818W        W37665   3.145   0.871   0.749 -0.3963  0.2955 -0.2941
20819W        W37666  16.575   2.542   1.266 -0.0147 -0.1827  0.0199
20820W        W37667  14.641   0.668  13.211  0.1787 -0.0073 -0.0266
20821W        W37668   7.212   9.089  13.628  0.0353  0.1038  0.2276
20822W        W37669   2.645   8.058   3.881  0.2483 -0.1375 -0.0554
20823W        W37670   0.063  12.591   3.311 -0.1951  0.0931 -0.0728
20824W        W37671   6.363   0.524  13.357 -0.1210  0.2693  0.1088
20825W        W37672   7.964  10.065   2.682 -0.2568 -0.2321 -0.2619
20826W        W37673  15.606   2.960   2.409  0.1281  0.0620 -0.2367
20827W        W37674   5.477   7.263   1.083 -0.1613  0.3050  0.0280
20828W        W37675   9.856   4.492   5.122 -0.3255  0.1948 -0.1165
20829W        W37676  18.333  13.023   1.675 -0.1553  0.0880 -0.3137
20830W        W37677  10.001  17.341  10.779 -0.0519  0.1999 -0.1225
20831W        W37678   9.093  18.190  13.004 -0.1385  0.0100 -0.0110
20832W        W37679   6.382  18.376   1.544  0.4824  0.1855  0.4798
20833W        W37680   2.101  18.726  11.949 -0.1603 -0.0163  0.0436
20834W        W37681   5.002  17.822   0.923  0.0959  0.0374 -0.0925
20835W        W37682   2.491   3.446   4.928  0.3415  0.0821  0.1067
20836W        W37683  17.284  11.474   4.389 -0.1731  0.0294  0.1361
20837W        W37684  14.098   9.851  10.913  0.2274 -0.1915 -0.0437
20838W        W37685  11.414  19.223   2.018 -0.2442  0.3943  0.0815
20839W        W37686   7.368   5.021   5.341 -0.2206  0.1600  0.1722
20840W        W37687   7.177   3.207   0.407  0.0071  0.0327  0.1117
20841W        W37688   9.849  15.738  13.595  0.0951 -0.1694  0.1048
20842W        W37689   5.284   9.145   3.740 -0.1648  0.2916 -0.1153
20843W        W37690   5.580   7.883   3.213  0.0369  0.0172  0.0227
20844W        W37691   6.970   9.838  10.476 -0.0008  0.0631  0.0289
20845W        W37692   8.350  16.158   0.306 -0.0708 -0.0149  0.3089
20846W        W37693  15.431   2.783  14.084  0.3137 -0.0628 -0.3682
20847W        W37694   2.934  13.843   9.211  0.1908 -0.0491 -0.1014
20848W        W37695   1.268  11.726  12.207 -0.0450  0.1523 -0.0758
20849W        W37696  14.331  19.418  13.245 -0.1256 -0.0791  0.0983
20850W        W37697   1.359  12.959  12.854 -0.2262 -0.0661  0.1274
20851W        W37698   4.120   7.368  10.967  0.1699 -0.0850 -0.1802
20852W        W37699   5.342  13.356   2.214 -0.0796  0.2237 -0.1446
20853W        W37700   4.786   7.655   9.975  0.1117 -0.1341 -0.3254
20854W        W37701   0.663   1.587  10.334 -0.3006 -0.0998  0.1219
20855W        W37702   0.956  11.528   2.742  0.2766  0.1203  0.0417
20856W        W37703   7.254  19.378  12.888  0.2491  0.0780  0.3303
20857W        W37704   7.837  18.286  13.482 -0.0505 -0.2640 -0.1660
20858W        W37705  16.947   9.111  11.287 -0.0960 -0.0382  0.3185
20859W        W37706   0.025  14.601   3.250  0.2381 -0.1169  0.3465
20860W        W37707  14.342   1.684  11.249 -0.0361 -0.0495  0.2247
20861W        W37708  11.999  17.580   2.195 -0.2695  0.0921  0.3332
20862W        W37709   1.214  16.611   4.313  0.1113 -0.1940 -0.0462
20863W        W37710  17.073   9.081  13.988  0.1477 -0.0047  0.0473
20864W        W37711  16.912   7.579   3.809  0.1786 -0.0198 -0.3114
20865W        W37712  12.525   5.355  10.085 -0.1190  0.0556  0.3435
20866W        W37713   1.225  10.127   4.054  0.2587 -0.0879  0.0884
20867W        W37714  18.520  10.566   4.482 -0.1798 -0.2875 -0.0507
20868W        W37715  12.915   6.520   3.497 -0.1401  0.5326  0.0447
20869W        W37716   8.256   4.720   1.640  0.2291 -0.0124 -0.2976
20870W        W37717  19.185   6.601  11.887 -0.0345 -0.1545  0.4442
20871W        W37718  13.696   6.165   1.920  0.2606  0.0739 -0.3216
20872W        W37719  15.083   7.846   9.219 -0.0687  0.2688 -0.4502
20873W        W37720   0.386  11.145  14.404 -0.0237  0.0531  0.2987
20874W        W37721  16.134  19.198   0.284 -0.3363 -0.1345 -0.3572
20875W        W37722   8.877   5.141  11.876 -0.4389 -0.1889  0.2268
20876W        W37723  14.179   0.159   0.464  0.0393 -0.2602 -0.0310
20877W        W37724  19.402   0.554   2.547  0.0592 -0.0855 -0.0183
20878W        W37725  15.802   7.220   3.797  0.2431  0.4801  0.3533
20879W        W37726  15.166   5.553   9.576 -0.1753 -0.2294 -0.0547
20880W        W37727  13.110   0.460   4.719 -0.1471 -0.3331 -0.0373
20881W        W37728   8.675   5.247   2.385  0.1503  0.0261 -0.2531
20882W        W37729  19.089   8.318  13.917 -0.2068 -0.1365  0.1308
20883W        W37730   7.215  10.559   4.353  0.1973 -0.1765  0.0245
20884W        W37731  14.849   6.638  13.957 -0.1579 -0.3366 -0.2135
20885W        W37732  12.399  19.487   1.086  0.0411 -0.0844 -0.0232
20886W        W37733   1.303  15.847   4.378  0.2028  0.1701  0.1001
20887W        W37734   7.466   2.992  10.838 -0.0085 -0.0639 -0.2431
20888W        W37735   4.466   3.880  11.922  0.0316 -0.2845  0.1385
20889W        W37736   1.601   0.544  13.005  0.1647 -0.1327  0.2419
20890W        W37737   7.035   4.240   3.129 -0.0115  0.3801  0.0409
20891W        W37738   1.835   1.615   1.948 -0.0396 -0.3207  0.0516
20892W        W37739  11.117  14.540  12.553  0.0032  0.2387 -0.0176
20893W        W37740   1.859   9.041   1.198 -0.1109 -0.3878 -0.4266
20894W        W37741  16.918   3.586  13.507  0.0354  0.3993  0.1636
20895W        W37742  12.199   0.468  10.320 -0.1703 -0.0167 -0.1525
20896W        W37743  18.810   9.375   1.834  0.0929 -0.1349 -0.1682
20897W        W37744   9.938   7.787   2.507  0.2041  0.3087 -0.0792
20898W        W37745  14.921   7.354  11.853 -0.1760  0.0311  0.0830
20899W        W37746  14.868  10.702   3.919 -0.0277 -0.0327  0.0406
20900W        W37747  18.603   6.065  12.653 -0.0901  0.2275  0.1894
20901W        W37748   8.328  17.267  11.674 -0.1463  0.0239  0.2684
20902W        W37749   6.005  11.654  11.617 -0.0033 -0.0536 -0.0365
20903W        W37750  18.186   6.380   3.567  0.0159  0.1387  0.0919
20904W        W37751  10.167  14.340   4.516  0.1346 -0.1209 -0.3098
20905W        W37752  15.088   6.899  13.065  0.1852 -0.2960 -0.0950
20906W        W37753  14.349  13.564  10.882 -0.0646  0.1764 -0.1772
20907W        W37754  10.563  17.888  14.218 -0.1830  0.0932 -0.1600
20908W        W37755   1.874   9.852   2.340 -0.1515 -0.1987  0.0187
20909W        W37756   9.557  12.116   4.147 -0.0162 -0.0432  0.1441
20910W        W37757  13.653  16.688  12.580  0.3612 -0.1125 -0.0774
20911W        W37758  16.521   3.581  11.458  0.0719 -0.0596 -0.0765
20912W        W37759  13.646  18.787   4.554  0.0882  0.0740 -0.1862
20913W        W37760  12.995  18.827   0.133 -0.0249  0.0694  0.1160
20914W        W37761   3.662  18.740   4.197  0.3307  0.0958 -0.0553
20915W        W37762   9.624   0.714  10.795 -0.1324 -0.3226  0.1512
20916W        W37763  11.171   2.773   3.631 -0.0788  0.2547 -0.4148
20917W        W37764  13.964   9.177   3.643 -0.0223 -0.0073 -0.1310
20918W        W37765   3.168   3.500   3.589 -0.3083  0.1084  0.1720
20919W        W37766  15.233   7.753   1.080  0.0425  0.4570  0.0363
20920W        W37767   7.986  16.212   3.230  0.2510 -0.1696 -0.2508
20921W        W37768   8.276   9.185  11.239  0.1060  0.1325  0.2567
20922W        W37769  15.317  10.037   3.905  0.1869  0.0201 -0.1519
20923W        W37770  11.279   3.298   3.546  0.0482 -0.1487  0.0205
20924W        W37771   1.272   1.226   0.825  0.0024  0.0889  0.0173
20925W        W37772  18.674   9.602  11.175  0.1752 -0.2134 -0.2944
20926W        W37773  12.201   2.214   4.254 -0.2080 -0.3622  0.0938
20927W        W37774   9.801   1.601   5.099  0.0796 -0.1136 -0.0444
20928W        W37775  14.824   5.807   4.589  0.3441  0.0288  0.3401
20929W        W37776   7.967  13.393   2.511 -0.3589 -0.0056 -0.1087
20930W        W37777   8.636   2.074  12.408  0.0522 -0.0993 -0.2426
20931W        W37778  11.081  14.200  12.153 -0.0693 -0.0817  0.2004
20932W        W37779  12.336  18.603  14.574  0.8089  0.1516 -0.2309
20933W        W37780  10.548   9.948   3.982  0.0869 -0.0538  0.1942
20934W        W37781   2.572  14.602   2.111 -0.0694 -0.1040  0.1808
20935W        W37782   4.491  11.188   0.359  0.1901 -0.2336 -0.1107
20936W        W37783   9.732   4.379  13.274  0.1658  0.1718 -0.1506
20937W        W37784  16.896  15.381   0.172 -0.0350 -0.0072  0.1587
20938W        W37785   4.934  18.100   1.443 -0.2001 -0.0712  0.0049
20939W        W37786   4.026   9.622  11.610  0.1164  0.0249 -0.0981
20940W        W37787   4.122   9.374   1.536 -0.0983 -0.3207  0.0685
20941W        W37788  17.577   5.117   5.230 -0.1037 -0.1837  0.2011
20942W        W37789  11.921   3.661  13.275  0.1814  0.0228  0.0234
20943W        W37790  17.445  18.909   9.365  0.0224  0.0592  0.1625
20944W        W37791  11.184   3.584  10.670 -0.0075 -0.1417  0.2324
20945W        W37792  18.555  10.347  10.778  0.2422  0.1830 -0.0371
20946W        W37793   4.797  14.766   2.217  0.0694  0.3462 -0.1662
20947W        W37794   2.456   1.001   4.019  0.0733 -0.0727  0.2076
20948W        W37795  16.668   6.245   2.261 -0.0907  0.0437 -0.0654
20949W        W37796   6.434  15.259  11.574 -0.1595  0.1077  0.4784
20950W        W37797   4.469  17.599  11.940  0.1059 -0.0617 -0.2789
20951W        W37798  19.415   7.373   5.516 -0.0546 -0.0694 -0.2148
20952W        W37799   0.823   1.600   2.154 -0.3423  0.0550 -0.0814
20953W        W37800   1.167  18.716   0.120 -0.2038  0.2862  0.2111
20954W        W37801  15.460   6.488  10.886  0.0827 -0.0423  0.0028
20955W        W37802  17.617   5.054   2.455 -0.2381  0.0807 -0.0927
20956W        W37803  12.853   4.730  13.098  0.3869 -0.0081 -0.0493
20957W        W37804   3.527   0.004  14.547 -0.0222  0.2041  0.1212
20958W        W37805   7.279  17.742   0.781  0.0207 -0.4291  0.0794
20959W        W37806   0.468   5.957  14.045 -0.1008 -0.3358  0.1126
20960W        W37807  15.866   3.442  13.629 -0.4474  0.2762 -0.2233
20961W        W37808   6.146   2.736  11.523  0.3794  0.0539 -0.1779
20962W        W37809   1.431  13.215   4.775 -0.0066 -0.1190  0.1221
20963W        W37810  18.780  18.092   9.884 -0.3211  0.0249 -0.4749
20964W        W37811   3.121   5.448   4.547  0.0470 -0.1991  0.2309
20965W        W37812   4.833  16.345   2.365 -0.0015 -0.0457  0.1942
20966W        W37813  10.471  15.564   3.532  0.2165  0.0146  0.1103
20967W        W37814   7.998   0.649   9.808 -0.2064 -0.0792 -0.1082
20968W        W37815   7.814  15.571  12.002 -0.0347 -0.0286 -0.1014
20969W        W37816  13.959   9.085  11.524  0.0207  0.2405 -0.1818
20970W        W37817   3.591  14.458  11.682 -0.2542 -0.5171  0.3243
20971W        W37818  14.579   4.104   2.813  0.1022  0.0208 -0.0544
20972W        W37819   8.862  19.113  12.197  0.0316  0.2421  0.1321
20973W        W37820  15.407   1.976  14.430  0.0197 -0.1803  0.3341
20974W        W37821  18.591  15.899   2.475 -0.3072 -0.1557  0.1805
20975W        W37822   4.450   1.300   1.779 -0.0870 -0.0981  0.2525
20976W        W37823   7.232   1.910  12.371  0.1560  0.1227  0.1260
20977W        W37824  12.696   7.290  13.171  0.0517 -0.1200 -0.3758
20978W        W37825  15.719  13.576  11.242 -0.4443  0.1305 -0.0214
20979W        W37826   7.098   2.434   0.343 -0.0132 -0.1341  0.2404
20980W        W37827  13.759  15.491   4.731  0.3416  0.2576  0.2642
20981W        W37828   9.145   3.064   4.964 -0.1734  0.3004 -0.3495
20982W        W37829   4.603   6.650   4.185 -0.1083  0.0681  0.1723
20983W        W37830  17.357  15.602   2.685 -0.0585  0.1879  0.2715
20984W        W37831  16.615   9.170   0.265 -0.3687 -0.2923 -0.0903
20985W        W37832   5.950   4.016   2.304  0.0815 -0.6059  0.2222
20986W        W37833  14.862   5.916   4.017 -0.1810 -0.1768 -0.0139
20987W        W37834  13.364   0.479   2.610  0.3379  0.1639  0.1593
20988W        W37835   9.589   2.914   3.808 -0.0543 -0.1009  0.0286
20989W        W37836   7.303  10.298   9.250  0.1758  0.1935  0.2639
20990W        W37837   5.221  12.265  12.216 -0.3101  0.2291 -0.2057
20991W        W37838  11.531  17.087  11.040  0.0861  0.1620 -0.1807
20992W        W37839  17.672  16.325   1.380 -0.3267  0.0377  0.2400
20993W        W37840   4.244   4.434  13.654 -0.4039  0.1277 -0.2445
20994W        W37841  11.421   1.703  12.866 -0.0651 -0.0959  0.1589
20995W        W37842   8.985  15.774  13.759 -0.1235  0.4423  0.1371
20996W        W37843  10.989  11.576   0.058  0.1194  0.1844  0.1852
20997W        W37844   0.286   9.760  12.974  0.1862 -0.0259 -0.2141
20998W        W37845   5.515   2.917  13.726 -0.4936 -0.0338 -0.0725
20999W        W37846   2.960  13.097  13.887  0.0069 -0.2105  0.0524
21000W        W37847  12.302   8.037   4.198 -0.0302  0.2045  0.2682
21001W        W37848  13.117  13.872  11.356 -0.1985 -0.0014 -0.2094
21002W        W37849   3.177   1.000   1.950 -0.2772 -0.0579  0.1518
21003W        W37850  10.669   0.468   3.507 -0.0151 -0.1596  0.0399
21004W        W37851  11.509   3.903   4.255  0.0006  0.2588  0.1826
21005W        W37852  12.232  16.467  12.531 -0.1294  0.4129 -0.2172
21006W        W37853  19.107  18.114  12.293 -0.4535 -0.0946 -0.0993
21007W        W37854  15.477  19.610   1.099 -0.3389  0.3814 -0.0905
21008W        W37855  13.444  18.442   2.958 -0.2004  0.2086  0.1108
21009W        W37856   4.774   6.540  11.548  0.4340  0.1210 -0.1003
21010W        W37857  17.032   1.898   0.249 -0.0115 -0.2390  0.0941
21011W        W37858   6.420   0.913  11.767  0.0720  0.0996 -0.0482
21012W        W37859  11.090  19.579   5.346  0.0047 -0.0070  0.0111
21013W        W37860   0.232  12.484  11.447  0.1431  0.2136  0.0284
21014W        W37861   0.771  14.577   4.009  0.2342 -0.1868 -0.1222
21015W        W37862   0.225  18.228  11.346 -0.0274 -0.1116 -0.0993
21016W        W37863  17.181   6.334   2.003 -0.3497  0.0488  0.0968
21017W        W37864  12.221   4.567  10.459 -0.1802 -0.1348  0.0988
21018W        W37865   8.168   0.088   1.647  0.1004  0.0015 -0.2881
21019W        W37866  11.223  19.561  14.604  0.0726  0.1965  0.2906
21020W        W37867   6.500   0.827  11.290 -0.1619  0.2376 -0.1891
21021W        W37868  13.680  14.099  13.054 -0.1363 -0.1918 -0.0550
21022W        W37869  15.732  11.214  11.436 -0.3169  0.2017  0.3613
21023W        W37870   1.835   1.761  11.865 -0.0058 -0.0565 -0.0537
21024W        W37871  15.973  19.233   4.617  0.0731 -0.1707 -0.3275
21025W        W37872  18.991   6.347  12.601 -0.2783  0.1105  0.1496
21026W        W37873  14.443   6.137   3.286  0.0122 -0.1082  0.0468
21027W        W37874  19.262   1.334  11.953 -0.0929 -0.0609  0.0344
21028W        W37875  16.728  15.134   2.965  0.2265  0.2033  0.2783
21029W        W37876  11.502  14.288  11.196  0.0506 -0.0949 -0.0307
21030W        W37877   1.017   5.114  12.111  0.0950  0.1539  0.0701
21031W        W37878   9.704   2.162  13.494  0.1503 -0.2226 -0.0470
21032W        W37879   8.889   9.889  11.324  0.2413  0.2177  0.1356
21033W        W37880  14.993  14.156  10.488 -0.0214 -0.1768  0.0850
21034W        W37881   3.121   3.167  13.727  0.0057  0.1644  0.1275
21035W        W37882  14.081   9.675  11.515  0.3158  0.2247 -0.1982
21036W        W37883   5.860  11.304   4.669  0.3351 -0.4496  0.2049
21037W        W37884  11.833   4.215  14.024 -0.2644  0.0407 -0.0632
21038W        W37885  15.357   3.753  13.321 -0.2315  0.0754 -0.2831
21039W        W37886  15.858  12.286  13.361 -0.0042  0.2243  0.0953
21040W        W37887  15.748  14.979  13.351 -0.0647 -0.1280 -0.1864
21041W        W37888   2.827  13.340   0.981  0.1328  0.2968  0.1541
21042W        W37889  12.077   6.520   1.098 -0.2406 -0.1136  0.1284
21043W        W37890  11.426  10.907   1.259  0.0934 -0.0432 -0.0801
21044W        W37891  18.798  15.781  13.406 -0.0144  0.0987 -0.0793
21045W        W37892   1.363  11.318   0.371 -0.1153 -0.1233  0.0007
21046W        W37893   1.432  10.253   0.660 -0.2393 -0.1550  0.0471
21047W        W37894  15.020   2.906   3.106  0.1246 -0.0515  0.1855
21048W        W37895   0.792   2.018  12.712 -0.0717  0.3480 -0.1127
21049W        W37896   6.209   8.240   3.134  0.1311 -0.1115  0.1343
21050W        W37897  10.924   2.146   1.792 -0.0214 -0.0234 -0.1622
21051W        W37898   9.674  13.499   1.691  0.0356  0.0815  0.0178
21052W        W37899  18.678  12.952  12.222 -0.1661 -0.2433  0.2765
21053W        W37900  18.396  15.619  14.490  0.0217  0.4522 -0.0045
21054W        W37901  15.595   5.861   0.782  0.2875  0.1183  0.1030
21055W        W37902   9.051   7.351   0.839  0.1713 -0.1038  0.0311
21056W        W37903  17.266  18.472   1.737 -0.0074  0.0390 -0.2948
21057W        W37904   5.133  10.405   3.399 -0.0370 -0.0122 -0.2895
21058W        W37905   6.741  12.937  13.446  0.2612  0.0572  0.1382
21059W        W37906   1.757  10.781   3.775  0.3794 -0.2667  0.0961
21060W        W37907   1.291   5.397   0.032 -0.1127  0.0786 -0.1297
21061W        W37908   5.971   3.369  13.594  0.0196 -0.0454 -0.1329
21062W        W37909   4.584   6.230   3.893  0.0028  0.1243 -0.3562
21063W        W37910  19.074  17.092  13.208  0.1824 -0.1074 -0.1178
21064W        W37911  16.143  18.867   4.333  0.0471  0.0814  0.0683
21065W        W37912   8.617  10.650   2.431 -0.0101  0.1616 -0.0012
21066W        W37913  13.629   6.030   4.080  0.0452  0.0469  0.0817
21067W        W37914  17.207  10.873   0.516  0.0416  0.0057 -0.0922
21068W        W37915   4.197  10.350   0.786  0.0969  0.1145  0.1168
21069W        W37916   4.779   9.650   2.756  0.1618  0.1098 -0.0051
21070W        W37917  15.110  14.188  13.073  0.0320  0.3075 -0.0252
21071W        W37918   9.902   1.247  10.460 -0.1275  0.1478  0.0104
21072W        W37919  18.991  18.609   1.259  0.2292  0.0606 -0.0036
21073W        W37920  19.311  16.064   3.054  0.1576  0.1950 -0.3437
21074W        W37921   9.327   0.515  11.652  0.1816 -0.2980  0.1618
21075W        W37922  13.821   3.810   2.746  0.0098 -0.1012  0.3889
21076W        W37923   1.110  14.121  11.074 -0.1519 -0.1303  0.1782
21077W        W37924   5.633  19.026   1.370 -0.1535  0.2037  0.1300
21078W        W37925   3.761  12.942   3.171 -0.0252  0.3248 -0.3428
21079W        W37926   0.524   0.705  10.634  0.1485  0.1239  0.2673
21080W        W37927  17.615  15.266  13.082 -0.4758  0.1241 -0.5265
21081W        W37928  15.636  10.593   2.161  0.0414  0.2036  0.1490
21082W        W37929   6.458  16.159   4.451 -0.2085 -0.1792 -0.1379
21083W        W37930   9.894   7.425   2.142 -0.1157  0.1560  0.0972
21084W        W37931   3.927   3.736   0.654 -0.0831 -0.0671  0.0116
21085W        W37932   1.028   5.771   5.011  0.1340 -0.1698  0.1813
21086W        W37933  10.815  14.509  10.684 -0.0536 -0.1794 -0.3766
21087W        W37934   6.748  13.828  13.137 -0.0045  0.2851  0.2634
21088W        W37935   1.023  15.449   0.798 -0.1824  0.4983 -0.0183
21089W        W37936  18.298   0.658   2.403 -0.2466  0.0630  0.4240
21090W        W37937  17.090   0.749   1.289 -0.0799 -0.3456  0.1266
21091W        W37938  14.925   6.528   5.371 -0.0067 -0.3966 -0.0829
21092W        W37939   2.338   7.626   9.810  0.0034  0.1143 -0.1103
21093W        W37940  19.552   2.002   1.270 -0.1607  0.2715  0.0597
21094W        W37941  17.937  11.243  12.370  0.0924  0.0445 -0.4527
21095W        W37942  13.360   6.601  13.508  0.2091 -0.1582  0.0756
21096W        W37943  10.797   0.229   3.948  0.1419 -0.0063 -0.2570
21097W        W37944   3.363   1.311  12.939 -0.0859  0.0977 -0.2594
21098W        W37945  12.841   5.319   5.105 -0.0743  0.1221  0.0525
21099W        W37946   0.576   1.972  11.185 -0.3825 -0.2186  0.0238
21100W        W37947   1.772   8.693  12.810  0.2296  0.3196 -0.1960
21101W        W37948   2.378   2.932  12.083  0.2414  0.3132  0.3237
21102W        W37949   1.656  14.952  12.902 -0.1063  0.3810 -0.2263
21103W        W37950  16.537  18.745  10.274 -0.4664  0.3266  0.1869
21104W        W37951   7.209  12.084  11.039 -0.0173  0.2346 -0.1919
21105W        W37952  11.542   9.717  10.801 -0.2056 -0.0019 -0.3229
21106W        W37953  17.002   2.811   2.011 -0.1280  0.0817 -0.0298
21107W        W37954  15.740   6.115  12.994  0.1179 -0.0235 -0.2118
21108W        W37955   1.344  17.722  12.289 -0.4186 -0.1025  0.2161
21109W        W37956  17.837  15.979  10.571 -0.0241  0.3333  0.0543
21110W        W37957   4.379  19.621  12.813  0.1218  0.0303  0.1482
21111W        W37958   1.367  13.295   0.995 -0.1655  0.1407  0.1450
21112W        W37959  11.189  13.108   4.001 -0.1311  0.0137 -0.1156
21113W        W37960   4.145   3.030  10.624  0.0068 -0.3510 -0.3785
21114W        W37961   0.351  18.350   1.971 -0.2916 -0.1372 -0.2031
21115W        W37962  19.287  10.204   1.727 -0.0803 -0.1784 -0.2303
21116W        W37963   9.291  11.632   1.615 -0.1397  0.3063  0.1680
21117W        W37964  15.460  17.790  10.781  0.1045 -0.0282 -0.0610
21118W        W37965  15.426   1.845   2.588  0.0830  0.2385  0.1052
21119W        W37966   1.413   5.623  12.968  0.0010 -0.2087 -0.0534
21120W        W37967   2.356   3.687   2.997  0.2882 -0.0176  0.1880
21121W        W37968   9.829  16.785  13.633 -0.1736 -0.0557 -0.0932
21122W        W37969  11.292  13.549   4.298 -0.3568 -0.0501  0.2568
21123W        W37970  14.924   9.999  13.128 -0.2071 -0.3506  0.4351
21124W        W37971   7.355  19.268  14.124 -0.1641 -0.1532  0.3563
21125W        W37972   6.693   5.860  12.276 -0.2213 -0.2289  0.4625
21126W        W37973   4.824  13.222   4.385 -0.2623 -0.1327 -0.0459
21127W        W37974   6.265  13.669  12.778 -0.0820 -0.2904 -0.0420
21128W        W37975   1.034  11.833   5.176 -0.0293 -0.0084 -0.0361
21129W        W37976  14.513  15.183  11.228  0.0272 -0.0835 -0.1491
21130W        W37977  10.884   3.177   3.172  0.1223 -0.0118 -0.2758
21131W        W37978  17.633  11.785  13.343  0.1176 -0.0023 -0.5626
21132W        W37979   1.616   1.208  12.457  0.1418  0.0360 -0.3487
21133W        W37980  18.048  17.067   0.928 -0.2657  0.0756  0.0119
21134W        W37981   3.326   5.261  10.517  0.0009 -0.0805  0.1332
21135W        W37982  13.630  12.769  11.721  0.1829  0.1763 -0.1210
21136W        W37983   4.687  12.502   0.937  0.0712  0.1351 -0.1983
21137W        W37984  17.304   5.670   4.634  0.1949 -0.1363  0.0378
21138W        W37985  19.436  11.391  10.979 -0.0370  0.0277  0.0112
21139W        W37986   3.652  13.132  13.621  0.0206 -0.1270 -0.1254
21140W        W37987  14.748   1.436   0.375  0.0478  0.0543  0.2533
21141W        W37988  12.749  18.764   1.717  0.1357 -0.2170 -0.2761
21142W        W37989   2.567  14.219  14.440  0.1029  0.0620 -0.0326
21143W        W37990  11.057   2.404   0.972 -0.0492 -0.0894  0.3108
21144W        W37991  11.570  12.808   0.922 -0.0917 -0.1625  0.1235
21145W        W37992  12.716   2.085  13.105 -0.2013 -0.2472 -0.3567
21146W        W37993  16.336   1.740  13.023  0.2026 -0.0893 -0.1128
21147W        W37994   9.213  18.607   3.781  0.1415 -0.3411  0.0418
21148W        W37995   6.179   9.145   2.724  0.1341  0.0931  0.0292
21149W        W37996   6.662   7.010  11.200 -0.1721 -0.4990  0.2063
21150W        W37997  19.025   8.967   4.400  0.0675 -0.0995  0.1248
21151W        W37998  11.124   7.272   5.494  0.1707  0.1617  0.2638
21152W        W37999   9.783  15.938  12.920  0.4974  0.1493  0.0119
21153W        W38000  18.377  14.106   3.347  0.0745  0.0761 -0.2155
21154W        W38001  18.791   7.497  11.888 -0.1467  0.3168 -0.3396
21155W        W38002   9.061   5.413   2.016 -0.3781 -0.1538 -0.1678
21156W        W38003  15.436   0.253   3.500  0.1240  0.5018  0.0544
21157W        W38004   6.866   8.401  13.878  0.1524  0.1824  0.1268
21158W        W38005   8.145  18.895   3.205 -0.1369 -0.1313  0.0287
21159W        W38006   3.086  13.629  11.647 -0.0795  0.0426  0.3557
21160W        W38007   9.378   1.805  13.979  0.1084 -0.1594  0.0445
21161W        W38008   9.061  10.400  10.731  0.0575 -0.0112 -0.0577
21162W        W38009  16.697   6.301   4.401 -0.1942  0.0313  0.3053
21163W        W38010   1.748   5.216  12.958 -0.2638  0.1788  0.2104
21164W        W38011  17.433   9.301  13.703 -0.1358  0.1291  0.1150
21165W        W38012   1.139  12.452   0.860 -0.0404  0.0146 -0.0496
21166W        W38013   5.696  11.412  12.449  0.0117  0.1774 -0.0144
21167W        W38014   5.628  12.228   3.553 -0.1665 -0.2841 -0.2885
21168W        W38015  10.910  11.268   4.543 -0.1621 -0.2555  0.1113
21169W        W38016   2.138  10.624  14.385 -0.1645 -0.1220  0.0425
21170W        W38017   8.066  19.329   4.039 -0.0645  0.1491 -0.0529
21171W        W38018  13.796   8.339   0.598 -0.1676 -0.1912  0.0525
21172W        W38019   1.935   8.705   9.933 -0.1767 -0.0479 -0.1337
21173W        W38020  18.786  14.617  12.955 -0.2669 -0.0683  0.1244
21174W        W38021   1.642   6.114   1.163  0.0070  0.0866  0.3501
21175W        W38022  12.669  12.602   2.100  0.1112  0.0170 -0.2787
21176W        W38023   1.693  11.861   3.259 -0.0013  0.0360  0.0570
21177W        W38024   9.426  17.006  13.776  0.0416 -0.0199  0.1317
21178W        W38025  16.886  18.454   3.377  0.0666  0.0425  0.0386
21179W        W38026  12.399  16.781   1.477  0.2044 -0.1712  0.3936
21180W        W38027  19.229  10.098   3.951  0.0367 -0.3937  0.0044
21181W        W38028  12.689   3.638   3.088  0.2179 -0.3241  0.0371
21182W        W38029   5.183  15.766  13.005 -0.1153 -0.0486 -0.2360
21183W        W38030   4.120  10.174  14.059 -0.1047  0.1394 -0.1511
21184W        W38031   3.600   3.380  13.896  0.1183 -0.1445  0.0950
21185W        W38032  18.246   7.596   4.038  0.0775 -0.0266  0.1288
21186W        W38033   0.847   8.504   1.306 -0.1051 -0.0500  0.0475
21187W        W38034   6.938  13.620  11.533 -0.0819 -0.3357  0.2442
21188W        W38035  11.931  16.113  14.117  0.2522  0.1603  0.0357
21189W        W38036  18.536  14.335  12.361 -0.1486  0.1096  0.1374
21190W        W38037   1.944  15.889   2.056 -0.1676 -0.1307 -0.2541
21191W        W38038  15.306   5.593   1.914  0.0109  0.1120  0.3188
21192W        W38039  14.664  18.374  10.922 -0.2119 -0.4501 -0.2259
21193W        W38040  18.392  14.031   2.610  0.1770  0.2458  0.1630
21194W        W38041  18.073   0.497  13.698 -0.0724 -0.2855 -0.2265
21195W        W38042  12.025  15.434  12.176 -0.0239  0.2000  0.0787
21196W        W38043  16.307  14.208   0.986  0.1261  0.1140  0.5004
21197W        W38044   6.495  16.931  10.477 -0.1765  0.0147  0.4018
21198W        W38045  19.465   8.220   1.518 -0.0596 -0.3078  0.1445
21199W        W38046   2.968   1.015  13.213 -0.4625 -0.0249  0.0348
21200W        W38047   3.830  13.882  11.846  0.0342 -0.0966 -0.1013
21201W        W38048  18.583  14.209  10.128 -0.0219  0.1854 -0.2356
21202W        W38049  12.587   1.186   2.452 -0.3650 -0.0509  0.0798
21203W        W38050   6.501   2.229   1.877  0.0946  0.0520 -0.0747
21204W        W38051  11.645  15.777   4.158 -0.4207  0.0543  0.0805
21205W        W38052   4.205   2.464   0.246 -0.0432 -0.2409  0.2052
21206W        W38053  15.865   2.536   4.192  0.1556  0.0378  0.0117
21207W        W38054  10.605  18.701  12.990  0.1040  0.4284  0.2547
21208W        W38055  10.777   4.222   5.026  0.1360  0.1106  0.0450
21209W        W38056  11.578   4.326   0.702 -0.1701  0.1806 -0.2397
21210W        W38057   9.124  16.798  12.483  0.3557  0.1154  0.0793
21211W        W38058  13.145  13.295   4.244 -0.1664 -0.1648 -0.0245
21212W        W38059  14.902  19.458  11.737 -0.4453 -0.0004  0.1172
21213W        W38060  15.345  19.445   3.521 -0.0316  0.1015  0.0916
21214W        W38061   7.558  19.396  13.700 -0.2460  0.1525  0.0974
21215W        W38062  12.986  11.708   4.088  0.1337 -0.0394  0.0168
21216W        W38063   0.674   7.726   2.942 -0.0984 -0.2716 -0.0913
21217W        W38064  10.292  16.852  13.328  0.2471  0.0037  0.0437
21218W        W38065  11.626  13.559   1.951 -0.0372 -0.0857  0.0571
21219W        W38066  15.493  15.266  10.753 -0.1825 -0.3013  0.1736
21220W        W38067  11.192  18.229  11.445  0.0221  0.0378  0.0604
21221W        W38068   4.471  10.061   2.368  0.1949  0.3064 -0.2357
21222W        W38069  10.975  15.798   3.527 -0.1677 -0.2517 -0.0144
21223W        W38070  17.236   9.313  10.947 -0.1729 -0.0395 -0.0600
21224W        W38071   8.438   4.854   3.190 -0.0142  0.0567  0.1128
21225W        W38072   2.474   8.692  14.326 -0.3772  0.4680  0.2401
21226W        W38073   6.368   5.399  10.263  0.2032  0.2447  0.2771
21227W        W38074  16.252  16.883  11.426  0.2965 -0.0627 -0.4602
21228W        W38075   9.174  19.376  13.940  0.1543 -0.2308  0.1093
21229W        W38076  18.791   4.701  12.087  0.2532 -0.0818 -0.0280
21230W        W38077   1.486   3.228   1.946 -0.0431 -0.0377  0.1441
21231W        W38078  17.760   3.793   1.633 -0.3602  0.2669 -0.1824
21232W        W38079  17.264   9.139   2.430 -0.1646 -0.0723 -0.2429
21233W        W38080  14.986  12.714   2.017  0.1476  0.0161 -0.1403
21234W        W38081  19.598   5.127   4.284 -0.1689 -0.0901  0.3138
21235W        W38082  12.293   2.820  13.783 -0.2923 -0.1579  0.0901
21236W        W38083  13.972   2.771   3.432 -0.1222 -0.2799  0.2808
21237W        W38084  17.720   9.446   3.255  0.2140  0.1565  0.1684
21238W        W38085   7.000   3.749  12.500 -0.0138  0.1709  0.2894
21239W        W38086  10.616  11.998   0.980  0.1408 -0.2286 -0.0235
21240W        W38087   3.621  11.536  13.549 -0.4561 -0.1862 -0.3571
21241W        W38088   5.740  11.162  11.986 -0.0650  0.1462 -0.2692
21242W        W38089  12.664   7.627   4.070 -0.4534 -0.0719  0.0545
21243W        W38090   3.834   9.793   0.203  0.0815  0.1313 -0.0498
21244W        W38091  12.017  10.472  11.864  0.0268  0.0594 -0.1507
21245W        W38092   7.986   4.449  11.511  0.2218 -0.0324 -0.1264
21246W        W38093   5.336  10.307  10.853  0.1514  0.0507 -0.0576
21247W        W38094   0.321  11.454   4.829 -0.3124  0.3856 -0.0311
21248W        W38095  14.756   1.177  13.937 -0.2631 -0.1613 -0.1793
21249W        W38096   9.172  18.747   4.598  0.0214 -0.2868 -0.0174
21250W        W38097  11.277   1.425  12.032 -0.1055 -0.1088  0.0494
21251W        W38098   9.965   1.266   2.372 -0.0054 -0.0465 -0.0417
21252W        W38099   0.592   8.188  13.910  0.3357  0.1585 -0.0932
21253W        W38100  12.056  16.654   0.769  0.1078 -0.1173 -0.1266
21254W        W38101  16.990   7.147  11.917  0.1317  0.2731 -0.1668
21255W        W38102  17.829   4.024   4.483 -0.0807  0.0541 -0.0288
21256W        W38103  13.033   9.009   3.922 -0.1797 -0.4015  0.0922
21257W        W38104  13.712  10.485   1.984  0.1416  0.1890 -0.1273
21258W        W38105  10.650  10.619  10.749  0.2314  0.1138 -0.0529
21259W        W38106   6.828  13.337  11.155  0.2159 -0.0924  0.3220
21260W        W38107   6.177  19.284  11.672 -0.1062 -0.2423 -0.3624
21261W        W38108  12.939  15.257  14.413  0.2272  0.0572 -0.0340
21262W        W38109  12.273  16.167   0.950 -0.1003 -0.0405 -0.2252
21263W        W38110  11.844  12.831   2.415 -0.0870  0.2580 -0.0508
21264W        W38111   6.913   9.786  13.865  0.0110 -0.2063  0.3450
21265W        W38112  18.343  15.448   1.223 -0.1981  0.4038 -0.1381
21266W        W38113   2.931   6.375   3.134 -0.1873 -0.0649  0.0966
21267W        W38114   2.407   4.391  11.176  0.0933  0.1570 -0.3553
21268W        W38115   8.811   4.239   1.165  0.0661 -0.1285  0.1523
21269W        W38116  15.866   9.109   3.367 -0.1966 -0.2644  0.0240
21270W        W38117  18.303   1.601  12.092  0.1019  0.2657 -0.2553
21271W        W38118  19.563  12.023   1.183 -0.3859 -0.0729  0.2769
21272W        W38119   0.766   1.056   1.431  0.0700 -0.2255  0.1967
21273W        W38120   4.225   3.016   3.842  0.1041  0.0631  0.1599
21274W        W38121   9.755  18.129   0.835  0.1486 -0.1514  0.0325
21275W        W38122  13.494  16.785   0.650  0.2202  0.0924  0.0110
21276W        W38123  14.406   5.447  12.164  0.1184 -0.2789  0.1161
21277W        W38124  19.593   9.496   3.496  0.0561  0.2604 -0.0940
21278W        W38125   5.568   4.127  10.767 -0.2878  0.1051  0.0954
21279W        W38126  12.044   6.716   0.323  0.1772  0.4962 -0.4163
21280W        W38127   8.621   8.996  12.583 -0.1368  0.1569 -0.1868
21281W        W38128   4.984   9.205   3.027 -0.3086  0.0935  0.0623
21282W        W38129  16.380   1.072   2.633  0.1590  0.0649 -0.0758
21283W        W38130  16.798   6.817   1.857  0.0150 -0.0087 -0.1623
21284W        W38131  13.507  12.160  10.982 -0.3574 -0.1337 -0.0095
21285W        W38132   5.714   5.414  11.020  0.2748  0.0571 -0.0465
21286W        W38133  14.237   6.750  14.182 -0.0035  0.1502  0.1774
21287W        W38134  10.470  14.156  12.916  0.1969 -0.1590  0.2485
21288W        W38135   5.876  14.094  13.012 -0.0521 -0.0406 -0.3276
21289W        W38136   2.239  18.763  10.494 -0.3138  0.1323  0.0706
21290W        W38137   1.148  14.849   5.399  0.0559  0.0014  0.1205
21291W        W38138   5.399  10.802   2.772  0.1066 -0.0099 -0.1247
21292W        W38139   9.758  11.104   4.984  0.0433  0.1079 -0.3428
21293W        W38140  14.242  12.446   1.673 -0.1603 -0.1322 -0.0906
21294W        W38141   2.838   4.815  13.287  0.0370  0.0745  0.0025
21295W        W38142  10.917  13.030   2.258 -0.1042 -0.1451 -0.0400
21296W        W38143   0.786  18.866  14.466  0.1436  0.2822  0.2643
21297W        W38144  13.911  13.897   1.157  0.4336 -0.1074  0.0858
21298W        W38145   4.675   2.661   5.074  0.0512  0.1074  0.0214
21299W        W38146  14.733  17.208  12.810 -0.0531 -0.1390  0.5227
21300W        W38147  18.527   7.378  13.046 -0.1258  0.0085  0.3218
21301W        W38148   9.048   4.996  12.816 -0.0154 -0.2470 -0.0793
21302W        W38149  16.451   4.634   2.366 -0.2908  0.2161 -0.1493
21303W        W38150   4.423  16.390  12.965 -0.0241 -0.0476  0.2001
21304W        W38151   5.981  18.608  12.330  0.1699  0.2557  0.0399
21305W        W38152  14.290  14.679  10.137  0.4206  0.0145 -0.2526
21306W        W38153  17.593   8.400   1.185  0.0986  0.0641 -0.2259
21307W        W38154   9.361  15.416  11.670 -0.1634  0.1473  0.0304
21308W        W38155   9.089   6.515  12.507  0.1751 -0.5785  0.3708
21309W        W38156   6.870   2.434  13.661 -0.1557  0.3860  0.1825
21310W        W38157   7.382   9.000   4.808 -0.1617 -0.1610 -0.3073
21311W        W38158  15.219   1.011   3.345 -0.0354 -0.1684  0.2570
21312W        W38159  18.403   8.900  12.833  0.0810  0.3318  0.0836
21313W        W38160  10.167   4.536   1.981 -0.3105 -0.0216  0.0452
21314W        W38161  14.289  10.399   0.742 -0.0115 -0.0638 -0.0616
21315W        W38162  18.459   6.227  13.894 -0.0039 -0.0803  0.2273
21316W        W38163  13.609  10.635  12.374 -0.1568  0.1927 -0.1558
21317W        W38164  16.295  17.143  13.952  0.0866  0.0336  0.2124
21318W        W38165  17.411  15.058   0.246 -0.1108 -0.1722  0.0448
21319W        W38166   5.031  18.292  10.211 -0.0697 -0.2158  0.1026
21320W        W38167  15.094  14.584   4.712 -0.0517 -0.2831  0.1501
21321W        W38168  18.206   3.217   2.869  0.0470  0.1683  0.0328
21322W        W38169  12.592   1.707   2.518  0.1814  0.1788  0.1401
21323W        W38170  11.282  12.139  13.798 -0.0638  0.1245 -0.1738
21324W        W38171   7.372  19.012   0.717 -0.0382  0.1024  0.0137
21325W        W38172   5.348  14.102   2.973  0.0392  0.0465 -0.1030
21326W        W38173   6.129  19.541  13.614 -0.0373 -0.1630 -0.3989
21327W        W38174  10.233  14.932  11.943 -0.1614 -0.2805 -0.1336
21328W        W38175   1.476   8.063   4.835 -0.0798  0.0266 -0.1332
21329W        W38176  11.417  18.229   0.460  0.3978  0.0651  0.0467
21330W        W38177   0.250   4.812  11.156  0.5245  0.1015 -0.3004
21331W        W38178  16.169  14.950  11.617  0.2182 -0.3427  0.5056
21332W        W38179   8.577  10.837   3.096  0.0023  0.4907 -0.1644
21333W        W38180  18.459   0.802  14.009  0.1134  0.0839 -0.0952
21334W        W38181   5.957  12.905   1.324 -0.0128  0.3833 -0.2915
21335W        W38182   4.898   7.943   4.620  0.0252 -0.3193 -0.2020
21336W        W38183  13.301  19.608   4.635 -0.0415 -0.3352  0.0507
21337W        W38184  19.582   7.689   3.395 -0.1389  0.2769  0.1298
21338W        W38185  10.624   1.017  11.465 -0.0748  0.0923  0.2985
21339W        W38186  12.438   1.385   4.340 -0.0182  0.1783 -0.1823
21340W        W38187  15.441  17.905   0.843 -0.2897 -0.1410 -0.0050
21341W        W38188   6.599  13.857   0.162 -0.1190  0.0445 -0.1475
21342W        W38189   3.264  13.846   0.103 -0.0536 -0.2553  0.0440
21343W        W38190  11.451  15.440   9.866 -0.0743 -0.0034  0.1128
21344W        W38191  11.769  17.206   3.941  0.1917 -0.3353  0.2139
21345W        W38192  18.713   8.863   1.839 -0.1064 -0.2720  0.2314
21346W        W38193  17.644  10.139   1.605  0.3668  0.0012  0.0865
21347W        W38194  12.341  15.662  13.855  0.2154  0.0461  0.3322
21348W        W38195   7.261  10.736   0.776  0.1283  0.0046 -0.1083
21349W        W38196  18.415   3.647  12.264 -0.4614 -0.2583  0.0148
21350W        W38197   4.709   9.368  11.865  0.0702  0.0211  0.0611
21351W        W38198  18.059  15.320  12.752  0.0371 -0.3458 -0.0467
21352W        W38199   8.600   6.312   3.117 -0.1502  0.1983  0.2564
21353W        W38200   6.067   8.572  12.152 -0.0531 -0.0536  0.3057
21354W        W38201   2.067  16.978  12.271  0.0132 -0.1708  0.3466
21355W        W38202   1.036  18.862   4.395 -0.2928  0.3420  0.0315
21356W        W38203  18.629   6.334   1.393 -0.0800 -0.4065  0.1094
21357W        W38204   1.494  15.844   4.871  0.1094 -0.2306  0.0295
21358W        W38205   1.264  14.144  13.353 -0.1451  0.0254  0.0282
21359W        W38206  19.170   0.454  11.783  0.1307 -0.2122 -0.1063
21360W        W38207  19.434   3.175  11.425 -0.0429 -0.1750 -0.1811
21361W        W38208  15.270  12.392   1.679  0.1470  0.3783  0.0846
21362W        W38209   5.671   8.206  13.129  0.1367 -0.0794 -0.1671
21363W        W38210   6.777   3.489  10.597  0.1559 -0.0305 -0.5318
21364W        W38211  18.040   1.652  10.870  0.1123 -0.2984 -0.0682
21365W        W38212   5.088   7.785  13.328  0.1717  0.2756  0.2910
21366W        W38213   5.893  18.029  13.527  0.0181 -0.2121 -0.2653
21367W        W38214   0.334  14.987  11.129 -0.4312 -0.1441  0.2479
21368W        W38215  13.300   1.806   2.234  0.1842  0.0294  0.2016
21369W        W38216  14.408   1.351  14.283 -0.1421  0.0579 -0.0170
21370W        W38217   8.744  18.451  13.865  0.0347 -0.1037  0.3445
21371W        W38218   9.570  12.263  11.642 -0.0587 -0.0878  0.0426
21372W        W38219  10.364   5.874   0.400  0.2083  0.0011 -0.1171
21373W        W38220   4.332  10.418  13.241 -0.0557  0.0531 -0.0822
21374W        W38221  15.971  17.327  13.578 -0.1160 -0.0506 -0.1308
21375W        W38222  12.440  19.312  11.314  0.1688 -0.0181 -0.0254
21376W        W38223  17.921  11.796   9.093 -0.3352  0.2238 -0.0021
21377W        W38224  17.970  17.863   5.016 -0.2343 -0.4051  0.0986
21378W        W38225   0.962   6.709   5.732 -0.2951 -0.3573 -0.1832
21379W        W38226   5.647  16.501   1.806 -0.0493 -0.0088  0.2028
21380W        W38227  12.612  16.185   2.057  0.0192  0.0298  0.1110
21381W        W38228  12.672  15.401   0.210 -0.0632 -0.1307  0.0237
21382W        W38229  15.978  12.383  11.396  0.0186 -0.1893 -0.5141
21383W        W38230   5.866   3.932  12.667  0.0862 -0.1845 -0.1060
21384W        W38231   4.031  14.166  14.536 -0.0003 -0.0038  0.0687
21385W        W38232  14.721   6.477   1.302  0.2140  0.2028  0.0259
21386W        W38233  15.125   5.554  11.267 -0.4249 -0.2335 -0.2020
21387W        W38234  11.518  14.129  10.209 -0.0972  0.0138  0.1461
21388W        W38235   6.501   4.638  12.076 -0.3020 -0.2231 -0.1168
21389W        W38236  16.156  10.573   1.370 -0.2128 -0.1191  0.0499
21390W        W38237   6.437  13.440  11.416 -0.4125 -0.0073 -0.4851
21391W        W38238   5.152   5.048   2.526  0.0567 -0.0852  0.0040
21392W        W38239   4.211   6.184  10.609 -0.2767 -0.0782 -0.1150
21393W        W38240  19.185  11.511  14.127  0.3677 -0.0385  0.0192
21394W        W38241   7.910  15.353   0.906  0.0476 -0.0512  0.1033
21395W        W38242  16.841   0.145   4.517 -0.1027 -0.0286 -0.0711
21396W        W38243   1.640  12.728  13.532 -0.0813  0.0832 -0.0211
21397W        W38244  11.264  11.138  11.225 -0.0812  0.1209 -0.0585
21398W        W38245   4.150   0.772   0.912 -0.0289 -0.0984 -0.2553
21399W        W38246  18.887  15.361  11.384 -0.3035 -0.0371 -0.0261
21400W        W38247   9.660  10.643  13.956 -0.3680  0.0706 -0.0179
21401W        W38248   2.543   5.458  13.941  0.1060  0.2076 -0.0706
21402W        W38249  18.304  16.920   0.514  0.2698  0.0091  0.3090
21403W        W38250   7.217   7.910   0.466 -0.0848  0.0914 -0.0358
21404W        W38251   8.515   3.648   0.438  0.0117  0.4786 -0.2187
21405W        W38252  17.675  11.109   0.451 -0.0758 -0.1898 -0.1358
21406W        W38253   8.642  15.570  12.980  0.0257  0.2681  0.0917
21407W        W38254   3.528  12.031   3.978 -0.1179 -0.0754  0.0730
21408W        W38255   9.322   6.283   3.009  0.0476  0.0391 -0.0177
21409W        W38256  16.312  17.084   2.364  0.2888  0.1305  0.1244
21410W        W38257  12.497   9.810  12.622 -0.4941  0.0654  0.0544
21411W        W38258  15.473  15.008  12.886 -0.0453  0.1349  0.1151
21412W        W38259  15.173  15.721   3.121  0.0651 -0.0436  0.1560
21413W        W38260  11.319  14.909   3.775 -0.1545  0.0398 -0.1241
21414W        W38261  18.414  14.741   4.108 -0.2342  0.2322 -0.0761
21415W        W38262   6.747  18.641   3.709 -0.3115  0.2875 -0.1780
21416W        W38263   1.280   5.954  10.282 -0.1615  0.1999  0.0527
21417W        W38264  18.924   9.939   3.356  0.0856 -0.0642  0.0398
21418W        W38265  17.478   3.701  13.337 -0.0166 -0.0084  0.0452
21419W        W38266   1.976  15.189  10.857  0.0177  0.1440 -0.0799
21420W        W38267   4.446   6.258   4.471 -0.1420  0.1443  0.4820
21421W        W38268   8.659   8.549   5.352  0.3304 -0.1589  0.1378
21422W        W38269  13.744  14.625   0.222 -0.2246 -0.1305  0.0593
21423W        W38270   4.342  14.765   4.230  0.1200  0.0187 -0.0275
21424W        W38271  16.278   9.453  13.493 -0.2417  0.1794 -0.2706
21425W        W38272  18.001  19.093   1.425 -0.0107 -0.1701  0.1000
21426W        W38273  11.244   4.109  12.915  0.0251  0.0129  0.0056
21427W        W38274   7.864  15.436  11.153  0.0326  0.1475  0.2152
21428W        W38275  15.407   0.824   4.136 -0.2118  0.2163 -0.1286
21429W        W38276   7.380   3.323   2.250 -0.3321  0.0490  0.2752
21430W        W38277   9.172  17.777  13.245 -0.0597  0.3398  0.0117
21431W        W38278  12.490   8.233  11.292  0.1575 -0.1042 -0.2735
21432W        W38279   4.143  11.206  13.863 -0.3379 -0.0357  0.0512
21433W        W38280   8.889   2.523   1.732 -0.1383 -0.0050 -0.0586
21434W        W38281   0.715  16.073  14.056 -0.1875  0.0025 -0.2316
21435W        W38282  10.612  13.925  14.306 -0.1077 -0.5039  0.1850
21436W        W38283   1.832   6.151   9.960  0.0155  0.3286 -0.0841
21437W        W38284  11.764  11.235  11.404  0.0603 -0.2979 -0.0624
21438W        W38285  12.441   2.206  13.748  0.2851 -0.0161  0.0311
21439W        W38286  17.733  16.964   2.989 -0.2651  0.2340 -0.0097
21440W        W38287   6.346   7.613  11.071  0.0596 -0.0478  0.0396
21441W        W38288   7.700   4.753   4.400  0.0422 -0.4175  0.0559
21442W        W38289   8.091   6.516  10.581 -0.1365 -0.1167 -0.0885
21443W        W38290  14.142  12.324   2.870  0.2492  0.1569 -0.1561
21444W        W38291  14.118   6.354   2.853 -0.0814  0.2725  0.1391
21445W        W38292  18.446   5.158  12.910 -0.0094  0.1762  0.0184
21446W        W38293   8.537   3.251   4.764  0.2929  0.1022 -0.0540
21447W        W38294  13.716   1.310   4.581 -0.1304 -0.1064  0.0198
21448W        W38295   8.940  13.436  13.659  0.0474  0.0040 -0.1150
21449W        W38296  13.097   4.750   2.315  0.1959  0.0738  0.0501
21450W        W38297   9.006   7.024   3.231  0.0121 -0.0075  0.1243
21451W        W38298  10.268  13.792  13.365  0.0091  0.2391 -0.2894
21452W        W38299   5.400   1.185   0.686 -0.0994 -0.1410 -0.1168
21453W        W38300  19.477   1.524  12.462  0.3467 -0.1643 -0.2231
21454W        W38301   7.275   9.256  11.278 -0.0009 -0.0540 -0.1094
21455W        W38302   6.351  14.182  13.180  0.0734  0.2185 -0.2979
21456W        W38303   4.594  16.949   0.278 -0.0876  0.1150 -0.0224
21457W        W38304   2.048   6.203  13.008  0.1607  0.0848  0.2403
21458W        W38305   2.799  13.177  12.526  0.0520  0.2358  0.2461
21459W        W38306  12.109   1.900  10.267  0.2946 -0.1639 -0.2078
21460W        W38307  19.307  10.261   2.493 -0.1881  0.1396 -0.0245
21461W        W38308   2.569  11.985  11.990  0.0434  0.0813 -0.2222
21462W        W38309   1.600  17.301  14.399  0.0087  0.1382 -0.0375
21463W        W38310   6.657   7.442   3.214 -0.0116 -0.2836  0.2064
21464W        W38311   9.805  11.793   2.071  0.0997  0.0329 -0.1987
21465W        W38312  13.836  12.224   1.938  0.3260  0.1268  0.0144
21466W        W38313   7.398   7.323  13.860 -0.1614  0.0207  0.5210
21467W        W38314   7.786  15.057  12.479 -0.0678  0.2126  0.1079
21468W        W38315  17.579   6.093   4.859  0.1024  0.0648 -0.0261
21469W        W38316   9.301   6.550  11.951  0.5386 -0.0113 -0.1151
21470W        W38317   3.815   9.707  13.376  0.1197 -0.3874  0.0653
21471W        W38318  12.650   5.555   2.882 -0.2794 -0.4132 -0.1388
21472W        W38319   7.303  12.793  12.896 -0.0749  0.0069  0.0991
21473W        W38320  15.016  16.541  14.431 -0.2980 -0.2154  0.0082
21474W        W38321  10.507  19.494   1.477 -0.0588  0.2281  0.1537
21475W        W38322  15.345   7.308   4.778  0.1638 -0.0125 -0.2214
21476W        W38323   1.490   6.892  10.566 -0.2051  0.1269  0.1988
21477W        W38324  17.588   2.185   0.734 -0.1363  0.0615  0.1927
21478W        W38325  19.023  17.946   0.427 -0.0178  0.1355  0.1095
21479W        W38326  18.214  10.790   1.209 -0.3041  0.2982  0.1811
21480W        W38327  13.288  13.188   0.620 -0.2153 -0.4610 -0.3286
21481W        W38328   1.182   7.149   3.409  0.1485  0.2301 -0.3334
21482W        W38329  11.032  10.342  10.379  0.0724 -0.1462 -0.0967
21483W        W38330  11.293  17.241   2.680 -0.0103 -0.1316  0.1908
21484W        W38331   0.520  15.544   0.930 -0.1141 -0.0350  0.1959
21485W        W38332   8.593   1.759   2.017 -0.0873  0.1127 -0.1499
21486W        W38333   7.979   7.455  11.271 -0.0874 -0.1658  0.2082
21487W        W38334  11.731  10.207  10.955 -0.1321 -0.1436 -0.1952
21488W        W38335  17.838   4.215  14.319 -0.0115  0.1783  0.1924
21489W        W38336   4.520   9.594   4.036  0.0194  0.0243  0.1920
21490W        W38337   1.716   2.807   2.028  0.1097  0.1491  0.2030
21491W        W38338  19.396   2.213   0.867 -0.0046 -0.0338  0.0250
21492W        W38339  12.809   2.879  12.569 -0.2253  0.0120  0.1244
21493W        W38340  16.102  16.459   3.802 -0.2210  0.1939 -0.0429
21494W        W38341   1.004  10.936   0.472  0.0156  0.1607  0.0479
21495W        W38342  15.042  15.640  10.628  0.0995 -0.0365 -0.0830
21496W        W38343   1.092   1.238  14.159  0.0101  0.2661 -0.3371
21497W        W38344  12.958   5.819   4.417 -0.0296  0.1122 -0.3543
21498W        W38345  13.319   7.397   1.399 -0.1472 -0.0937 -0.2599
21499W        W38346  14.267   1.070  10.607 -0.0934 -0.0377 -0.0661
21500W        W38347  16.769   4.056  11.162 -0.1891  0.0564  0.4964
21501W        W38348   4.822  15.193   1.426 -0.2005 -0.3726  0.1121
21502W        W38349   1.087   8.985   3.118  0.3038 -0.1543  0.2618
21503W        W38350  19.207  18.605   3.988  0.0684 -0.2796 -0.2132
21504W        W38351   4.799   6.382  13.183 -0.2007 -0.2000  0.0224
21505W        W38352   7.217   3.980   4.138 -0.0036  0.0741 -0.1011
21506W        W38353   6.510  15.834   3.545 -0.1318 -0.2675  0.2977
21507W        W38354  11.882  19.085   1.873 -0.1727  0.1938  0.0830
21508W        W38355   1.107  10.471   2.075  0.1271  0.0310 -0.2139
21509W        W38356   8.674   7.964  11.814 -0.2778 -0.0154 -0.1178
21510W        W38357   4.018  16.364  10.718  0.4251  0.2059 -0.0863
21511W        W38358  14.971  13.780  13.248  0.2521 -0.0910 -0.1587
21512W        W38359   5.457   0.196   3.760 -0.2573 -0.0524  0.0965
21513W        W38360   6.307   9.415   3.847  0.1661 -0.0149  0.3007
21514W        W38361   1.885   9.995  11.730 -0.1286  0.1342  0.0763
21515W        W38362   5.080  19.574   0.439 -0.2469  0.2405  0.1430
21516W        W38363   9.610   2.175  12.592  0.1712 -0.0095 -0.1149
21517W        W38364   7.802  11.575  13.547  0.2305 -0.1087 -0.0185
21518W        W38365   3.093  15.211   4.774  0.1762  0.0217  0.0026
21519W        W38366   6.410   9.593  10.580  0.3828 -0.2049  0.0392
21520W        W38367  18.214   7.992   3.688 -0.0255  0.0282 -0.0059
21521W        W38368   3.776  12.994  10.957 -0.0069 -0.0242  0.3101
21522W        W38369   4.822  12.883  11.041  0.0655  0.1824 -0.3247
21523W        W38370   4.601  17.462   4.187  0.0002  0.3360  0.1570
21524W        W38371  16.135  12.858  10.197  0.0425  0.2024 -0.0742
21525W        W38372  12.017   3.713  14.085  0.1133 -0.0431 -0.2344
21526W        W38373   4.286  15.860   1.433 -0.0295  0.1790 -0.1056
21527W        W38374   5.737  11.257   3.860 -0.0734  0.0412  0.0819
21528W        W38375  12.072  15.112   2.236 -0.1117 -0.0619  0.2111
21529W        W38376  15.858   1.905   9.381  0.0806 -0.3003  0.1503
21530W        W38377  16.377  15.391  11.429 -0.2610  0.0342  0.0542
21531W        W38378  17.905  18.941   4.619  0.2131 -0.1264  0.0701
21532W        W38379  15.089   4.242   1.655  0.3245 -0.1045 -0.0474
21533W        W38380   8.715  10.960   1.566  0.2265 -0.1969  0.0989
21534W        W38381   1.779  16.477   2.797 -0.0575 -0.0124 -0.0140
21535W        W38382  11.984  10.943   0.468 -0.0068  0.0788  0.1675
21536W        W38383  10.798   4.040   1.351  0.0073  0.1620 -0.2456
21537W        W38384  16.514  17.167  12.217 -0.1063 -0.0107  0.2624
21538W        W38385  12.728   5.838   3.657 -0.4149 -0.1413 -0.2075
21539W        W38386  10.986   7.696   5.289 -0.0348 -0.0379  0.0910
21540W        W38387   3.538  15.731   2.293 -0.1711  0.0431  0.0397
21541W        W38388   4.571  12.456  11.685 -0.1328  0.0674  0.0053
21542W        W38389  11.515   9.231  13.863  0.0068 -0.0693 -0.0183
21543W        W38390  15.534   9.908  10.870 -0.2776 -0.0900  0.0163
21544W        W38391  17.545   2.823   9.521 -0.0107 -0.1607  0.5915
21545W        W38392   5.723  12.445   3.096 -0.0313 -0.1923 -0.0616
21546W        W38393   4.681  16.807  11.277  0.0630 -0.1198  0.1924
21547W        W38394   5.568   3.082  10.054 -0.2289  0.2347 -0.0869
21548W        W38395   7.238  19.443   1.073  0.1213  0.0806  0.0174
21549W        W38396   7.115  19.372  11.152 -0.1006 -0.2892 -0.0492
21550W        W38397  13.730   1.663   0.843 -0.1998  0.1117 -0.2781
21551W        W38398  17.457   2.570  13.469 -0.0200  0.3542  0.0793
21552W        W38399   6.681  14.131  11.465  0.0799  0.1314  0.5021
21553W        W38400  15.775   1.592   2.310 -0.1761  0.3185  0.1172
21554W        W38401   4.950  14.005   4.021 -0.0029  0.1899  0.0394
21555W        W38402  12.760   4.998   0.291  0.0790 -0.0048  0.1631
21556W        W38403   2.944  18.346  13.197  0.3023 -0.1534 -0.0068
21557W        W38404  10.277   4.921   0.909  0.1114 -0.0993 -0.2714
21558W        W38405   3.896   3.642  13.512 -0.2403 -0.0431 -0.0239
21559W        W38406  15.999  19.051  11.948 -0.1414  0.2141 -0.0870
21560W        W38407  17.319   4.732   3.615  0.0715  0.0375  0.1530
21561W        W38408   8.823   2.421   4.128  0.4061 -0.0574  0.1777
21562W        W38409  17.573  11.167   4.032  0.3934  0.0044 -0.0283
21563W        W38410  10.418   4.089  12.109 -0.0847 -0.1559 -0.1713
21564W        W38411   6.568   5.860   1.068  0.0004  0.1705 -0.2477
21565W        W38412  18.997   8.082   4.073  0.4049  0.3268 -0.1513
21566W        W38413   4.578  16.441   3.624 -0.0503 -0.1365  0.5915
21567W        W38414   9.401  13.650   2.637 -0.0872  0.0592  0.3283
21568W        W38415   8.486  10.106   2.631 -0.0434  0.1748 -0.2460
21569W        W38416   6.524  17.834  14.195 -0.0855 -0.3620 -0.1101
21570W        W38417  17.618  14.201  11.471  0.3433  0.3654 -0.1046
21571W        W38418   2.544  17.021   0.193  0.0745  0.1825 -0.2675
21572W        W38419   7.234  17.494   4.149 -0.0232  0.4488 -0.1682
21573W        W38420   8.218  12.713  11.479  0.0665  0.0252 -0.0898
21574W        W38421  17.403  14.881   4.389 -0.1174  0.1845 -0.1409
21575W        W38422   1.371   6.283   9.952 -0.2611  0.3765  0.3815
21576W        W38423   6.436   3.177   2.613 -0.2881  0.1811  0.1455
21577W        W38424   1.855   0.307   3.641  0.0329  0.2104  0.1445
21578W        W38425  17.173   6.248  12.720  0.0851  0.0860 -0.0841
21579W        W38426   4.498   4.149   1.307 -0.0181 -0.0346 -0.1981
21580W        W38427   5.969   6.677  11.770 -0.1006  0.0139 -0.1373
21581W        W38428  14.524   4.810  12.585 -0.0115 -0.1126  0.0360
21582W        W38429   2.519   8.211  13.509 -0.4859 -0.1948 -0.1597
21583W        W38430   0.012  15.844  13.760  0.2461 -0.0714  0.2577
21584W        W38431   9.205  14.706   4.724  0.0325 -0.0472  0.0522
21585W        W38432  10.972  11.264   4.055  0.2462  0.0853  0.0338
21586W        W38433   7.358  12.216   2.275 -0.5015 -0.1481  0.1420
21587W        W38434  16.326   1.212   4.333 -0.3452  0.3469  0.0644
21588W        W38435   8.389   8.102  12.686  0.3760  0.0723  0.1683
21589W        W38436  18.803  18.821   4.159  0.1140 -0.0119  0.1832
21590W        W38437  16.794   7.110   2.951 -0.0570 -0.1460 -0.0966
21591W        W38438  13.661  11.181   1.053  0.0788 -0.2155 -0.2995
21592W        W38439   4.344   7.123   1.298  0.1698  0.0929 -0.1794
21593W        W38440  16.368  15.699  14.343 -0.3396  0.0591  0.0433
21594W        W38441  13.879   0.359  12.741  0.1262 -0.2312 -0.0387
21595W        W38442  19.340  11.637  12.349 -0.2731  0.0316 -0.0253
21596W        W38443  16.103   8.396   0.248 -0.0366 -0.1114 -0.0722
21597W        W38444   5.821  18.471   4.415 -0.0433  0.1316  0.2833
21598W        W38445   2.356  19.421   2.909 -0.4318 -0.0333 -0.1016
21599W        W38446  15.771  18.813   1.931  0.2899  0.0145  0.1495
21600W        W38447  11.309   8.826   1.144  0.0872  0.2215  0.1046
21601W        W38448   6.433  18.805   1.860 -0.0052 -0.0402 -0.2155
21602W        W38449   4.255  13.127   0.686 -0.1251 -0.1221  0.2414
21603W        W38450   0.034   9.974   2.193  0.2522 -0.0125  0.1090
21604W        W38451   6.457  14.560   1.460  0.1732  0.0195  0.3193
21605W        W38452  16.493   9.490   1.835 -0.0538  0.3183 -0.0944
21606W        W38453  18.350   6.635  11.764 -0.1816 -0.0113  0.1125
21607W        W38454  18.532  18.119   1.389 -0.4037  0.2353 -0.3979
21608W        W38455  10.429  16.602   0.243  0.0936 -0.2938 -0.0609
21609W        W38456  16.123   1.482   0.246 -0.1261 -0.0145  0.0928
21610W        W38457   4.615  18.434   9.911  0.1034 -0.0589  0.1689
21611W        W38458   5.697   2.493  13.556  0.0575  0.0566  0.0283
21612W        W38459   7.019  11.198   3.954  0.0240  0.1539  0.0776
21613W        W38460   1.153   1.859  12.372  0.2648 -0.0873  0.4109
21614W        W38461   8.004  11.620   3.259  0.0174 -0.2274  0.0812
21615W        W38462  18.813  17.150   9.298 -0.0759 -0.1175 -0.0699
21616W        W38463  15.478   0.346  14.048 -0.1204  0.4359  0.0728
21617W        W38464   5.888   5.297  12.168 -0.2773  0.1501 -0.0327
21618W        W38465   7.643   5.423  14.336 -0.2570  0.0611  0.0355
21619W        W38466  10.725   0.246  10.988  0.0690 -0.1926  0.0630
21620W        W38467  15.345  18.608   3.072 -0.0052 -0.0187 -0.2117
21621W        W38468   1.580  15.822  12.544 -0.1472  0.3796 -0.1739
21622W        W38469  12.451   5.840  11.839 -0.2674 -0.2541 -0.0416
21623W        W38470  12.145  12.681  11.277  0.1687  0.1734  0.0548
21624W        W38471   3.891   8.694   2.059  0.3124  0.3394  0.0562
21625W        W38472   6.004   2.111  10.915 -0.0387  0.0592 -0.0658
21626W        W38473   8.992   4.946   0.561 -0.1653 -0.0395  0.0992
21627W        W38474   8.982  12.038   2.934  0.1667 -0.0774 -0.3705
21628W        W38475   9.595   5.203   3.392 -0.2149  0.1135 -0.0748
21629W        W38476  12.654  11.631   1.765  0.2264 -0.1648  0.1234
21630W        W38477   9.222  12.161   0.486 -0.2608  0.3648 -0.0884
21631W        W38478  16.681  11.156   4.075 -0.3393  0.3204  0.3052
21632W        W38479   1.272   0.388   0.430  0.1064  0.0891  0.3705
21633W        W38480  15.639  12.183  10.394  0.1930  0.1966  0.2192
21634W        W38481   0.727   6.044  10.364  0.0601 -0.0215  0.0223
21635W        W38482  18.849  12.759   3.322  0.2900  0.3094 -0.1613
21636W        W38483   6.646   5.562   1.540 -0.2500  0.1099 -0.0832
21637W        W38484   6.571  14.508   3.744 -0.0532  0.0768 -0.2163
21638W        W38485  12.112   5.176  14.177  0.1784 -0.1789 -0.0371
21639W        W38486   5.351   7.883   3.683 -0.2631  0.2171  0.1633
21640W        W38487   4.481  16.355  11.511  0.1351  0.1611  0.1463
21641W        W38488  14.091  18.962  13.372 -0.1010  0.0303  0.0514
21642W        W38489   2.328  19.066   3.694  0.0231  0.1561 -0.1011
21643W        W38490  10.830  14.829   0.463 -0.5404  0.1820  0.1824
21644W        W38491  11.005  17.316  10.695  0.0851  0.3322 -0.0880
21645W        W38492  15.449  13.340  12.562  0.0307  0.0365  0.1220
21646W        W38493   6.605   4.436  10.464  0.4367  0.3459  0.0854
21647W        W38494  18.356  12.090   4.983  0.1318  0.1624  0.0868
21648W        W38495  12.984  16.550  10.848  0.0135  0.1250 -0.1893
21649W        W38496   1.279   9.405  10.836  0.1731  0.1113  0.0908
21650W        W38497   7.830  17.530   9.797 -0.3639  0.1641 -0.0649
21651W        W38498   7.781   6.209   4.129  0.1142  0.2753 -0.2871
21652W        W38499   9.244   6.528  11.375 -0.1012  0.0033 -0.1192
21653W        W38500   5.614  15.872   2.448  0.0173  0.1679 -0.1244
21654W        W38501   9.181  18.978   0.656 -0.3054 -0.1327 -0.2704
21655W        W38502   7.628   2.273   4.719 -0.0448 -0.0651 -0.1608
21656W        W38503   5.607  17.005  11.711  0.2140 -0.1813 -0.3747
21657W        W38504  16.555   5.156   0.929 -0.0573 -0.3175 -0.2492
21658W        W38505  15.197  17.030  13.524 -0.0120  0.3928 -0.2235
21659W        W38506  18.073  19.053   0.802 -0.1307  0.1864 -0.0463
21660W        W38507  11.931   2.457  12.033 -0.2299 -0.1846  0.1461
21661W        W38508  15.484  10.156  13.224  0.3778 -0.0014 -0.0081
21662W        W38509  19.606  19.329  13.901 -0.2595  0.2532 -0.2702
21663W        W38510   2.566   6.777   1.593  0.0796  0.1997  0.1066
21664W        W38511  15.405   0.362   0.011 -0.0312  0.2555  0.0996
21665W        W38512  15.748  12.020  11.183  0.0715 -0.1119 -0.3046
21666W        W38513  12.989   0.184  12.489  0.1096  0.0945 -0.1783
21667W        W38514   4.632   1.590  11.040 -0.0648  0.1159  0.0375
21668W        W38515   1.718  14.485   3.343  0.0538  0.1218 -0.2135
21669W        W38516  10.551   8.787   4.368 -0.0231 -0.0179  0.4038
21670W        W38517   9.873  18.304  11.713 -0.1751  0.2050 -0.0697
21671W        W38518  14.705  11.434  12.379 -0.0533 -0.0551 -0.3402
21672W        W38519  18.754   7.846  12.873  0.2405 -0.0888 -0.2868
21673W        W38520   3.190   6.000  12.624  0.1240 -0.2641 -0.0223
21674W        W38521   2.805   6.729  13.555  0.2925  0.0330 -0.2847
21675W        W38522   1.828  14.226   2.905  0.0572 -0.2714  0.0676
21676W        W38523  18.118  17.321  13.447  0.2381  0.1881  0.0918
21677W        W38524   7.272   5.406   3.747  0.1056 -0.2083  0.1462
21678W        W38525   1.176  18.573  11.310  0.0258 -0.2499  0.2021
21679W        W38526  15.411  10.563  10.178  0.3226  0.0191 -0.0514
21680W        W38527  17.291  13.231  14.083  0.0426 -0.0215 -0.0238
21681W        W38528  15.336  16.669   2.187  0.0014 -0.0400 -0.1144
21682W        W38529  12.710   8.278   0.630 -0.2124  0.1214  0.3185
21683W        W38530  15.535  17.835  14.442 -0.1343  0.3926 -0.2319
21684W        W38531  16.190  11.753   0.140  0.0190  0.0446  0.1497
21685W        W38532   1.331   3.260   9.606  0.2339 -0.1938 -0.1117
21686W        W38533   8.648   5.837   3.315  0.2296 -0.0450  0.1545
21687W        W38534  10.383  10.241  10.311 -0.0796 -0.0248 -0.1937
21688W        W38535   0.712  19.352   2.909  0.1393 -0.1297 -0.0566
21689W        W38536  15.978  14.635  11.958 -0.2147 -0.4019 -0.2464
21690W        W38537   1.957   5.204   4.726 -0.3341 -0.0816  0.0060
21691W        W38538   8.182  17.348  12.504  0.0762  0.1176 -0.0126
21692W        W38539  16.200   5.180   4.215 -0.0890  0.0818  0.1249
21693W        W38540  14.081   1.745  13.216  0.2317 -0.1331  0.1116
21694W        W38541  17.844  13.215  12.493  0.0136  0.1312  0.2519
21695W        W38542  18.790   3.129   9.942 -0.4470  0.0430 -0.1622
21696W        W38543   6.199   3.464   4.625 -0.1865 -0.1422  0.1512
21697W        W38544   1.442  16.237   4.623 -0.1301 -0.0621 -0.0326
21698W        W38545   9.682   4.574   1.889 -0.1316  0.1901  0.0490
21699W        W38546   3.132   4.863  14.134 -0.2048 -0.3402  0.0540
21700W        W38547   9.092   5.421   5.619  0.2309  0.2877  0.0269
21701W        W38548   2.610  18.815  11.105  0.1614  0.3030 -0.1896
21702W        W38549  14.740  19.406  11.245 -0.0572  0.1766 -0.1674
21703W        W38550  11.786  10.594  13.538 -0.1109  0.0772 -0.1971
21704W        W38551  17.566   7.869   1.421 -0.1117 -0.2307 -0.2293
21705W        W38552   3.681   7.728  10.699  0.2024  0.0557  0.1036
21706W        W38553  14.040  17.044  10.106  0.0360 -0.0696 -0.1692
21707W        W38554  10.829  12.562   2.145 -0.0082 -0.0050  0.2502
21708W        W38555  14.218   7.833  12.728 -0.1847 -0.2615 -0.1599
21709W        W38556  11.265   1.919   1.293 -0.0837 -0.0729 -0.1502
21710W        W38557  11.032  12.734   0.587  0.0280  0.1446  0.1540
21711W        W38558   8.090   3.978   4.490 -0.1044 -0.2318 -0.0886
21712W        W38559   9.990  12.058   3.814  0.0289 -0.0546 -0.0150
21713W        W38560   6.463  10.228   0.921 -0.2490  0.5255 -0.1032
21714W        W38561   1.583  12.829  12.334 -0.3798 -0.1002  0.1322
21715W        W38562   4.042   8.447   2.542  0.1993 -0.0157 -0.4203
21716W        W38563   6.648  18.235  10.567  0.0333 -0.2787 -0.2319
21717W        W38564  15.016  17.790   0.597 -0.1493 -0.0021  0.1606
21718W        W38565   6.203  12.864  10.841 -0.1130 -0.2510 -0.0192
21719W        W38566   7.822  12.511   0.598  0.0284  0.1025  0.0296
21720W        W38567  15.821   0.034   2.372  0.0230 -0.2156  0.1327
21721W        W38568   8.232   4.326   2.054 -0.0385 -0.1014  0.0916
21722W        W38569  15.213  10.410   2.739 -0.7150  0.2665 -0.2973
21723W        W38570   2.749   7.171  11.236  0.1240  0.2045 -0.0469
21724W        W38571  16.241   6.411   3.634 -0.3356 -0.3425  0.1542
21725W        W38572   2.966  16.353  11.847 -0.1951  0.0385  0.0344
21726W        W38573   1.067  14.772   4.866  0.0445 -0.1065 -0.1079
21727W        W38574   8.119  16.917  12.834 -0.0361  0.0054 -0.5540
21728W        W38575   2.099   5.169  10.729 -0.3786 -0.0340 -0.2126
21729W        W38576  12.370  11.562   5.131 -0.2017 -0.2195 -0.0876
21730W        W38577   2.598  15.040   0.357  0.2128  0.1296  0.1216
21731W        W38578   6.292  11.949   2.585  0.0294  0.1396  0.1588
21732W        W38579   1.800  14.603   1.562 -0.0648  0.2379 -0.1990
21733W        W38580  16.611  17.851  10.668  0.0485 -0.3107  0.1555
21734W        W38581   4.753  10.686  12.862  0.2497 -0.0994 -0.2196
21735W        W38582  17.541  12.360  12.336  0.0440  0.1155  0.3787
21736W        W38583  11.147  10.693  11.047 -0.0838  0.1870 -0.0148
21737W        W38584   6.910   3.801  11.701  0.1272  0.1616 -0.0536
21738W        W38585   8.581  14.083  11.259  0.0060 -0.0981  0.3745
21739W        W38586   9.964   7.696  12.775  0.3350  0.2475  0.0412
21740W        W38587  12.885  15.028   1.142  0.0832  0.1491  0.0761
21741W        W38588  15.044  17.939   1.133  0.1476 -0.2491  0.0948
21742W        W38589   4.334   6.150  13.374 -0.2142  0.0231 -0.1514
21743W        W38590  17.234   0.335  10.559  0.0591 -0.1050 -0.0660
21744W        W38591   7.567   8.537  14.484  0.4021 -0.1064  0.0967
21745W        W38592  10.199  17.947  11.330  0.0500  0.0699 -0.4866
21746W        W38593   1.714   4.541   1.835  0.1062  0.4924 -0.3998
21747W        W38594   3.838   4.183  10.298  0.0216 -0.2356 -0.0404
21748W        W38595  12.163   0.766  14.104 -0.1068 -0.1474 -0.0770
21749W        W38596  15.232  15.562   9.684  0.0847  0.3201 -0.1381
21750W        W38597  15.126   5.676   3.724 -0.0357  0.1394 -0.0611
21751W        W38598   0.105  14.977   0.985 -0.4864  0.0125 -0.2927
21752W        W38599  10.790   9.144  12.867 -0.1117  0.1980 -0.0147
21753W        W38600   9.219   1.603   1.025  0.0466  0.1561 -0.3469
21754W        W38601   6.803  18.955   2.207 -0.0014  0.2650  0.0984
21755W        W38602  10.975   1.949   2.271  0.1511  0.0706  0.1225
21756W        W38603  14.317  15.147   2.338  0.1451 -0.2438  0.1610
21757W        W38604  15.948  13.423  14.437  0.0678  0.0074  0.0203
21758W        W38605  11.442   0.726  13.578  0.2947  0.1298  0.2742
21759W        W38606  17.631  12.262   4.714  0.0475 -0.1648 -0.1338
21760W        W38607   0.729  16.477   0.709 -0.0885  0.0449  0.3205
21761W        W38608  14.315  11.937   0.504  0.3532 -0.1203 -0.1292
21762W        W38609  19.020   4.017  10.176 -0.1012  0.0778 -0.0561
21763W        W38610  11.356   3.988   8.931  0.2105  0.0230 -0.2920
21764W        W38611   5.325  18.389   4.525 -0.1401 -0.1892  0.0609
21765W        W38612  12.945   8.462  14.335 -0.1205 -0.0016 -0.1543
21766W        W38613   9.322   3.492  10.674  0.3009  0.0753 -0.1805
21767W        W38614   4.700  10.074   3.203 -0.1346 -0.2216 -0.0247
21768W        W38615  17.551   0.485   2.220  0.0162 -0.0261  0.1211
21769W        W38616   5.734  11.770  10.874 -0.3979 -0.0548  0.0121
21770W        W38617   9.213   7.566  11.000  0.2776  0.1894  0.1662
21771W        W38618  15.942  17.363   9.790 -0.0898  0.3178 -0.2687
21772W        W38619  17.512  18.624   4.050  0.3458  0.2026  0.0811
21773W        W38620  10.023  15.697   2.236 -0.0613  0.1441  0.1217
21774W        W38621   5.589  14.932  13.392  0.0120 -0.1350  0.1918
21775W        W38622   7.144   0.725  10.871 -0.0623 -0.1712  0.2277
21776W        W38623   1.204   0.485   9.835 -0.0034  0.0028  0.2382
21777W        W38624  14.797   0.947   0.613  0.0091 -0.0186  0.0752
21778W        W38625  10.265   4.829  11.354 -0.2533 -0.0336  0.1276
21779W        W38626   6.074  11.065  13.842 -0.4645  0.0999  0.3998
21780W        W38627   2.969  11.149  11.691 -0.0608 -0.0536 -0.1330
21781W        W38628   0.072  13.933  11.091 -0.3301  0.4055  0.2918
21782W        W38629   9.873  13.962   2.607  0.1978 -0.0626 -0.0110
21783W        W38630  17.653  17.804  14.183  0.0040 -0.1861 -0.0784
21784W        W38631  12.865  10.360  13.828  0.1221  0.1717 -0.3066
21785W        W38632   2.625   6.558  10.478  0.0209 -0.0313  0.1137
21786W        W38633   1.542   7.152  14.024 -0.1477 -0.2511  0.2455
21787W        W38634  11.157   0.140   4.330 -0.3149  0.1752  0.0857
21788W        W38635  18.527  11.436   9.931  0.4170  0.0764 -0.0417
21789W        W38636  10.172   7.339   2.533 -0.1642  0.4480 -0.1304
21790W        W38637  10.784   5.455   1.663 -0.1110  0.1399  0.0905
21791W        W38638  16.880   4.667   2.588 -0.2566 -0.0615 -0.3885
21792W        W38639  12.591  18.659   3.674  0.0314  0.2471 -0.0999
21793W        W38640   8.270   2.817   3.809 -0.2034 -0.0500 -0.1386
21794W        W38641  19.277  18.637  13.467 -0.0692  0.1455  0.3328
21795W        W38642   8.463  16.684  11.270 -0.1222  0.0961 -0.0032
21796W        W38643  12.495  16.179  10.146 -0.4295 -0.0110 -0.2179
21797W        W38644  13.552   5.864  11.833 -0.2125 -0.0089  0.2962
21798W        W38645   5.632   6.402   3.602 -0.0092 -0.0682  0.3509
21799W        W38646   3.858   3.285   3.919  0.0984  0.2005 -0.3106
21800W        W38647  13.597  14.553   3.849 -0.2221  0.0942 -0.0440
21801W        W38648  12.934   3.553   0.925 -0.1717  0.1107  0.5351
21802W        W38649   1.172   2.966   5.346  0.1013  0.1195 -0.1089
21803W        W38650  19.418  18.160   2.119  0.0712 -0.0297  0.0595
21804W        W38651   0.519   1.421   1.787  0.0570  0.2092 -0.2666
21805W        W38652   9.392  17.113  12.783  0.1954 -0.1253 -0.0817
21806W        W38653  13.874  15.917   0.625 -0.3700  0.3021  0.0310
21807W        W38654   0.732  19.466  14.321  0.1815  0.2964  0.0197
21808W        W38655  17.443  17.706  13.514  0.0675  0.0462  0.4009
21809W        W38656  15.972  17.731   4.885  0.1041  0.1024  0.1523
21810W        W38657  13.172   9.823  14.542  0.2679  0.0593  0.3575
21811W        W38658   7.057   6.482   1.522  0.0399  0.2932 -0.0818
21812W        W38659   1.541  10.065   3.305 -0.1503 -0.0787 -0.0901
21813W        W38660   4.991  10.792  11.706 -0.4579 -0.0031 -0.3348
21814W        W38661  10.904  16.483   2.345 -0.0973  0.0868 -0.2146
21815W        W38662  12.915  18.729  14.171 -0.0141 -0.1740  0.0953
21816W        W38663  14.118  11.921   0.975 -0.0929 -0.3470 -0.2803
21817W        W38664   7.280   8.015  13.203 -0.1540  0.0949  0.1899
21818W        W38665   1.149   7.791   0.096  0.0551  0.0847 -0.0301
21819W        W38666   8.235   5.994   1.940 -0.2791 -0.2987 -0.1521
21820W        W38667  19.131  18.706   0.805  0.0010  0.5720  0.0307
21821W        W38668  18.736  19.194   3.379  0.0630 -0.2452  0.0044
21822W        W38669  16.068   0.032  12.867  0.2072  0.2637  0.2099
21823W        W38670   6.940   4.847  10.473 -0.0427 -0.1078 -0.0025
21824W        W38671   7.535   0.650  11.819  0.1990  0.2461  0.0342
21825W        W38672  13.513   4.085  13.037 -0.0398  0.1416 -0.4108
21826W        W38673   3.457  19.366   2.968 -0.2228 -0.1718  0.2205
21827W        W38674  14.112  13.099  10.511 -0.2891 -0.0905  0.3618
21828W        W38675  11.698  14.785  10.917 -0.0128  0.0359 -0.5130
21829W        W38676   5.322  18.563  13.400  0.1085 -0.1831 -0.0816
21830W        W38677   4.813   8.631   0.286  0.0515  0.3590 -0.2154
21831W        W38678   9.253  15.313  11.176 -0.1183  0.0987 -0.3575
21832W        W38679  13.060   5.832   0.030  0.0153 -0.0904  0.0228
21833W        W38680   9.291  18.245   9.194  0.3201  0.0759 -0.3865
21834W        W38681  15.648  18.304  11.298  0.0068 -0.0087  0.3223
21835W        W38682  10.338   9.059   3.191 -0.1520 -0.0438  0.2036
21836W        W38683  19.372   7.330   4.666  0.3410  0.3270  0.2908
21837W        W38684   6.106  18.454  13.686 -0.0700 -0.2321 -0.1131
21838W        W38685  15.724   5.330   0.029 -0.2594  0.1990 -0.0091
21839W        W38686  19.110  13.700   0.463 -0.2901 -0.1071 -0.2083
21840W        W38687   7.397   4.756  13.160 -0.1711  0.0434 -0.1482
21841W        W38688  19.066  16.073   3.967  0.1031  0.3262 -0.0938
21842W        W38689  15.902  12.989  12.566  0.4924 -0.0480  0.1628
21843W        W38690   3.081   0.642  12.913 -0.0825 -0.0286  0.1059
21844W        W38691   8.401   0.956   9.740  0.0645 -0.0528  0.0464
21845W        W38692  12.905   4.128   3.975 -0.1810  0.1881 -0.0021
21846W        W38693   0.720  14.457   5.620 -0.0516 -0.1990 -0.2070
21847W        W38694  19.204  15.531   4.533 -0.0103 -0.0027  0.0446
21848W        W38695  19.209   8.684   1.775 -0.2643  0.1554  0.1049
21849W        W38696  12.270   8.632   0.782  0.1694  0.2661 -0.0051
21850W        W38697   2.767   8.785  10.698 -0.0793  0.2467 -0.0313
21851W        W38698  17.776  17.440   4.932 -0.1773  0.1109 -0.0625
21852W        W38699   8.228   6.999  13.760  0.1051 -0.7163 -0.0677
21853W        W38700  15.854   0.038   8.827 -0.0695  0.0361 -0.0985
21854W        W38701  14.818   1.379  12.442 -0.3661  0.0528  0.0404
21855W        W38702   9.948   9.472   2.348 -0.2591  0.2236  0.1408
21856W        W38703   9.457   5.586  12.094  0.1403 -0.2855  0.1635
21857W        W38704   8.087   7.323  10.016 -0.1830  0.2648 -0.3106
21858W        W38705  16.912   8.686  11.565 -0.2405  0.0807  0.1400
21859W        W38706   7.090  18.629  14.527 -0.1420  0.1378 -0.0438
21860W        W38707   4.121  19.409   4.359  0.0731  0.0001 -0.2583
21861W        W38708   7.447   6.670   1.233  0.3876 -0.0962  0.1194
21862W        W38709   1.058  14.999   3.922 -0.1664 -0.2889 -0.2394
21863W        W38710  15.099  16.792   0.917 -0.1791 -0.0716  0.3051
21864W        W38711   6.666   6.061  11.769  0.0396  0.4616  0.1293
21865W        W38712  11.733  10.363   3.173 -0.3184 -0.0554 -0.0017
21866W        W38713  15.544   4.376   4.261  0.0784  0.1232 -0.3251
21867W        W38714   7.872   6.460   4.573 -0.1386  0.0705  0.1396
21868W        W38715   1.330   3.254  14.218  0.2995 -0.1719 -0.3467
21869W        W38716  18.965  18.248  12.798  0.3004 -0.0992  0.1610
21870W        W38717  12.290  17.149  10.560  0.0919  0.0839  0.0210
21871W        W38718  18.764   8.130  13.588 -0.0592 -0.0040 -0.2438
21872W        W38719  13.243   9.792  12.118  0.1694  0.2651  0.0200
21873W        W38720   3.346   3.842   1.330  0.2084  0.0501 -0.2559
21874W        W38721  18.272   9.017  14.003 -0.2396  0.1445  0.0355
21875W        W38722   9.687   8.054   3.549  0.2332 -0.0189  0.1857
21876W        W38723   8.020  11.087  12.739 -0.2763  0.1972 -0.2418
21877W        W38724   5.210  16.176  14.211 -0.2482 -0.0388 -0.1091
21878W        W38725  11.078  19.558  12.053 -0.1184 -0.3224  0.0849
21879W        W38726  12.807   6.471  12.485  0.1271 -0.0957  0.0295
21880W        W38727  14.056  14.489   0.632 -0.1884  0.1885  0.1369
21881W        W38728   0.182  11.753  13.513  0.0959 -0.4447 -0.1665
21882W        W38729  13.198   8.289   2.493 -0.0436 -0.0947  0.3534
21883W        W38730  10.249   2.956   9.996 -0.1804 -0.0832  0.0396
21884W        W38731  15.123  19.507   0.284  0.2755  0.0072  0.3654
21885W        W38732  15.652   0.184   5.319  0.0202  0.0099  0.0327
21886W        W38733   1.835   3.901   1.171  0.1823  0.0087 -0.0369
21887W        W38734  10.162   7.563  11.886 -0.1072  0.0779  0.1381
21888W        W38735   7.662  12.140  10.682  0.0663  0.1261 -0.1474
21889W        W38736   9.838  13.092  11.019  0.1184 -0.2241  0.3314
21890W        W38737  16.544  14.681   0.249  0.1712 -0.1173 -0.0722
21891W        W38738  11.233  10.966   0.467  0.0395 -0.1249  0.1449
21892W        W38739  12.418  18.412   2.210  0.0058  0.1377  0.1407
21893W        W38740   5.886   6.002   4.926 -0.2751 -0.0365 -0.2602
21894W        W38741  15.416  14.389   1.116  0.3746 -0.2891  0.4033
21895W        W38742   3.340  14.202  11.270 -0.0108  0.0040  0.2059
21896W        W38743  11.116  18.057  13.671  0.1201 -0.1585  0.0221
21897W        W38744  18.302   7.576   1.177 -0.1815  0.1671  0.1637
21898W        W38745  19.460   6.252   4.471 -0.0679 -0.2583 -0.1243
21899W        W38746   7.069  10.564   3.557  0.0312 -0.1069 -0.2124
21900W        W38747   8.263  19.420  12.595  0.1921 -0.1430 -0.0264
21901W        W38748   6.917   5.482   1.079  0.0585 -0.0753  0.0593
21902W        W38749   0.102  15.165  12.460 -0.0919 -0.1919  0.0281
21903W        W38750  18.288   6.374  11.331 -0.0581  0.1005  0.1807
21904W        W38751  12.969  19.429  13.942  0.3026  0.0007  0.0203
21905W        W38752  13.071  17.383   1.856 -0.1420 -0.2449  0.1646
21906W        W38753  12.663   3.099   4.744 -0.1905  0.1426 -0.0232
21907W        W38754  14.655   6.956   1.739  0.0874  0.2283  0.0033
21908W        W38755   8.528  10.278   9.419 -0.2192  0.0236  0.1227
21909W        W38756   2.433  11.792   1.166 -0.0622 -0.0053 -0.1020
21910W        W38757   5.314  15.206   4.657  0.2081  0.0915 -0.0395
21911W        W38758   5.100   2.316   4.801  0.0995  0.0782 -0.0809
21912W        W38759  16.280  13.577  10.536 -0.0072  0.2833 -0.3508
21913W        W38760   5.403   0.839  11.680 -0.1636 -0.0159 -0.0406
21914W        W38761   9.256   0.818   1.422  0.0826  0.0101 -0.1645
21915W        W38762  17.319  16.718   3.181  0.2176  0.2121 -0.1119
21916W        W38763   9.981   5.675  12.298 -0.1123 -0.1860  0.0591
21917W        W38764   9.968   3.169   3.507  0.3738  0.2032 -0.4277
21918W        W38765  12.298  14.717  10.868  0.1088 -0.0238 -0.1848
21919W        W38766   5.628   2.103   2.999 -0.2051 -0.0732  0.1136
21920W        W38767   7.793   2.768  12.654  0.0482 -0.0965  0.0330
21921W        W38768  18.084   7.889  12.371 -0.0831 -0.1319 -0.3082
21922W        W38769  15.925   2.869   0.726 -0.0656  0.1078 -0.2376
21923W        W38770  16.907   7.909   0.666 -0.1371 -0.2364  0.0148
21924W        W38771   4.670  17.309   3.118 -0.1563  0.0084  0.4536
21925W        W38772   9.040   3.451  12.401  0.1200  0.0488 -0.3670
21926W        W38773   9.033  18.874   0.120  0.0299 -0.0228 -0.1750
21927W        W38774  14.186  14.712  10.773  0.2614  0.0288  0.0269
21928W        W38775  12.751  12.366   2.639  0.0513 -0.2951 -0.1951
21929W        W38776  11.576  17.792   3.716 -0.1933  0.0928  0.3366
21930W        W38777  12.128  13.066  13.048  0.0250 -0.0941  0.1264
21931W        W38778  10.141  13.849   1.580 -0.1225  0.1338 -0.1135
21932W        W38779  11.122   8.190  12.729 -0.0196 -0.2178 -0.1285
21933W        W38780   4.410   8.376  12.744 -0.0775 -0.2564  0.0088
21934W        W38781   2.428  11.507   0.724 -0.1615 -0.2173  0.1399
21935W        W38782  18.617   3.592   2.099  0.0003 -0.2125 -0.0015
21936W        W38783  10.405   0.569  14.453 -0.0570  0.0710 -0.2343
21937W        W38784  17.119  11.378   2.802  0.0464 -0.4059 -0.1450
21938W        W38785  12.752  12.333  12.328 -0.0144 -0.1017 -0.1303
21939W        W38786  12.899   4.919   4.256 -0.2469 -0.0492  0.0713
21940W        W38787  18.929   9.360   4.830 -0.0856 -0.0029  0.1255
21941W        W38788  12.957   5.124   3.041  0.1358  0.1335 -0.1258
21942W        W38789  11.994   2.468   3.599 -0.1809  0.0607 -0.2903
21943W        W38790  17.350  10.893   2.761  0.1442 -0.0725 -0.3196
21944W        W38791  16.347   6.167   0.121 -0.1122  0.0386 -0.0512
21945W        W38792  11.416  18.220  10.612  0.0325 -0.0618 -0.3417
21946W        W38793   3.923  15.202  12.173  0.1215  0.0674 -0.2599
21947W        W38794   7.428  15.397  12.621 -0.1282  0.1376 -0.0282
21948W        W38795  14.604  16.307   9.061  0.2774 -0.0844 -0.0371
21949W        W38796   7.181   9.940   1.685  0.0502  0.0468 -0.1138
21950W        W38797  13.449   1.322  14.320 -0.0781  0.0073  0.2359
21951W        W38798  18.969  13.777   0.971 -0.0693  0.0632  0.1585
21952W        W38799   3.190   0.621  11.224 -0.2306  0.1125 -0.2902
21953W        W38800   5.963  17.982   3.023 -0.2646 -0.3819 -0.0638
21954W        W38801  15.160  18.185  10.966  0.1120  0.1804  0.0568
21955W        W38802  17.084   0.609   3.762 -0.2260 -0.2505  0.2546
21956W        W38803   4.818  14.172  11.742 -0.2033 -0.2534 -0.0950
21957W        W38804  17.985  13.742  12.389 -0.0191 -0.2249 -0.1929
21958W        W38805   6.322  10.351  12.082  0.1381  0.2845  0.2219
21959W        W38806  11.747  13.399   3.821  0.0035 -0.3213  0.0302
21960W        W38807   1.020  18.098   3.582  0.1583  0.2570  0.1087
21961W        W38808  16.452  13.455   4.063  0.1166  0.1009 -0.3027
21962W        W38809   9.396   6.650   1.333 -0.1651 -0.0210  0.0262
21963W        W38810   3.831   6.047  13.365  0.2431 -0.1579 -0.3038
21964W        W38811  19.286   6.158  13.683  0.1617  0.1531  0.0785
21965W        W38812  14.986   5.720   1.536 -0.0858  0.0355 -0.1981
21966W        W38813  11.341   3.199   0.196  0.0268 -0.1747  0.0649
21967W        W38814   9.484  18.929  12.057 -0.2403  0.4844  0.1303
21968W        W38815   4.130   7.360   4.787  0.0999  0.2947  0.2739
21969W        W38816   2.221   2.027  10.898  0.2402 -0.3244 -0.2999
21970W        W38817   0.602   5.172  12.418  0.0742 -0.1984 -0.1718
21971W        W38818  11.313   0.967   1.740 -0.1781  0.0405 -0.0383
21972W        W38819  11.107   1.972  10.802  0.0710  0.3044 -0.0855
21973W        W38820  16.354   0.718   2.989  0.3327 -0.0056 -0.0263
21974W        W38821  14.947  14.980   4.381 -0.1475 -0.4222 -0.2647
21975W        W38822  10.039   9.789   0.927  0.2247 -0.0748 -0.1634
21976W        W38823   8.017  15.247  13.871 -0.0261  0.1348  0.1306
21977W        W38824   0.261   0.035   0.686  0.0112 -0.0582 -0.0067
21978W        W38825   8.747  13.309   0.416 -0.2587  0.1155 -0.1407
21979W        W38826  19.269   6.682  13.671 -0.1622  0.2530  0.1767
21980W        W38827  13.141  14.560   2.533  0.2890  0.1325  0.2439
21981W        W38828  15.805  14.935   1.526 -0.3491 -0.1352 -0.0328
21982W        W38829  13.811  17.174   1.857 -0.0303  0.2534  0.0750
21983W        W38830  14.290   9.814   0.065  0.0301  0.0296  0.0575
21984W        W38831  13.784  11.555   4.659  0.3553 -0.4004 -0.0441
21985W        W38832  15.606   6.835   4.925 -0.1543  0.0429 -0.0126
21986W        W38833  17.170  13.865  14.024 -0.1259 -0.1257  0.1271
21987W        W38834   3.240   7.266   1.032 -0.1759 -0.1966  0.0379
21988W        W38835   2.845   0.121   1.200  0.1405 -0.4173  0.1121
21989W        W38836  10.432   4.931   0.383 -0.1838  0.1711  0.1420
21990W        W38837  12.132   8.955   1.333  0.1115  0.2407  0.1280
21991W        W38838   3.942  15.409   2.024  0.2082 -0.2361  0.1505
21992W        W38839  15.675   2.493  11.243  0.1048 -0.0615 -0.1454
21993W        W38840   0.366   9.146  10.829  0.1668  0.2953 -0.0449
21994W        W38841   4.429  13.898   0.252 -0.1854  0.0507  0.0645
21995W        W38842  16.528   4.992  11.339  0.1820  0.1264 -0.0282
21996W        W38843  13.926   4.925   0.878  0.1904 -0.0916 -0.1941
21997W        W38844  18.152   9.675   4.408  0.2293  0.1663 -0.0367
21998W        W38845  19.412   8.786   5.894 -0.0179 -0.0237  0.1002
21999W        W38846  18.904   2.952  11.873  0.0423  0.0164  0.3408
22000W        W38847  10.313   4.211   4.710  0.0012  0.0805 -0.3182
22001W        W38848   1.575  15.968   1.696 -0.0038  0.0749 -0.1187
22002W        W38849   5.544   3.851   0.029 -0.0198 -0.0331 -0.1315
22003W        W38850   7.857   8.561  12.046 -0.2881 -0.0626  0.0678
22004W        W38851  11.097   1.798   2.754  0.2193  0.0556 -0.1989
22005W        W38852  14.350   5.039   9.395  0.1262 -0.4605 -0.0452
22006W        W38853  14.820  17.953  10.584  0.0987  0.2258  0.1499
22007W        W38854   8.885  11.974  10.382  0.0062  0.2855  0.1189
22008W        W38855  18.132  16.568   1.098  0.2500 -0.2213  0.1152
22009W        W38856   7.044  18.870  11.178 -0.1521  0.1126  0.0250
22010W        W38857   1.797  14.182   2.421  0.0189 -0.1488 -0.2151
22011W        W38858   9.099  11.101   4.255 -0.0462  0.1318  0.5558
22012W        W38859  12.832  12.589   1.176 -0.0660  0.1298 -0.1773
22013W        W38860  15.350  15.379   2.819  0.0594 -0.1372 -0.3058
22014W        W38861  18.073   4.847  12.676  0.3903 -0.0914 -0.1332
22015W        W38862   7.169  18.788   3.992  0.3439  0.0937  0.0450
22016W        W38863  15.353  19.446  14.420 -0.0125 -0.1493 -0.1703
22017W        W38864   4.922  17.806  14.336 -0.1676 -0.1125 -0.1030
22018W        W38865   0.939   3.603  14.327 -0.2136 -0.5091  0.0757
22019W        W38866  13.699  19.325   4.520  0.0775 -0.1176  0.2787
22020W        W38867   2.382  11.564  12.255  0.2019  0.0089 -0.0184
22021W        W38868   5.957   1.168   0.785  0.0184 -0.1807  0.1445
22022W        W38869   4.681   3.147   4.327 -0.0371 -0.2778 -0.0065
22023W        W38870   7.104   2.117  12.873  0.0232  0.1231 -0.1252
22024W        W38871  19.170   5.943  12.903 -0.0931 -0.4926  0.1605
22025W        W38872  12.756  11.221   2.307 -0.2501  0.1574  0.1941
22026W        W38873   6.144  16.220   3.713  0.0286  0.0203  0.2504
22027W        W38874   3.810   6.559  10.431  0.1500  0.0646 -0.2306
22028W        W38875   1.767  19.584  12.999 -0.0000  0.1813 -0.1201
22029W        W38876   6.207   7.585  12.007  0.1252  0.3041 -0.3087
22030W        W38877   1.188  15.535  10.629 -0.0135 -0.0346  0.0576
22031W        W38878   7.504   1.381   3.008  0.0106 -0.2661 -0.1113
22032W        W38879   9.639   6.244  13.942  0.1269 -0.4725 -0.2660
22033W        W38880  10.297   4.815   2.370  0.1584 -0.1128  0.3008
22034W        W38881  14.002   4.239   4.485 -0.1341 -0.2038 -0.0322
22035W        W38882   6.290  12.223  12.448  0.1680  0.1144  0.0737
22036W        W38883  12.501   9.444   2.851  0.1709 -0.0149  0.1882
22037W        W38884  11.252   0.010   3.786 -0.0585  0.1146 -0.0712
22038W        W38885  16.293  16.581  11.817  0.1903  0.0457  0.0875
22039W        W38886  13.055   3.987   4.560  0.0803  0.0381  0.2523
22040W        W38887   9.629   3.190   1.654 -0.0356  0.2795 -0.2616
22041W        W38888  11.459  18.756   2.178  0.2253  0.3039  0.0093
22042W        W38889  12.417  10.870   3.651 -0.1241  0.0587  0.2117
22043W        W38890  18.627  11.689  11.875 -0.1571  0.1460 -0.0636
22044W        W38891  14.033   1.205  10.027  0.2179  0.1898 -0.2637
22045W        W38892   0.960   3.351  12.008 -0.0543  0.0904 -0.1721
22046W        W38893  13.225   6.663  10.449 -0.3263  0.0258 -0.3308
22047W        W38894  13.426   5.561   0.279 -0.2102 -0.1469 -0.1461
22048W        W38895  19.614  16.198  10.129  0.0745  0.0860  0.0579
22049W        W38896   3.018   7.673  13.647  0.1425 -0.1027 -0.0167
22050W        W38897  19.483  12.049  12.667  0.2204 -0.1170 -0.0981
22051W        W38898   6.784   0.872   9.373  0.2598  0.0317 -0.0843
22052W        W38899  10.492   5.521  10.599  0.6956 -0.0694 -0.6231
22053W        W38900   9.507  14.479   0.518 -0.1108 -0.1315 -0.1344
22054W        W38901  15.674   3.063   0.328  0.5298 -0.1366 -0.1497
22055W        W38902   0.608  15.913   3.379 -0.2121  0.1704 -0.0718
22056W        W38903   1.862  16.582  10.907  0.0496  0.2991 -0.0437
22057W        W38904   7.916  11.226  13.877  0.0776  0.0077  0.0911
22058W        W38905   1.779  14.226   3.788  0.0191 -0.2183 -0.2294
22059W        W38906  13.294  17.475  12.461 -0.0672 -0.1926  0.1848
22060W        W38907  17.595  10.354   9.944 -0.2412 -0.1342  0.1662
22061W        W38908   7.104   1.742   2.973 -0.0714 -0.0251 -0.2033
22062W        W38909  10.065  11.851   3.316 -0.4007 -0.0508  0.4228
22063W        W38910   6.922   9.328   1.003 -0.3508  0.3608  0.0020
22064W        W38911   8.951   5.492   0.602  0.0138  0.2824  0.0270
22065W        W38912  17.997   5.002  12.027  0.0392  0.3206  0.3188
22066W        W38913   4.583   3.765  12.394  0.0783 -0.4214  0.1813
22067W        W38914   2.850   9.295   1.974 -0.2735 -0.1504 -0.1808
22068W        W38915  14.114  16.819  13.870  0.0747 -0.1236 -0.1124
22069W        W38916  15.095  13.343  13.477 -0.0737 -0.1854 -0.3318
22070W        W38917   6.285   5.626   1.862  0.2730  0.2569 -0.0487
22071W        W38918  16.611   1.152  11.894 -0.0638 -0.0148  0.1345
22072W        W38919  11.826   6.356   3.540 -0.1310 -0.6055 -0.3205
22073W        W38920  11.865   5.364   1.738 -0.1276  0.2417  0.1551
22074W        W38921  14.080  19.086   3.113 -0.3554 -0.2838 -0.0518
22075W        W38922  18.294   3.598   1.574 -0.1769  0.4135 -0.1876
22076W        W38923  11.923  18.738   4.900  0.0479 -0.0506  0.3961
22077W        W38924   4.492   0.782   1.981  0.0214 -0.1369  0.3491
22078W        W38925   8.367   4.934  11.619 -0.2931 -0.2013 -0.1005
22079W        W38926   7.557  19.415   3.716  0.1102 -0.0880  0.0044
22080W        W38927  19.412  11.759   2.139  0.3244  0.2235  0.0970
22081W        W38928  10.840   2.201  10.032  0.1974  0.0017 -0.2882
22082W        W38929  11.740   4.126   9.985  0.2879  0.3757 -0.0035
22083W        W38930   9.132   0.690   1.954  0.1074  0.5110  0.5250
22084W        W38931   0.576  14.885  12.784 -0.0755 -0.0283  0.1281
22085W        W38932  14.734   6.860  14.398  0.1036 -0.1740 -0.2016
22086W        W38933   3.399   7.493  12.551  0.1519 -0.1372  0.0419
22087W        W38934  18.725  16.065  12.144 -0.5396  0.1175  0.4458
22088W        W38935  11.177  18.695   9.555  0.4465  0.0445  0.0560
22089W        W38936   4.863   5.977  12.395  0.2339 -0.0333  0.1713
22090W        W38937  16.761  16.371  12.679 -0.0323 -0.0538  0.1627
22091W        W38938   8.131   6.029  13.594 -0.0010  0.0830  0.0495
22092W        W38939  13.172  10.926   9.980  0.0974 -0.5579  0.0814
22093W        W38940   8.418  13.727   0.402  0.0603 -0.0868 -0.2658
22094W        W38941   7.188  16.374   3.119 -0.0122 -0.0110 -0.1711
22095W        W38942   7.667   6.835  12.403  0.3393 -0.0348 -0.0004
22096W        W38943   3.806   2.401   9.356  0.2768 -0.1756  0.1803
22097W        W38944  18.284   7.968  13.227 -0.2047  0.0171  0.3321
22098W        W38945   6.141  10.501   2.192 -0.0265  0.4647  0.3875
22099W        W38946   0.156  12.559  13.657 -0.0562 -0.0747 -0.1325
22100W        W38947  16.555   8.381   2.941 -0.1233  0.0846  0.4286
22101W        W38948   2.743  13.371  12.102 -0.3414 -0.0348 -0.1534
22102W        W38949   8.679   6.668   4.039  0.2299  0.0744  0.1454
22103W        W38950  15.385   1.222  13.392 -0.1125  0.3834 -0.1452
22104W        W38951  12.837  15.366   3.517 -0.1878  0.0078  0.0698
22105W        W38952  14.287  10.271  13.849  0.0924 -0.3971  0.2154
22106W        W38953   1.406   5.653  10.671 -0.2332  0.1264 -0.0656
22107W        W38954   7.446   1.563   2.564  0.0804  0.2062 -0.1917
22108W        W38955  11.628  14.581  12.560  0.0364 -0.0261  0.2004
22109W        W38956  14.912  18.475  13.419  0.0662  0.1252  0.1079
22110W        W38957   7.866  12.479   2.089  0.3709 -0.1905 -0.4474
22111W        W38958   6.864  16.295   4.739 -0.1002 -0.0312  0.1005
22112W        W38959  11.750  15.918   2.329 -0.0559  0.0401 -0.0720
22113W        W38960  19.386  18.041  11.640 -0.3892  0.0457 -0.1704
22114W        W38961  10.628  14.070  11.739 -0.3544 -0.1680 -0.2216
22115W        W38962   1.678  15.898  12.028  0.1459  0.3594  0.0282
22116W        W38963   5.557  15.488   9.971 -0.2241 -0.0126 -0.1491
22117W        W38964   2.469  16.570  11.982 -0.1855 -0.0424 -0.4457
22118W        W38965   2.252   4.394   0.114 -0.2112 -0.0072 -0.1717
22119W        W38966   7.597  15.617   4.178 -0.1769 -0.0415 -0.0335
22120W        W38967   0.450   3.180   9.386  0.0517  0.0961  0.2050
22121W        W38968  14.725   8.603  11.209  0.2790 -0.1499  0.3329
22122W        W38969  14.997   5.393  14.258 -0.0190 -0.2609 -0.1709
22123W        W38970  11.888  12.368   4.872  0.1169 -0.0584 -0.0442
22124W        W38971  12.688   7.301  14.267 -0.0270 -0.0071  0.1883
22125W        W38972   0.400  17.625  13.122 -0.0506  0.0240 -0.3132
22126W        W38973  11.876   6.088  14.213 -0.1836  0.0499 -0.2889
22127W        W38974  16.348   9.737   2.440  0.1857  0.0136  0.0371
22128W        W38975   6.444   3.931  12.484 -0.0276 -0.0525  0.2675
22129W        W38976  13.751  14.646   3.283  0.1164  0.4072 -0.0017
22130W        W38977   4.713   3.412   8.968 -0.0242 -0.0318 -0.4009
22131W        W38978  11.647   4.692   4.833 -0.1149  0.1887 -0.1087
22132W        W38979  15.771   3.494   4.301  0.1813 -0.1707  0.0201
22133W        W38980   9.063  15.978  10.960  0.1769  0.0324 -0.0175
22134W        W38981  11.266  19.036  12.269  0.3413 -0.2232 -0.2322
22135W        W38982  12.875   7.197   1.321 -0.0415  0.2535 -0.1190
22136W        W38983   6.467  17.512   0.357  0.1703 -0.3309  0.1079
22137W        W38984  16.609   5.165  12.887 -0.1840 -0.5881  0.1183
22138W        W38985   9.769  17.232   2.741  0.1692  0.0108  0.1638
22139W        W38986  16.716  11.584   9.571 -0.0633  0.1394  0.1763
22140W        W38987   2.689   1.885   4.987  0.0018  0.2200  0.1519
22141W        W38988  14.729   5.218  12.999  0.0049  0.0387 -0.0962
22142W        W38989   9.748  18.372   5.051  0.0811 -0.0511 -0.0927
22143W        W38990   2.836   8.143   2.013 -0.1918 -0.1920  0.0634
22144W        W38991   5.483   7.438   2.382 -0.0183  0.2643  0.1492
22145W        W38992  18.623   4.469  14.155 -0.1131  0.0021 -0.0852
22146W        W38993  11.603   1.618   1.013  0.5006 -0.1128  0.0826
22147W        W38994  11.290  11.885   4.301 -0.2956  0.1120 -0.1201
22148W        W38995   6.166   5.619  10.981 -0.0307 -0.0402 -0.0764
22149W        W38996  17.125   1.626  13.068  0.1146 -0.0744  0.2847
22150W        W38997   0.229   1.755  10.636  0.1354  0.1296  0.1013
22151W        W38998   3.088   0.146  12.866 -0.2216 -0.1503  0.0600
22152W        W38999   2.263  14.100  10.848  0.0347  0.0686  0.1845
22153W        W39000  10.425  18.899   1.143  0.0701 -0.2339  0.1299
22154W        W39001  16.974   3.508   1.744  0.1640 -0.4766 -0.0060
22155W        W39002  13.837  16.871  10.890 -0.0354  0.2692 -0.1850
22156W        W39003   6.713  10.740  14.537 -0.0231  0.2041  0.1856
22157W        W39004   8.086  17.462   0.079  0.2477 -0.0152 -0.0433
22158W        W39005  14.941  12.586   4.107  0.1501  0.2815 -0.0026
22159W        W39006  10.614   3.268   1.960 -0.0262  0.0034 -0.0562
22160W        W39007   5.251  14.005   1.615 -0.0836  0.1133  0.1589
22161W        W39008   5.637   0.097  13.577  0.0104  0.1308 -0.0071
22162W        W39009  10.580   6.060   1.806 -0.1940  0.1841 -0.0385
22163W        W39010  10.381  17.193   1.087  0.0072 -0.3712 -0.3377
22164W        W39011  13.274   6.781  12.517  0.2475  0.0493  0.2877
22165W        W39012  18.630   7.606  14.480  0.4181 -0.2003 -0.1815
22166W        W39013  14.622   1.134  13.411  0.3275  0.1188  0.0609
22167W        W39014   0.411   1.789  13.247 -0.0525 -0.0332 -0.2696
22168W        W39015  17.976  13.537  12.851  0.1241 -0.2507  0.1106
22169W        W39016   9.517  12.627  13.700 -0.3262  0.1457 -0.1859
22170W        W39017   7.365  14.347   0.536 -0.2285 -0.1370 -0.1318
22171W        W39018  17.631  10.648   4.833  0.0484  0.2845 -0.0002
22172W        W39019  13.676   8.588   4.202 -0.1357  0.1121 -0.0103
22173W        W39020   2.809   5.126  12.726  0.1562  0.1113  0.0133
22174W        W39021   0.624   8.249   4.238  0.0833  0.1016  0.1345
22175W        W39022  11.564   3.414   1.683  0.0681  0.0216 -0.3246
22176W        W39023  12.917   1.727   3.931  0.2772  0.3692  0.0652
22177W        W39024   8.583   1.736   4.845 -0.4962  0.2909  0.3128
22178W        W39025   5.016  14.579   9.937  0.3233 -0.0437  0.2814
22179W        W39026   9.330  15.023  11.958 -0.0927  0.1683  0.2550
22180W        W39027  14.460  16.382   4.285 -0.5940  0.0955 -0.2174
22181W        W39028  18.913  10.224  13.609  0.0677  0.2055 -0.0904
22182W        W39029   4.242   6.878  13.912 -0.0261 -0.0476  0.0655
22183W        W39030   3.819  17.507   1.975 -0.2103  0.0534  0.3474
22184W        W39031   4.191  13.046  10.441 -0.2867  0.4769  0.1010
22185W        W39032   1.713   0.842  13.629 -0.3129  0.0695  0.0801
22186W        W39033  16.310   3.944   3.484  0.0127 -0.0522  0.0264
22187W        W39034  18.339   2.432   4.116  0.0148 -0.1448 -0.0072
22188W        W39035  11.144   9.340   2.901 -0.1223 -0.1518  0.3144
22189W        W39036   1.078  17.988  10.363  0.2531  0.1415 -0.1921
22190W        W39037   9.261  13.726   3.873  0.1525  0.2264 -0.1899
22191W        W39038   9.234  18.287   4.181 -0.0838  0.0662 -0.0035
22192W        W39039   7.587  13.082   2.871  0.0198 -0.0866  0.0194
22193W        W39040   0.139   1.254   4.672  0.3193 -0.0177 -0.1317
22194W        W39041   6.280  18.871  10.133 -0.1946  0.0695 -0.1697
22195W        W39042  15.165   6.358   4.994 -0.0947  0.1891 -0.1284
22196W        W39043   8.511   2.085   0.572 -0.3269 -0.0136  0.1195
22197W        W39044  15.627   4.752   3.954  0.1249 -0.1155  0.0374
22198W        W39045   6.837  18.681  10.721  0.0954  0.0834 -0.0479
22199W        W39046   2.553  19.225   9.734  0.2434  0.0223  0.0671
22200W        W39047  16.485  16.678  10.183 -0.0840  0.0743  0.1913
22201W        W39048   6.394  10.683  14.164 -0.1612  0.4607  0.0035
22202W        W39049  13.297   1.989   1.222 -0.0513 -0.1189  0.0126
22203W        W39050   2.437  12.354   4.792  0.2000 -0.2725  0.1325
22204W        W39051   1.359  13.236   3.502  0.2620 -0.2550 -0.1636
22205W        W39052  16.932  18.029   0.494 -0.0044  0.1683  0.0705
22206W        W39053  11.308   6.605   4.852 -0.2023 -0.1745 -0.0616
22207W        W39054  11.826  18.966   2.923 -0.2295  0.0633 -0.3636
22208W        W39055   5.999   6.798  13.373  0.1328  0.0154  0.1069
22209W        W39056   5.091  15.535   1.142 -0.1485 -0.0711  0.2414
22210W        W39057   7.472   4.726   2.444 -0.0060  0.1494  0.1050
22211W        W39058  12.996   6.645   2.532  0.1033 -0.2244 -0.2179
22212W        W39059  16.774   4.430  14.053 -0.0833  0.1027  0.1762
22213W        W39060  13.580  19.112  12.634  0.2796 -0.3034 -0.0578
22214W        W39061  19.306  13.146   2.676 -0.0111  0.0031  0.1068
22215W        W39062  15.225  13.729  12.767  0.1963  0.0369 -0.0638
22216W        W39063  10.667   7.677   4.901 -0.2980 -0.0448  0.2349
22217W        W39064   8.408  14.206  14.583 -0.1057  0.0958  0.1486
22218W        W39065   6.682   9.111   0.670 -0.1860  0.0772 -0.0030
22219W        W39066  19.113   9.592  10.517 -0.2024  0.1387 -0.1176
22220W        W39067   0.162   6.055  10.757  0.2252 -0.1022  0.3026
22221W        W39068  18.539   3.680   1.049 -0.1221  0.2771 -0.1319
22222W        W39069  10.209   4.364  11.175  0.1806 -0.0679 -0.0301
22223W        W39070  15.716  16.962  11.005 -0.0821 -0.0838  0.1982
22224W        W39071  15.241  15.551   0.257  0.1849 -0.0474  0.0318
22225W        W39072   4.987  13.975   0.592  0.4341  0.1604 -0.4959
22226W        W39073  16.398   8.819   1.928  0.2307 -0.2422 -0.2755
22227W        W39074   4.402   7.568   3.873 -0.2286  0.1157  0.1023
22228W        W39075  12.863   4.975  10.063 -0.0465 -0.2100 -0.0019
22229W        W39076   8.720  15.839   2.151  0.0735 -0.3103  0.3909
22230W        W39077  14.261  16.395  14.205  0.0877 -0.0916 -0.1451
22231W        W39078   3.161  12.866  12.843 -0.0999  0.0917  0.0360
22232W        W39079   7.576   7.779   2.387 -0.2500  0.4026 -0.2305
22233W        W39080  10.910   4.813   2.818  0.3160 -0.0482 -0.0499
22234W        W39081  17.286   0.400  14.568  0.3452 -0.1288  0.0034
22235W        W39082  11.240   8.748  11.268 -0.0938 -0.2233 -0.2437
22236W        W39083  17.209  11.107  14.586 -0.2203  0.1103  0.1241
22237W        W39084   9.535   0.370   1.531  0.0842 -0.0448  0.0434
22238W        W39085   6.827   4.749   2.909  0.1884 -0.1333  0.0084
22239W        W39086  11.444   3.103   0.708 -0.2766  0.0122  0.2167
22240W        W39087  11.052  11.339  12.212 -0.3911  0.0855 -0.1316
22241W        W39088   1.157   4.945  14.445 -0.0265 -0.3729 -0.2468
22242W        W39089   9.287   8.132   9.929  0.1237  0.0949 -0.0296
22243W        W39090   2.351  18.371  12.972  0.0977  0.2968 -0.1998
22244W        W39091  18.307   3.230   0.772 -0.2336 -0.1308 -0.0120
22245W        W39092   2.189   6.221  10.750  0.0052  0.0289 -0.3051
22246W        W39093   7.196  11.406  12.329  0.1203  0.1384 -0.0439
22247W        W39094   0.051  13.841  12.836 -0.2300  0.1538  0.0897
22248W        W39095   6.249  11.342  10.709 -0.2217  0.2864 -0.2687
22249W        W39096   6.321   6.926   1.633  0.0774 -0.1640  0.1402
22250W        W39097   5.322  18.116   0.588  0.1798 -0.1271  0.0658
22251W        W39098  14.564  15.759   0.224 -0.2923  0.2334 -0.0757
22252W        W39099  13.980  16.322  13.810  0.0653 -0.1746 -0.2268
22253W        W39100   9.316  11.266   2.768  0.1453 -0.0061  0.2324
22254W        W39101   1.974   4.761   9.319 -0.0807  0.0660  0.0388
22255W        W39102   7.417  15.728  10.156  0.2362 -0.0143 -0.2636
22256W        W39103   6.506  16.637   2.099 -0.1140  0.1259  0.1076
22257W        W39104  12.693   2.165   4.126  0.0606 -0.0476 -0.1794
22258W        W39105  12.296   0.468  11.642 -0.1746  0.3104 -0.0415
22259W        W39106   7.437   7.904   2.850 -0.1900  0.0054  0.0218
22260W        W39107   5.492  19.200   0.455 -0.1911  0.3674  0.1370
22261W        W39108  13.511  12.229  11.880 -0.4999  0.0612  0.3055
22262W        W39109   7.343  11.007   3.424  0.0359  0.0355  0.2343
22263W        W39110   6.525  15.754   2.561  0.0755  0.0122 -0.4719
22264W        W39111  11.633   2.868   3.506 -0.1722  0.0155  0.0680
22265W        W39112  11.340   3.824   4.726  0.0617 -0.0738  0.0839
22266W        W39113  13.692   4.921  11.690  0.2350 -0.1399  0.2957
22267W        W39114  10.417  14.213   1.450  0.2027 -0.0638 -0.3073
22268W        W39115  19.328   4.004  12.051  0.4846 -0.0261  0.0675
22269W        W39116   2.066  10.405  13.824 -0.3038  0.0542 -0.1788
22270W        W39117  16.910   3.161  11.659 -0.3795 -0.0619 -0.1716
22271W        W39118   6.534  15.203   4.876  0.2261  0.1254  0.2305
22272W        W39119   3.617   7.838   3.088  0.1726  0.1392  0.1608
22273W        W39120  11.484  17.737   4.238 -0.2445 -0.1001 -0.0364
22274W        W39121   7.352   2.171   2.661  0.2913 -0.0684  0.1200
22275W        W39122   6.065   0.566  14.302 -0.2266 -0.0021 -0.0248
22276W        W39123   6.298  17.857   0.981  0.2351 -0.1129 -0.1791
22277W        W39124   0.823  18.378  13.914 -0.2132 -0.0974 -0.0410
22278W        W39125  15.524   2.589   0.532  0.2200  0.0289 -0.0993
22279W        W39126   2.687   1.837  13.859  0.1489 -0.1019 -0.2219
22280W        W39127   5.927  16.877  11.254  0.0388 -0.0870 -0.1506
22281W        W39128   9.114   7.892  14.358  0.5011  0.0979 -0.1632
22282W        W39129   2.818  16.594   3.387  0.2263 -0.0825  0.1404
22283W        W39130   2.763   5.210   3.793 -0.3329  0.0146 -0.3940
22284W        W39131  10.233   6.850   4.065 -0.4956  0.2194 -0.0834
22285W        W39132  19.325   8.415   4.546  0.2581  0.1230  0.0434
22286W        W39133   6.617   8.162   1.727  0.1651 -0.2583  0.0331
22287W        W39134  12.379  10.003  11.369 -0.1002  0.3148 -0.1128
22288W        W39135  16.741  18.342   1.666 -0.2297  0.2908  0.0062
22289W        W39136  12.284  13.644  10.029 -0.1565  0.0480 -0.1532
22290W        W39137   9.689   1.212  14.243  0.0142 -0.4070  0.1833
22291W        W39138   8.807  18.039   0.454  0.0322 -0.2100  0.0488
22292W        W39139  13.953  13.897   2.736 -0.4919 -0.1486 -0.1962
22293W        W39140  11.123   7.363   3.313 -0.0071  0.1343  0.0901
22294W        W39141  11.878   3.306  11.165  0.0433 -0.3563 -0.2798
22295W        W39142  15.873  13.448  12.810 -0.0504 -0.0162 -0.2720
22296W        W39143   5.359   2.165  13.664  0.0053  0.1137  0.3414
22297W        W39144   2.405  13.479  12.873 -0.2582 -0.1789  0.0610
22298W        W39145  16.883   2.627  10.347  0.3071  0.1511  0.0120
22299W        W39146   3.697  18.496  10.529  0.0793 -0.1040  0.2349
22300W        W39147  19.108   5.122   1.795 -0.0672 -0.2123  0.1512
22301W        W39148   1.095  11.225   3.786  0.0116  0.0899  0.2234
22302W        W39149   2.322  16.345   2.062 -0.2155  0.0576 -0.0497
22303W        W39150  10.187   2.284   0.969 -0.0590  0.0496 -0.1175
22304W        W39151   0.026   0.207  12.015 -0.0935 -0.1216  0.2358
22305W        W39152   4.627  12.277   2.249 -0.1003  0.0901 -0.3877
22306W        W39153   6.174   9.277  13.265  0.1011 -0.3400 -0.3854
22307W        W39154   6.241   7.175   4.307  0.0771 -0.0210  0.0959
22308W        W39155  14.900  19.439  13.407  0.2242  0.1463 -0.1789
22309W        W39156   0.368   5.253  10.978  0.0017  0.1001 -0.0158
22310W        W39157   7.801  17.803  12.415  0.3468 -0.4583  0.1351
22311W        W39158  14.209   3.210   1.374  0.2137  0.1095  0.2028
22312W        W39159   0.125  11.551   5.322  0.2642  0.0580  0.2116
22313W        W39160   2.347   4.884  11.126  0.0477 -0.1914  0.0086
22314W        W39161   2.843   0.411  12.483  0.0825 -0.2449  0.0696
22315W        W39162   6.814  16.440  12.140 -0.0420  0.1119 -0.3147
22316W        W39163   0.355  12.440   5.577  0.0047  0.1408  0.1950
22317W        W39164  11.917   6.022   1.914 -0.3013  0.1745  0.1010
22318W        W39165   0.633   7.893  12.862 -0.1430 -0.1768 -0.1989
22319W        W39166   6.908   3.107   1.008  0.0931  0.1180  0.2174
22320W        W39167   0.140  13.594  13.885 -0.1099  0.1214  0.2599
22321W        W39168  12.791  10.529  12.110 -0.2252  0.0499  0.1524
22322W        W39169  18.070  16.651   9.104 -0.0523  0.2209  0.0853
22323W        W39170  18.189  11.855  10.706 -0.2377  0.0237  0.0237
22324W        W39171  15.962  10.744   0.002  0.1810 -0.1693 -0.0055
22325W        W39172  16.013  16.499   0.596  0.0405  0.0627  0.0672
22326W        W39173   2.989   9.237   5.208  0.1775 -0.2026  0.3600
22327W        W39174  15.913  13.465   2.837 -0.2000  0.1637  0.0242
22328W        W39175  12.921   9.009  11.815 -0.0623 -0.2094 -0.0893
22329W        W39176  18.715  14.154   3.004 -0.1441  0.0759  0.2809
22330W        W39177  16.032   9.688   2.027  0.0648 -0.1113 -0.2657
22331W        W39178   5.276  13.988   5.081 -0.1763 -0.1447  0.2285
22332W        W39179   3.739   1.040   4.428 -0.2250  0.1954 -0.2511
22333W        W39180  10.119  12.067  13.430  0.0692 -0.0516  0.0807
22334W        W39181  15.211   4.216   0.917 -0.0126  0.2311 -0.0479
22335W        W39182   2.130   7.457  12.491  0.0561  0.0300  0.1758
22336W        W39183  10.260  14.252   2.408  0.2638 -0.2710 -0.0230
22337W        W39184  11.688   6.719   0.796 -0.2471 -0.0346 -0.0525
22338W        W39185  19.629  16.088   2.241 -0.0672 -0.0238 -0.0773
22339W        W39186  16.678   0.124  10.383 -0.1193 -0.2099 -0.0355
22340W        W39187  15.936   2.130   2.477 -0.2902 -0.0515 -0.0834
22341W        W39188  11.532   0.815   2.644  0.0934 -0.3281 -0.2852
22342W        W39189  19.525  19.555  14.399  0.2222 -0.0691 -0.2645
22343W        W39190   1.669   2.974  12.467  0.1228  0.1559  0.0144
22344W        W39191   5.432  10.862  10.758  0.0400 -0.3738  0.0908
22345W        W39192   1.098   2.325  11.981 -0.1639 -0.0242  0.0471
22346W        W39193  15.439   7.646  10.114  0.0234  0.0723  0.3928
22347W        W39194   0.349   5.607   3.522 -0.0059 -0.0578 -0.0674
22348W        W39195  16.659   5.349   3.974  0.0060  0.0103 -0.1638
22349W        W39196   9.833   3.222  13.614 -0.3548 -0.0362  0.0934
22350W        W39197   0.131   8.470   2.015  0.1807 -0.0046 -0.3887
22351W        W39198   6.860  18.438  13.187 -0.0111 -0.0801 -0.1069
22352W        W39199   5.233  15.202  11.379 -0.3039  0.2940  0.0836
22353W        W39200   8.142   4.773  13.562  0.1468  0.0827 -0.0020
22354W        W39201   8.515  11.177  10.352  0.1829 -0.1823  0.2115
22355W        W39202  12.788  12.002   4.512  0.0004  0.1264 -0.2395
22356W        W39203   6.656   2.081  13.135  0.2294  0.0753  0.0460
22357W        W39204   2.354  17.137   1.729  0.0183 -0.2602 -0.2157
22358W        W39205  15.249  11.150  11.699 -0.4322 -0.1523  0.1809
22359W        W39206   4.520   2.122  11.044  0.0808 -0.0266  0.1457
22360W        W39207   3.071  19.609   2.518 -0.4535  0.0972  0.1300
22361W        W39208  14.750  15.280   4.017 -0.2373 -0.1830 -0.0666
22362W        W39209   7.607  19.198  10.435  0.3308 -0.0993  0.0235
22363W        W39210   6.363   9.005  12.859  0.0828  0.4084 -0.1452
22364W        W39211   0.795  15.235   0.435 -0.0121 -0.1796 -0.0449
22365W        W39212  18.922  14.140  10.648  0.0302  0.3601  0.1074
22366W        W39213  13.958  19.138  14.507 -0.0314  0.1122  0.2498
22367W        W39214   5.464   9.180   1.636  0.0254  0.4289  0.2314
22368W        W39215   3.063   8.482   1.284  0.2862 -0.3776  0.1555
22369W        W39216  15.683   1.762   0.391 -0.1082  0.0212  0.3122
22370W        W39217  16.490   0.571   2.546  0.0983  0.1683  0.0110
22371W        W39218   8.176   4.839   0.190  0.0672 -0.0431  0.0924
22372W        W39219   0.560   5.264  10.507  0.1309  0.0022  0.3775
22373W        W39220  18.727   2.078  13.669  0.2367  0.1373 -0.2695
22374W        W39221  16.641  11.033  12.953 -0.0419 -0.0131  0.0369
22375W        W39222  19.020   7.233  12.962 -0.0873  0.1927  0.0850
22376W        W39223  19.431  14.274  11.410  0.3342  0.0040  0.2449
22377W        W39224  19.179  13.066  13.834 -0.0396 -0.1279 -0.0627
22378W        W39225   7.070   9.469   1.479 -0.1444 -0.1310  0.2204
22379W        W39226   9.900   1.823  13.854  0.2463  0.1653  0.1104
22380W        W39227   9.691   4.792  12.024 -0.0751  0.0876 -0.1347
22381W        W39228   9.094   2.412  12.513  0.1038 -0.2133 -0.1077
22382W        W39229  18.057  13.966  11.572  0.1251  0.1172  0.1153
22383W        W39230  11.730  16.463  11.909 -0.0699 -0.1306 -0.0605
22384W        W39231  10.758  14.679   5.111 -0.2379 -0.0907 -0.1077
22385W        W39232   1.718  15.483   1.707 -0.0351  0.3486  0.0669
22386W        W39233   6.009   2.592  11.073 -0.1914  0.1198 -0.2133
22387W        W39234  17.963  11.889   0.004  0.1220  0.3493 -0.0824
22388W        W39235   4.090  14.434  12.619  0.0212 -0.2815  0.1401
22389W        W39236  17.103  18.772   0.180  0.0413  0.1422  0.0951
22390W        W39237  10.726  10.571   0.613  0.1676  0.0589  0.0098
22391W        W39238  18.664   5.250   0.160  0.0600  0.2833 -0.0791
22392W        W39239   2.654   5.452   1.661  0.1902 -0.2700 -0.2750
22393W        W39240  17.090  16.408   2.709  0.4315 -0.0125  0.2767
22394W        W39241   2.902  12.385   4.617 -0.0124 -0.2093 -0.2929
22395W        W39242  17.841   8.212  10.170  0.0816 -0.0222  0.3423
22396W        W39243  13.057   9.087   9.180 -0.0911 -0.0671  0.0455
22397W        W39244  13.295   1.375   0.655 -0.0070  0.1003 -0.1667
22398W        W39245   9.177   5.006  14.438  0.0507  0.1800 -0.1894
22399W        W39246  11.532  17.139   9.794 -0.1026 -0.2058  0.0611
22400W        W39247   8.115  11.218  13.189  0.2430 -0.1431 -0.1438
22401W        W39248   0.398   6.212  12.117 -0.1580 -0.0024  0.4492
22402W        W39249   5.078   5.164   1.612  0.0470  0.1964  0.3606
22403W        W39250   2.152   5.526   4.384 -0.0514  0.0878 -0.3514
22404W        W39251   2.886  14.748   0.782 -0.4023 -0.5467  0.1674
22405W        W39252   0.989  16.029   4.889 -0.0037 -0.3314  0.0682
22406W        W39253   5.224   0.369   0.326  0.1223  0.1072  0.1985
22407W        W39254   7.213  12.840   3.241  0.1630 -0.0917  0.0635
22408W        W39255  16.930  12.013   3.566 -0.1089 -0.0435 -0.0244
22409W        W39256   9.217   7.091  12.094 -0.2905 -0.2355 -0.0004
22410W        W39257  11.253  10.213   4.734 -0.1597 -0.0142  0.2826
22411W        W39258  10.686   6.234  12.025 -0.0930 -0.1242 -0.0182
22412W        W39259  13.846   1.122   2.007 -0.4744  0.3404 -0.1460
22413W        W39260   4.260  13.913  12.666  0.0349  0.2949  0.0734
22414W        W39261  18.172   0.140   3.155  0.1974  0.1732 -0.0658
22415W        W39262   9.734   9.337  11.462  0.0451 -0.0554  0.3437
22416W        W39263   3.396   8.024  11.669 -0.2244 -0.2960  0.1308
22417W        W39264   9.968   1.857  12.532 -0.0693  0.0051  0.1565
22418W        W39265  11.849   2.815   1.193  0.0428  0.0220 -0.0893
22419W        W39266  18.159  12.995   4.293  0.0777  0.0409 -0.0353
22420W        W39267   7.439   5.493   3.240 -0.1810  0.0460 -0.0990
22421W        W39268  13.051   5.085  11.433  0.2470 -0.0446  0.1602
22422W        W39269  16.371  19.077   2.020  0.1098  0.1788 -0.0046
22423W        W39270   0.926   4.003  11.194  0.0685 -0.0453 -0.2324
22424W        W39271   2.996  14.379   1.903  0.1820  0.0290  0.4382
22425W        W39272   8.001  15.140   4.134  0.1545  0.3500  0.2589
22426W        W39273   0.897  12.300   3.686  0.0725  0.0149  0.0848
22427W        W39274   5.233  11.875  13.089  0.0918 -0.2047  0.0487
22428W        W39275  12.162  18.097  11.641  0.0675  0.0194 -0.0518
22429W        W39276   8.285  15.171   1.164  0.0522 -0.0490  0.3127
22430W        W39277  19.312   6.283  10.354  0.0822  0.2451  0.0677
22431W        W39278   6.570   7.079   9.972 -0.0781 -0.0065  0.1056
22432W        W39279  15.116   6.869  11.116 -0.3405  0.1522 -0.2112
22433W        W39280  16.084  19.165   3.848  0.0870 -0.3115 -0.2568
22434W        W39281  11.324   5.100   0.655 -0.1264  0.2772 -0.2294
22435W        W39282  18.375   8.501   5.104  0.0384  0.1557  0.0953
22436W        W39283  16.395  13.923   0.450  0.1330  0.0411  0.0684
22437W        W39284  13.414   1.937   3.940 -0.1516 -0.0659  0.0835
22438W        W39285  19.082   0.702   0.570  0.0393 -0.2369  0.2701
22439W        W39286   6.781   8.225  13.311 -0.0987  0.0834  0.0544
22440W        W39287   7.614   1.481   1.745 -0.0798  0.1338  0.2160
22441W        W39288  10.101  11.179   1.216 -0.0570 -0.1392  0.0417
22442W        W39289  15.763   7.858  10.493  0.0138  0.0706 -0.2602
22443W        W39290  12.655   5.928   9.855 -0.0969 -0.0603 -0.0931
22444W        W39291  15.581   7.883  11.097 -0.1186 -0.2629 -0.3296
22445W        W39292   5.746   9.436  14.212  0.0414 -0.0700 -0.0697
22446W        W39293   8.954  10.907  10.436  0.0924  0.1220  0.2174
22447W        W39294   0.194  11.099   5.120 -0.1412 -0.2230  0.2859
22448W        W39295   5.401  18.010   8.872  0.2658 -0.1624 -0.0079
22449W        W39296  17.765   7.672   9.242 -0.1003  0.3519  0.1820
22450W        W39297  13.329   6.936  10.823 -0.0047 -0.3864 -0.3293
22451W        W39298  12.061   1.140   1.653  0.0961  0.0870 -0.0688
22452W        W39299  10.147  19.211  10.471  0.3651 -0.3500 -0.0698
22453W        W39300  14.799  11.728  10.729 -0.2614  0.0138 -0.1832
22454W        W39301   0.923   6.681   2.439  0.0493  0.0195  0.1097
22455W        W39302   6.640  11.865   2.914 -0.0082  0.0150 -0.0034
22456W        W39303   3.443   6.355   0.550 -0.0433  0.0833  0.0681
22457W        W39304  17.832  13.483   1.694 -0.2015  0.0313 -0.0706
22458W        W39305   7.014  15.671   1.067 -0.1113 -0.2012  0.2831
22459W        W39306  16.897  12.379  13.150 -0.1407 -0.4050 -0.0415
22460W        W39307  14.501   1.809   1.114 -0.1890  0.1076 -0.1441
22461W        W39308   7.124   1.297   1.337  0.0404 -0.1058 -0.1515
22462W        W39309   8.070   5.223   3.400  0.1520  0.0668  0.3023
22463W        W39310  14.971   7.869   3.400 -0.2478  0.2502  0.2474
22464W        W39311   0.931  14.498   0.983 -0.0213  0.2833 -0.2586
22465W        W39312  17.743  19.587   3.468  0.0866 -0.2022 -0.3063
22466W        W39313   7.662   7.270   1.930 -0.1048 -0.1876 -0.0928
22467W        W39314  11.403   6.273  10.960  0.1467 -0.0229  0.0797
22468W        W39315  11.234  12.692   3.731  0.0693 -0.3033 -0.0154
22469W        W39316  13.144  12.154   5.295 -0.1361 -0.0238  0.0428
22470W        W39317   6.465   8.016  12.974  0.0657  0.0416  0.3326
22471W        W39318  10.623   5.413   1.185  0.0093 -0.2097 -0.1254
22472W        W39319   6.910   7.913  10.322 -0.0440 -0.3434  0.3406
22473W        W39320  14.134   2.618  13.899 -0.1191  0.1130  0.1491
22474W        W39321  10.545   7.164  10.557 -0.0306 -0.1116  0.3021
22475W        W39322  19.508   3.206   1.851 -0.0685 -0.0099  0.0619
22476W        W39323  15.692  11.776   2.980 -0.3096 -0.1086 -0.1315
22477W        W39324  14.579  12.495   2.554 -0.3654 -0.2812 -0.2847
22478W        W39325   0.318  16.484  12.143  0.1020 -0.2144 -0.0657
22479W        W39326  15.010   8.922   0.971  0.2916  0.1040 -0.0118
22480W        W39327   5.832   4.263   0.177 -0.1617 -0.1799  0.2391
22481W        W39328  11.436  12.297  12.204  0.1195 -0.0754 -0.2880
22482W        W39329   8.523  11.769   5.507 -0.3787  0.1566  0.0783
22483W        W39330   5.881  18.776   3.976  0.0951  0.2219  0.3514
22484W        W39331  14.823   5.443   1.958  0.1618  0.1737  0.0812
22485W        W39332  19.298  18.486   3.480 -0.0732  0.1860 -0.0816
22486W        W39333  14.102  12.387  11.775 -0.1875  0.1165 -0.0342
22487W        W39334  16.913  16.810  11.294  0.0203  0.4164  0.1997
22488W        W39335  14.006   3.006  10.730  0.0002  0.5449  0.0542
22489W        W39336  12.717   8.224   3.999  0.0217 -0.1958 -0.0787
22490W        W39337  13.715  19.559  12.915 -0.4612  0.0537 -0.1009
22491W        W39338  12.714  11.836  10.933  0.2730 -0.2152  0.1836
22492W        W39339  10.619  12.123  14.464 -0.1504 -0.2376  0.0926
22493W        W39340   9.532   3.027  14.116 -0.2278  0.1733 -0.2697
22494W        W39341   3.291   5.600   3.560 -0.0809  0.3250 -0.2426
22495W        W39342  12.118  15.729  14.327  0.0960  0.1678 -0.0589
22496W        W39343   0.542   1.246   3.796  0.4208 -0.0952 -0.0822
22497W        W39344   3.632  12.119  13.735  0.1177 -0.0783 -0.1227
22498W        W39345   2.477   9.249  14.375 -0.3101 -0.0320  0.0946
22499W        W39346   1.990  11.397   2.572  0.4889  0.2749 -0.2222
22500W        W39347  18.022  14.563  13.405  0.2768  0.3395  0.0587
22501W        W39348  17.895   2.755   2.306  0.3511  0.1495  0.2175
22502W        W39349  14.955  12.103   0.039  0.1951 -0.2871 -0.0207
22503W        W39350  19.211  10.810   4.505  0.2165 -0.2692 -0.0870
22504W        W39351   3.844  11.992  13.316 -0.1487  0.0035  0.0056
22505W        W39352  15.899   8.369  12.634  0.1074 -0.0241 -0.0078
22506W        W39353  17.524   9.203   0.602  0.0142  0.2644 -0.1294
22507W        W39354  15.771  15.101   2.826 -0.0761  0.2954 -0.3402
22508W        W39355  17.647  15.347   3.094  0.0417  0.2634  0.3159
22509W        W39356  14.410  12.234   4.443 -0.0874  0.0620 -0.0226
22510W        W39357  11.469  16.255   4.899  0.2059 -0.1507 -0.3385
22511W        W39358  11.223  14.469   1.767  0.0752  0.2156 -0.1069
22512W        W39359   2.898  17.113   2.104 -0.1008  0.0674  0.0282
22513W        W39360   0.203   9.191  14.499  0.2019  0.2274 -0.0798
22514W        W39361  16.489  19.314   4.793 -0.1357 -0.0385 -0.1791
22515W        W39362  12.317  12.705  13.772 -0.0683  0.0719 -0.1088
22516W        W39363  16.700   6.588  11.133 -0.2434 -0.1305  0.2478
22517W        W39364  12.667  18.070   1.792 -0.0807  0.0355  0.0192
22518W        W39365  12.530   9.603  11.669  0.0343 -0.0361 -0.0018
22519W        W39366  17.394  11.790  12.902  0.2825  0.0975  0.1848
22520W        W39367  19.417  11.323   1.880 -0.0145  0.0558  0.0043
22521W        W39368   1.874  19.413   2.768  0.3085 -0.1367 -0.1538
22522W        W39369   4.633   3.145   1.120  0.1913 -0.1370 -0.0247
22523W        W39370  18.549   3.101   0.345  0.0179  0.0654  0.0469
22524W        W39371   3.291  10.168   2.543 -0.2472  0.1843 -0.1866
22525W        W39372  15.745   1.941   4.175 -0.2835 -0.3185  0.0889
22526W        W39373   7.704  17.657  10.621 -0.0399 -0.0857  0.1432
22527W        W39374  18.004  16.601   2.396 -0.0540 -0.0269  0.0791
22528W        W39375   1.729   1.734   4.620  0.2760  0.1823 -0.0677
22529W        W39376   0.836  16.406  12.272 -0.1407 -0.0447  0.1501
22530W        W39377   4.887   3.444   0.741  0.1480 -0.2515 -0.1207
22531W        W39378   2.489  19.257   4.528  0.0560  0.1423 -0.0733
22532W        W39379   0.545  13.965  13.637 -0.0419  0.1646 -0.2731
22533W        W39380  16.468   5.088   3.497 -0.1658 -0.1144 -0.0681
22534W        W39381   6.041  11.830  12.555 -0.1114  0.0896  0.0021
22535W        W39382  15.145  17.559   0.128 -0.2839 -0.2561  0.1802
22536W        W39383   6.267   0.996   4.373  0.1768 -0.0515 -0.1095
22537W        W39384   5.527  15.349   0.872 -0.0605 -0.0011 -0.0373
22538W        W39385   9.342  15.355   0.066  0.1008  0.1655  0.0007
22539W        W39386  12.559  15.765   3.576  0.0378 -0.2510 -0.1029
22540W        W39387  14.603   7.650   3.655  0.1578 -0.0142  0.2793
22541W        W39388  14.284   0.917   4.963 -0.1038  0.1628 -0.0812
22542W        W39389   7.382  16.325  13.002 -0.0197 -0.3356 -0.0107
22543W        W39390   8.641   7.743   3.294  0.3446 -0.0481 -0.4050
22544W        W39391  14.355   6.789  12.580 -0.0568  0.1696 -0.2153
22545W        W39392  12.805   1.331  10.484 -0.0759 -0.0064 -0.0579
22546W        W39393   6.330   4.261   0.147  0.0631  0.0819  0.0728
22547W        W39394   7.604  11.444  10.111  0.0693 -0.3221 -0.2653
22548W        W39395   1.244  14.379  12.060  0.4162 -0.0499  0.0362
22549W        W39396  16.252   5.480  14.221 -0.1113 -0.1780 -0.0565
22550W        W39397   3.739   3.492  12.597  0.0630 -0.0711  0.0475
22551W        W39398   2.191  12.189  10.550  0.3424 -0.0089  0.2099
22552W        W39399   4.443   4.108  12.799 -0.1134 -0.0041 -0.1259
22553W        W39400  12.403   1.864   3.885 -0.1138 -0.0663  0.0934
22554W        W39401  16.792   1.074   0.858  0.0962  0.1635  0.1157
22555W        W39402   4.286   5.477  12.283  0.0838 -0.0403 -0.0720
22556W        W39403   0.849  14.859   1.317 -0.1887 -0.2603  0.1696
22557W        W39404   0.218   7.158   1.333  0.0838  0.0602  0.0587
22558W        W39405   4.763  12.050  14.433  0.1483  0.0241 -0.1305
22559W        W39406   5.018   3.614  13.807 -0.3220  0.1332 -0.1626
22560W        W39407   0.077  17.672   2.059 -0.1126  0.1539 -0.0263
22561W        W39408   5.004   3.922   1.084 -0.1306  0.2010  0.0350
22562W        W39409  12.690  13.530   2.803 -0.1020  0.0606  0.2062
22563W        W39410   6.010   4.420  11.085 -0.1922  0.0670 -0.1412
22564W        W39411  10.491  14.683   4.088  0.4048 -0.0922 -0.2253
22565W        W39412   2.806  14.594   3.744 -0.1119 -0.0235  0.0675
22566W        W39413   5.355   4.523  13.004  0.3074  0.2578  0.0420
22567W        W39414   4.800  15.550  12.651 -0.0407  0.2094  0.1627
22568W        W39415  10.711   7.180   4.671 -0.4847  0.0584  0.1147
22569W        W39416   8.175  13.624  11.239 -0.2871  0.0063  0.3068
22570W        W39417  18.889  11.439   1.060  0.2310 -0.1115  0.2878
22571W        W39418   1.086  16.033   2.459  0.1710 -0.2083 -0.0443
22572W        W39419   4.705   7.122   4.188  0.1568  0.2780 -0.4105
22573W        W39420  15.572   3.012  10.397  0.0675 -0.1157 -0.0521
22574W        W39421  11.303   8.938   5.063 -0.1666  0.2659 -0.0884
22575W        W39422   8.539   0.306  12.732 -0.0802 -0.0028  0.1672
22576W        W39423  14.101   6.396   9.122  0.3604 -0.0743 -0.1166
22577W        W39424   8.835   3.654  10.748  0.0172  0.1030 -0.3744
22578W        W39425   8.185  13.095   1.620 -0.4029  0.2225  0.2935
22579W        W39426  14.325  18.262  11.291 -0.0747  0.2549  0.0241
22580W        W39427   4.626   6.840   0.543 -0.0014  0.0827  0.2953
22581W        W39428   7.565  12.980  11.584 -0.0413  0.0997  0.0147
22582W        W39429  16.263   1.430   2.999 -0.0370  0.1464  0.0386
22583W        W39430   5.324  11.640  14.147  0.0812 -0.1386  0.1057
22584W        W39431   7.066   0.346   4.493 -0.4663 -0.3331 -0.0348
22585W        W39432  13.987   3.970  10.749  0.2234  0.2452  0.5539
22586W        W39433   6.042  16.870   4.271 -0.0900  0.1636 -0.1780
22587W        W39434  16.623   4.814  14.397  0.3206  0.1207  0.1188
22588W        W39435   1.502   2.024   0.225 -0.0687 -0.0908  0.0059
22589W        W39436  16.089  18.198   4.740  0.1617  0.1119  0.0907
22590W        W39437  10.241  10.893   3.000 -0.2021 -0.1995 -0.0354
22591W        W39438   2.799   3.585   4.542  0.0595  0.2515  0.0101
22592W        W39439  17.286   1.503   9.304 -0.0483  0.2083  0.0294
22593W        W39440  15.773  15.680   0.924  0.0210 -0.1904 -0.0306
22594W        W39441  11.054   5.315   5.192 -0.3215 -0.3807 -0.0210
22595W        W39442   9.745  11.623   4.737  0.3265  0.0461 -0.0345
22596W        W39443  16.910  13.136   1.225 -0.2350  0.1661 -0.0609
22597W        W39444   3.146  15.423   3.349 -0.0595  0.2160  0.1481
22598W        W39445  12.330   8.074   2.491  0.0082  0.0415 -0.2709
22599W        W39446  13.563   7.712   4.288 -0.3310 -0.0606  0.0596
22600W        W39447   4.014   7.294   2.480 -0.2423 -0.0807 -0.0292
22601W        W39448   1.216   6.771  11.028  0.0914 -0.0716 -0.3388
22602W        W39449   7.741   0.183  13.550  0.1510  0.1643  0.0962
22603W        W39450  14.737   3.399   9.207  0.1848 -0.2976  0.0616
22604W        W39451  12.044   5.589   2.856 -0.0534 -0.0823 -0.3522
22605W        W39452  10.525  14.831   0.005  0.0087 -0.1506  0.1708
22606W        W39453  13.834  16.258   4.813  0.0595 -0.1373  0.2007
22607W        W39454   2.081   8.415  11.541 -0.0167 -0.2219 -0.1654
22608W        W39455   3.748   1.990  10.924  0.0187 -0.1991  0.2855
22609W        W39456   7.523  17.157  13.791 -0.1534  0.0722 -0.0580
22610W        W39457   8.504  11.042   0.561 -0.1170  0.1521  0.0709
22611W        W39458  16.848  11.951  11.766 -0.0606  0.0051 -0.3429
22612W        W39459   1.526  10.810  12.521  0.1047  0.0237 -0.1590
22613W        W39460   6.684  11.670   1.809 -0.0128 -0.0951  0.5321
22614W        W39461   3.849   1.674   2.308 -0.1457  0.1923 -0.1186
22615W        W39462  10.530   1.977  10.888 -0.1091  0.1286  0.1499
22616W        W39463   3.572   0.980  12.740 -0.0112  0.0574  0.2203
22617W        W39464   0.243   9.376   0.739  0.0480  0.3867  0.2347
22618W        W39465   2.789   5.363   3.327  0.1530  0.0579  0.5031
22619W        W39466   0.525   6.898  13.879 -0.0251  0.1760 -0.4736
22620W        W39467   5.601   8.498   2.470  0.2329 -0.2349  0.0932
22621W        W39468  17.914   6.660   1.158 -0.1087  0.0516  0.0179
22622W        W39469  18.212   5.128  10.790 -0.1328  0.0607  0.1361
22623W        W39470   3.865  12.666   2.536 -0.1077 -0.0631  0.0628
22624W        W39471   4.881  18.225   3.805  0.1142  0.1533 -0.1500
22625W        W39472  18.643  13.963  12.038 -0.0431  0.1169  0.3287
22626W        W39473  18.979  16.675  13.446 -0.0089 -0.0912  0.6046
22627W        W39474  12.039   9.512   3.708 -0.2066  0.0397  0.1058
22628W        W39475  13.992  13.784   3.830  0.1132  0.0950  0.1749
22629W        W39476  15.147  18.359  12.032 -0.0199 -0.1498  0.1291
22630W        W39477  11.878  13.588   0.379 -0.1836 -0.2535 -0.1385
22631W        W39478   2.003  11.373  13.121  0.0052 -0.0859  0.0476
22632W        W39479  15.690  14.333   0.358  0.1125 -0.1711  0.2011
22633W        W39480  17.188   8.042  12.844  0.0423 -0.2929 -0.0024
22634W        W39481   0.037   0.574  13.382 -0.1970  0.0026  0.3282
22635W        W39482  16.390  17.694   3.569  0.2088  0.0935  0.2506
22636W        W39483  17.010  15.057  11.937  0.1303 -0.1394  0.2716
22637W        W39484   2.993  12.653   1.332  0.0333  0.5087 -0.0653
22638W        W39485   3.033  15.793  10.207 -0.1552 -0.1424  0.1917
22639W        W39486  13.761  10.936  13.247 -0.0449 -0.0390 -0.1568
22640W        W39487   8.921   1.996  11.555  0.2019  0.0722 -0.2194
22641W        W39488   1.861  16.849  14.240 -0.3028 -0.2746  0.2575
22642W        W39489  11.748  13.113  12.573  0.2384 -0.0392  0.0602
22643W        W39490   7.640   1.637   0.334  0.1252  0.1901  0.1541
22644W        W39491   4.087   6.567   3.716 -0.1234 -0.0372 -0.0629
22645W        W39492   7.671   8.567   1.141 -0.0110  0.1816 -0.1660
22646W        W39493  12.024   5.568   3.383 -0.2629  0.1067 -0.2313
22647W        W39494  15.403   7.403   4.178 -0.0919  0.3396 -0.2445
22648W        W39495   1.623   3.569   4.254 -0.1947 -0.1467  0.0165
22649W        W39496   5.787   7.495  11.270 -0.1939  0.0747 -0.1403
22650W        W39497   6.989   4.393   2.044 -0.2325  0.0311 -0.0936
22651W        W39498   1.150   8.218   0.815 -0.0886  0.1649 -0.2046
22652W        W39499  19.001   0.930   1.542 -0.0916  0.1123  0.1132
22653W        W39500   5.744  10.545   0.111 -0.1281 -0.0653  0.0242
22654W        W39501   5.473  17.171  11.171 -0.1035 -0.2076  0.1180
22655W        W39502   9.274   5.837   0.287  0.2372 -0.0454  0.0247
22656W        W39503  10.314   8.348   4.201  0.2037 -0.1106 -0.0501
22657W        W39504   3.675   6.782   0.432 -0.1130 -0.0763 -0.0431
22658W        W39505  14.840  10.370  12.738  0.3974  0.1558 -0.0612
22659W        W39506  15.675   9.409   3.008  0.0056 -0.1438 -0.2709
22660W        W39507   9.741  19.361  13.250  0.2445 -0.0063 -0.3516
22661W        W39508  15.386  12.169   2.772  0.0645  0.0506 -0.1452
22662W        W39509   4.962   7.266  10.303 -0.1214 -0.1436 -0.1475
22663W        W39510   0.845  12.525   2.338 -0.1133  0.3648  0.1175
22664W        W39511  12.521  12.697   1.621  0.0080 -0.0039 -0.0055
22665W        W39512  18.383   9.421   4.949 -0.3093 -0.2312  0.1271
22666W        W39513   9.024  13.609   1.392  0.0561 -0.0475 -0.1844
22667W        W39514   6.944   9.030   2.147 -0.0905  0.5589 -0.0123
22668W        W39515  11.777   6.632   4.070  0.0736 -0.0281 -0.1062
22669W        W39516   6.984  14.447  12.233  0.1930  0.0130  0.3248
22670W        W39517  13.627  18.608  12.630 -0.0341 -0.0576 -0.1733
22671W        W39518  14.893   0.897   4.032  0.0229  0.1167 -0.1717
22672W        W39519  15.798   5.776   1.761  0.0721  0.0774  0.1066
22673W        W39520   1.860  15.123  11.342  0.2948 -0.0900  0.0094
22674W        W39521  11.731  14.842   4.141  0.1142  0.2753 -0.0167
22675W        W39522   9.611   8.180  12.701  0.1986  0.2616  0.0037
22676W        W39523  19.391  12.904  11.161 -0.2612 -0.0388 -0.0717
22677W        W39524  14.256  10.753  13.994  0.3015  0.3149 -0.2524
22678W        W39525  12.652   6.758   0.115 -0.0434 -0.1854 -0.0899
22679W        W39526   2.327  13.704   9.862  0.0303  0.1331  0.0293
22680W        W39527   4.155  10.540   4.692 -0.1229  0.2077  0.0339
22681W        W39528   6.440   7.120  11.993  0.0951  0.1363 -0.2969
22682W        W39529   4.910   9.953   3.603  0.0435  0.3526 -0.2139
22683W        W39530   1.761   1.363  11.651 -0.0958 -0.1733  0.2546
22684W        W39531  18.304   2.907  10.182  0.1662  0.2603  0.1657
22685W        W39532  12.469   6.871   1.020  0.1259 -0.1461 -0.0373
22686W        W39533  19.534   5.790  11.575  0.1382 -0.0295 -0.0234
22687W        W39534  13.243   6.384   1.722 -0.3384 -0.0102  0.3236
22688W        W39535  14.071   1.058  11.396 -0.1088 -0.1287 -0.1349
22689W        W39536  18.450  16.189  11.676 -0.2515  0.0628  0.0757
22690W        W39537  10.770   2.064  11.611  0.1712  0.2357 -0.1980
22691W        W39538  15.515  14.857  10.385 -0.0758  0.0149  0.0129
22692W        W39539  12.394  13.892   1.142  0.1257  0.3691 -0.1036
22693W        W39540   1.877   8.610   3.833  0.0531 -0.4610  0.0049
22694W        W39541   7.425   9.486  13.175  0.1672  0.0446  0.0200
22695W        W39542  12.966  14.830   5.197 -0.2883  0.2103 -0.0971
22696W        W39543   6.895  16.263  14.573 -0.3279  0.1529 -0.1806
22697W        W39544  16.605  17.693  12.891  0.1436  0.1304 -0.0341
22698W        W39545   2.876   7.960  10.668  0.0724 -0.1483  0.0366
22699W        W39546   6.032  11.606  14.328  0.2588  0.0517  0.3130
22700W        W39547   5.917   7.218   0.645 -0.0719  0.1432 -0.1245
22701W        W39548  19.506   3.125  10.584 -0.3268  0.3601  0.0812
22702W        W39549   4.416  16.606   2.922 -0.3226 -0.0034 -0.0753
22703W        W39550  13.967   4.712   1.998 -0.3999  0.1511 -0.1123
22704W        W39551   3.381  17.056  14.587  0.1087  0.1574 -0.1688
22705W        W39552   8.902  13.652  12.811 -0.2005  0.2311  0.0775
22706W        W39553   7.297  15.677  12.184 -0.0703  0.0625  0.0608
22707W        W39554   6.273  15.801   0.616  0.3039  0.3210  0.0473
22708W        W39555   4.861   2.999  14.360  0.0724  0.2532  0.1426
22709W        W39556   4.246  15.049  10.469  0.1127  0.0167  0.0476
22710W        W39557  10.437   5.126   1.920  0.0082 -0.2263  0.2864
22711W        W39558  13.312  10.330   1.661 -0.0079  0.2987 -0.1390
22712W        W39559   5.268  16.093  13.518  0.2586  0.0285  0.0072
22713W        W39560   7.907   1.307   3.824  0.2291  0.0315  0.1787
22714W        W39561   7.763   3.599  10.668 -0.1032 -0.1280  0.2081
22715W        W39562   8.137   4.552   4.331  0.3441  0.2195  0.1272
22716W        W39563  19.323   9.561  12.284 -0.2236 -0.2877 -0.0045
22717W        W39564   0.647   8.972   3.378 -0.1249 -0.3157 -0.2001
22718W        W39565   0.789  17.981   3.172  0.5700  0.1428 -0.1043
22719W        W39566  13.740   7.784   2.502 -0.0457 -0.1466 -0.4636
22720W        W39567   0.603  13.244  11.301  0.0006 -0.0935 -0.3102
22721W        W39568  10.659  14.510  12.618  0.3459 -0.1089 -0.2504
22722W        W39569   7.443  16.050  13.883  0.2144  0.0571 -0.2128
22723W        W39570   5.584   5.809  11.336  0.2694  0.1831  0.0157
22724W        W39571  18.461   9.510   2.567  0.0202 -0.0103  0.2753
22725W        W39572   8.581   1.452   9.905 -0.1116 -0.3233  0.0339
22726W        W39573   5.119  11.379   5.090 -0.1302 -0.0946  0.2444
22727W        W39574  10.137   7.370  12.403  0.4164  0.0556 -0.0649
22728W        W39575   9.804   6.650  13.594  0.0291 -0.1028 -0.1730
22729W        W39576   2.929   1.772   0.183  0.1464  0.3513 -0.2274
22730W        W39577  18.058  13.666   3.662  0.2058  0.1759  0.1513
22731W        W39578  14.347   9.364  14.318  0.1445 -0.3903  0.1130
22732W        W39579  16.326   2.999   1.284 -0.2079 -0.0460  0.0947
22733W        W39580   0.164   9.907  12.092  0.1548 -0.1423  0.1215
22734W        W39581   1.154   1.189   0.321  0.1373  0.2766 -0.0508
22735W        W39582  19.369   6.721   1.831  0.1074  0.3803  0.0293
22736W        W39583   1.328  14.476   0.059  0.0100 -0.0438 -0.0440
22737W        W39584   5.797   7.175   5.011 -0.2378 -0.1101  0.2035
22738W        W39585   4.208  11.156  12.383  0.0829 -0.1315 -0.2139
22739W        W39586   5.161  14.574   3.287 -0.2843 -0.0126 -0.1722
22740W        W39587  11.410   4.184   2.225  0.0390 -0.3259  0.1574
22741W        W39588   0.024  15.703  10.557 -0.0514 -0.2326  0.0537
22742W        W39589  14.656  10.575  13.667  0.0719 -0.1415 -0.1672
22743W        W39590   1.096  13.621   1.883 -0.1075  0.0946 -0.2908
22744W        W39591   1.978  18.104  12.732  0.3244 -0.1151  0.4676
22745W        W39592  14.726  11.001  13.969  0.1854  0.3044  0.3087
22746W        W39593  17.357   0.374   1.509 -0.0782  0.0178 -0.0812
22747W        W39594   1.896   7.760   5.135 -0.1779 -0.0749  0.1651
22748W        W39595  17.491   0.891   3.511 -0.0967  0.1127  0.2113
22749W        W39596  12.647  14.935  11.102 -0.2164 -0.0506 -0.1129
22750W        W39597  11.569  16.451   3.010 -0.1509 -0.1105  0.2023
22751W        W39598  16.963  12.132  14.558 -0.0939 -0.1583  0.2433
22752W        W39599   9.933  12.547  13.326  0.1417 -0.1192 -0.0285
22753W        W39600   9.239  12.275  14.579 -0.0317  0.2221  0.3481
22754W        W39601  15.928   2.664  10.410 -0.1654 -0.1009  0.1879
22755W        W39602  13.658  12.451  12.378 -0.1801 -0.0302  0.1013
22756W        W39603   3.669   5.377   1.889  0.3597  0.1632  0.0935
22757W        W39604   2.847   5.087  14.567 -0.0548 -0.2104  0.0832
22758W        W39605   1.358   7.704  11.915  0.1573  0.1087  0.1336
22759W        W39606  17.587  11.120   4.645 -0.1635 -0.0415 -0.2470
22760W        W39607  10.178  14.751   4.729  0.0342  0.0567 -0.2292
22761W        W39608   8.506   8.204   1.425 -0.0958 -0.0429 -0.0657
22762W        W39609  16.239   4.880   1.166 -0.0783  0.1046 -0.1943
22763W        W39610  15.440   3.531   1.596  0.0830 -0.0578 -0.0509
22764W        W39611  15.986   8.003   4.462 -0.3304  0.3188 -0.0091
22765W        W39612  18.775  16.230   0.046 -0.0150 -0.1970 -0.2296
22766W        W39613  18.158   2.698   2.830 -0.2255  0.1159 -0.0403
22767W        W39614  16.498   4.735  12.575  0.0308 -0.1565  0.1188
22768W        W39615   1.650  13.415  12.871  0.0664 -0.1129  0.1486
22769W        W39616  12.815  13.624   3.873  0.0953  0.3553  0.1411
22770W        W39617   4.701   2.336  11.741 -0.0268 -0.1212  0.0809
22771W        W39618   8.640  17.938   2.035 -0.1999 -0.1422 -0.0987
22772W        W39619  11.891   3.213  14.074  0.1503  0.1006  0.3293
22773W        W39620   7.460  14.153  12.017 -0.1519 -0.0234  0.2746
22774W        W39621   5.758  19.549   5.180 -0.2262 -0.0773  0.3396
22775W        W39622  11.343   7.254  12.861  0.2364  0.3032  0.2396
22776W        W39623  10.151  10.169   3.032  0.2297  0.0591 -0.1976
22777W        W39624  14.092   2.964   0.072  0.1841 -0.0383  0.0672
22778W        W39625   1.310  15.491  11.433  0.3549  0.1182 -0.0115
22779W        W39626   0.703  13.910   3.199  0.1214  0.0085  0.1776
22780W        W39627   0.675   4.415  10.112  0.1144  0.4090  0.1878
22781W        W39628  11.715  14.130  10.749 -0.2173 -0.0276  0.1225
22782W        W39629  15.322   7.343   0.306 -0.1049  0.0336 -0.2290
22783W        W39630   6.993  15.817   2.529  0.0083 -0.2183 -0.1409
22784W        W39631   9.685   9.776  14.191 -0.0266 -0.0366  0.0820
22785W        W39632  14.656  18.435   1.049 -0.0916 -0.1945  0.1972
22786W        W39633   3.788   5.314   9.414 -0.1132  0.0886 -0.0655
22787W        W39634   4.353  11.387  12.802 -0.1888 -0.2588  0.0614
22788W        W39635  15.349   4.417  14.559  0.1194  0.0999 -0.0600
22789W        W39636   2.007  13.327   1.879 -0.2126  0.0167  0.4415
22790W        W39637  13.591  12.685   1.454  0.0529 -0.1393  0.4148
22791W        W39638   6.584  12.336  14.339  0.3903  0.0210 -0.0301
22792W        W39639   1.629  12.234   2.324  0.2995  0.0427  0.0254
22793W        W39640  16.102  18.538   3.861 -0.0309 -0.2191 -0.1370
22794W        W39641  19.048   3.845   2.497  0.1402  0.5501 -0.4730
22795W        W39642   2.135  13.086  11.017  0.1048  0.3767  0.2052
22796W        W39643  11.852  15.126   4.844  0.2407  0.0652 -0.0396
22797W        W39644  18.307   2.147   1.613  0.0585 -0.1244 -0.3247
22798W        W39645   6.303   6.540   0.340 -0.0106  0.0136  0.0591
22799W        W39646   9.752   8.473   0.848  0.2702 -0.1889 -0.0581
22800W        W39647   8.946  15.996  12.796 -0.1977 -0.2020 -0.0759
22801W        W39648  19.120   8.393   2.182  0.0815 -0.1828 -0.0367
22802W        W39649   9.871  12.990  13.738  0.1287 -0.2293  0.0739
22803W        W39650  17.537  10.882  12.826  0.2424 -0.0672  0.1241
22804W        W39651  12.054   5.595   5.516  0.1442 -0.1907 -0.3616
22805W        W39652  15.034  15.237   0.638  0.3669 -0.1397  0.0395
22806W        W39653  17.929   3.334   1.330  0.0657  0.3745 -0.0605
22807W        W39654  19.337  12.947   9.889 -0.0478  0.0715  0.0874
22808W        W39655   4.258   3.479  13.237  0.2310 -0.1487  0.0361
22809W        W39656  14.776  14.163   5.513 -0.0577 -0.1636  0.5270
22810W        W39657  13.574  15.385  10.333  0.0557 -0.3628  0.1271
22811W        W39658   8.958  14.626  14.287  0.1697 -0.2159 -0.0874
22812W        W39659  13.151   6.003   2.152  0.1812 -0.1445  0.1520
22813W        W39660  18.676   1.686   0.733  0.0198  0.0256 -0.3891
22814W        W39661   7.580   5.300   1.824 -0.1554  0.2449  0.0758
22815W        W39662   4.725  10.051   1.036 -0.1727  0.2263 -0.0187
22816W        W39663  14.817  19.290   3.717  0.2565 -0.2172  0.4203
22817W        W39664  18.425  11.203   2.941 -0.1452  0.4217 -0.0683
22818W        W39665   4.126  17.992  12.001 -0.3667  0.0541  0.2438
22819W        W39666   1.212  18.667   3.580  0.2786 -0.0397 -0.0327
22820W        W39667  15.844  10.334  14.405 -0.1637  0.1594 -0.1271
22821W        W39668   5.714  12.249  12.273 -0.0237  0.1164  0.0942
22822W        W39669  14.969  13.538  12.386  0.0626 -0.0722 -0.3030
22823W        W39670   5.153  16.199   3.536  0.2531  0.2636  0.2913
22824W        W39671   4.747   4.548   4.122  0.2653  0.1971  0.0773
22825W        W39672  17.028   3.672   2.899 -0.0823  0.2503 -0.1252
22826W        W39673  17.481   6.051  12.326 -0.1487  0.2443 -0.0327
22827W        W39674   8.175  11.529   9.760 -0.0114  0.0070 -0.1399
22828W        W39675   2.916   5.120  11.700  0.1921 -0.2657 -0.1339
22829W        W39676  14.121  14.423  12.915 -0.0732 -0.1934 -0.1521
22830W        W39677   8.223   5.273   4.030  0.0784  0.3325 -0.1148
22831W        W39678  17.265   4.516   1.681  0.2416  0.0158 -0.2864
22832W        W39679   4.306  10.279  10.801 -0.0804  0.1243  0.1466
22833W        W39680   9.133  14.880   0.055 -0.0834  0.1668  0.1921
22834W        W39681   1.898  18.029  10.827 -0.2279 -0.4505  0.3966
22835W        W39682   4.183  13.921  10.944 -0.2142 -0.1359  0.1290
22836W        W39683  15.441  15.879   1.724  0.0788 -0.0536 -0.0099
22837W        W39684  15.486  18.297   3.794  0.0391  0.1038  0.1332
22838W        W39685   9.700   9.559  13.589 -0.0922 -0.1098 -0.0104
22839W        W39686  18.460  10.250   2.438  0.0247  0.2177 -0.0583
22840W        W39687   7.540   4.348   1.696 -0.2140  0.1895 -0.2088
22841W        W39688   9.057   1.988   1.973 -0.1749 -0.0005  0.0359
22842W        W39689   9.049   6.988   2.217 -0.1340 -0.1978 -0.0469
22843W        W39690  11.371  19.564  12.533 -0.0597 -0.0004 -0.2852
22844W        W39691   2.908  17.251  10.660  0.2825 -0.0844  0.2350
22845W        W39692  14.397   6.072  11.335  0.4189  0.2874 -0.1664
22846W        W39693   3.976  13.726   2.578 -0.2047  0.0764  0.0491
22847W        W39694   2.267   8.039   1.409 -0.0194  0.1145  0.1853
22848W        W39695  13.572   5.512  11.011  0.2047  0.1973 -0.5072
22849W        W39696  10.199  13.914  11.514  0.3892 -0.0926  0.2338
22850W        W39697   7.565  19.115   4.230 -0.5173 -0.2613 -0.0827
22851W        W39698   5.978   4.724  13.978 -0.1695  0.3458  0.0843
22852W        W39699   1.189  17.697   3.857  0.0723  0.1756  0.0625
22853W        W39700  16.015  13.176   4.782 -0.2382 -0.3201  0.2733
22854W        W39701  13.814  13.152   0.578  0.1182 -0.1151 -0.1868
22855W        W39702  16.721  11.536   3.221  0.0838 -0.2559  0.0197
22856W        W39703  11.603   8.654   4.587 -0.2358 -0.0268 -0.2536
22857W        W39704  17.838   5.750   2.974  0.0940 -0.1421 -0.1451
22858W        W39705  15.627  16.792   0.812 -0.0498  0.2774 -0.3971
22859W        W39706   3.629  13.020   2.249  0.1507 -0.0942  0.1216
22860W        W39707  13.777  15.533   3.163 -0.0885 -0.1371 -0.0364
22861W        W39708   6.329   0.009   4.426  0.3848 -0.0671 -0.1402
22862W        W39709  10.161  16.680   2.713  0.1737 -0.2345 -0.1128
22863W        W39710   2.505   5.895   1.399 -0.0680  0.1328 -0.3910
22864W        W39711  14.831   5.580   0.519  0.2565  0.1198 -0.0872
22865W        W39712   5.120   7.811   2.344  0.2319  0.1852  0.0088
22866W        W39713  15.217   3.183   5.320  0.3425 -0.0183  0.0895
22867W        W39714   9.543   6.716   3.117  0.1349  0.0777 -0.1775
22868W        W39715   0.508  13.095  12.133 -0.1814 -0.0196 -0.1121
22869W        W39716  16.650   4.022  13.628  0.0361  0.2297 -0.5211
22870W        W39717  19.272   3.128  14.568 -0.0616 -0.1823  0.1693
22871W        W39718   7.821   3.715   4.770 -0.1884  0.0605  0.2049
22872W        W39719   0.936   2.923  12.237  0.0806  0.0853  0.2130
22873W        W39720   2.442  16.796  14.269  0.1355 -0.0554  0.2202
22874W        W39721  14.627  18.920  10.885 -0.3166 -0.0340 -0.0891
22875W        W39722   1.499   2.870   3.906  0.3767 -0.2156 -0.1993
22876W        W39723  16.960  17.941   0.987  0.0348  0.0325  0.2875
22877W        W39724   5.032  11.913   1.163 -0.0235  0.1640  0.0277
22878W        W39725  19.526   9.775  14.395  0.0399  0.2549 -0.0119
22879W        W39726  11.001   7.660   0.392  0.0987 -0.3872  0.0107
22880W        W39727  18.420  16.414   8.860 -0.2031 -0.3223 -0.3587
22881W        W39728  10.273   9.261   4.550  0.0483 -0.0122 -0.0738
22882W        W39729   7.902   7.307   4.942  0.1654 -0.3161 -0.1218
22883W        W39730   3.191   6.733   0.227 -0.3630  0.1638 -0.4229
22884W        W39731  16.468  17.922   1.733  0.2034 -0.1647  0.0640
22885W        W39732  12.967   9.326   3.507  0.3704  0.1508 -0.0190
22886W        W39733  19.317   0.937   0.998 -0.0762 -0.1195 -0.0180
22887W        W39734   0.686   2.034  14.572  0.2813  0.1568  0.1126
22888W        W39735   5.075  12.247   0.344 -0.0195 -0.2888  0.2313
22889W        W39736   9.041  10.322   2.549 -0.0565  0.0713  0.0639
22890W        W39737   6.452  10.484  10.155 -0.4843 -0.3451 -0.1916
22891W        W39738  13.857   2.776   9.929  0.2768 -0.0409 -0.3801
22892W        W39739  12.674   2.796   3.390  0.0358 -0.1257 -0.0470
22893W        W39740  17.073  17.406   4.229 -0.2654  0.1304 -0.1533
22894W        W39741   1.623   1.552   0.967  0.4139  0.0026  0.1286
22895W        W39742  17.289   4.974   2.775  0.2498  0.5259 -0.0526
22896W        W39743   1.559  16.768   3.165 -0.0686 -0.0171 -0.0446
22897W        W39744   3.413  16.761   2.771 -0.1012 -0.2701  0.2860
22898W        W39745   7.024  18.176   4.889 -0.1019 -0.2123 -0.0218
22899W        W39746   0.695   3.506   1.707 -0.0610 -0.2402 -0.2874
22900W        W39747   5.973  16.883  14.345 -0.1862  0.1020  0.1755
22901W        W39748   8.167   4.340  14.490  0.3543  0.0645 -0.0810
22902W        W39749  11.175   6.109   5.676 -0.1221  0.1446  0.0032
22903W        W39750  12.492   6.984   2.325 -0.0792  0.1524  0.1962
22904W        W39751   8.310   9.136   1.397  0.2771  0.0367  0.3520
22905W        W39752  13.146   9.600   0.807 -0.0314 -0.1227  0.0037
22906W        W39753   1.003  17.942  12.659 -0.1631 -0.2926 -0.0787
22907W        W39754   4.124   6.607   4.488  0.2824  0.1165 -0.4959
22908W        W39755   9.651   7.967   0.908  0.2858 -0.1559 -0.1214
22909W        W39756   4.370  19.325   1.909 -0.0137 -0.0787 -0.0208
22910W        W39757   5.485  17.150   0.353 -0.0660  0.2056  0.4769
22911W        W39758  17.224   6.926   2.664 -0.1886 -0.1557  0.0247
22912W        W39759   5.510   8.317   1.050  0.2107  0.0205  0.0369
22913W        W39760   4.179  17.537   1.563  0.3003  0.0194  0.2338
22914W        W39761  16.888  15.714  13.167  0.2642 -0.0321  0.0150
22915W        W39762   7.705   7.438   4.464 -0.1083 -0.1492 -0.2437
22916W        W39763  18.623  18.241  13.330 -0.3033 -0.2590  0.0598
22917W        W39764  15.324   8.761  13.679 -0.1639  0.3287 -0.1725
22918W        W39765  14.274  15.005   1.475 -0.2278 -0.0390  0.3492
22919W        W39766   3.290   7.899   2.157  0.2885 -0.1225  0.1814
22920W        W39767   5.214  17.835  13.831  0.2679 -0.0958 -0.0291
22921W        W39768  11.298  13.553   2.603  0.1501 -0.0999  0.0077
22922W        W39769  10.696   7.688  13.278 -0.1240  0.2389  0.1584
22923W        W39770   1.152   5.809  14.439  0.2282 -0.2158 -0.1478
22924W        W39771   2.885  13.607  13.933  0.3362  0.1247  0.1176
22925W        W39772   2.053  16.118   2.994  0.0856 -0.0385 -0.1043
22926W        W39773   3.271   3.939   0.478  0.0425  0.1797 -0.0262
22927W        W39774  18.880   7.477   4.696 -0.2224 -0.3308  0.2078
22928W        W39775  18.739  17.251  10.265 -0.1847 -0.3138 -0.1066
22929W        W39776  14.015   3.387  12.777 -0.1991  0.1723 -0.3128
22930W        W39777   4.374   3.419  11.984  0.1913  0.1273  0.0522
22931W        W39778   9.798   6.995   1.256 -0.0717  0.1614 -0.0527
22932W        W39779   4.592   7.044   2.762  0.4420 -0.1587 -0.0411
22933W        W39780  14.561   1.456   1.503 -0.0826 -0.3767  0.1008
22934W        W39781   9.070   8.966   2.876 -0.1613 -0.0257  0.0381
22935W        W39782  16.715   5.845   1.357  0.1053  0.3325 -0.2694
22936W        W39783   8.929  15.782   5.435  0.3219  0.0109 -0.2646
22937W        W39784   4.068   8.980   0.669  0.2157  0.0678  0.2479
22938W        W39785   7.332   0.594   0.053 -0.1772  0.3544  0.1005
22939W        W39786   3.046   8.390   2.418 -0.3104  0.0883 -0.0600
22940W        W39787   9.765   6.695  11.968  0.0300 -0.1735 -0.1980
22941W        W39788  15.257   5.972   4.702  0.0212 -0.2077  0.0199
22942W        W39789   0.218  12.649  12.063 -0.0324  0.1385 -0.0721
22943W        W39790  18.836   9.541   0.524  0.0073 -0.1941 -0.0295
22944W        W39791  10.797  12.440   4.783  0.2156  0.0206 -0.1033
22945W        W39792  17.607   6.602   2.482 -0.1650 -0.1283 -0.1447
22946W        W39793   0.368  12.345   5.028  0.0775 -0.1422  0.1166
22947W        W39794  14.157   7.625   3.413  0.1250 -0.0399 -0.1039
22948W        W39795   0.105   7.116  11.526  0.1375 -0.0738  0.2096
22949W        W39796   5.777  10.577  12.910  0.2957 -0.2900  0.0879
22950W        W39797  10.822   7.562   4.387 -0.1040 -0.1395  0.1287
22951W        W39798  14.738   3.307   3.143 -0.3754  0.2064  0.2747
22952W        W39799   3.762  15.972  13.258 -0.1309 -0.0399  0.1590
22953W        W39800  12.638   8.979  14.565 -0.0817  0.3987 -0.3038
22954W        W39801  14.137   3.737  11.956  0.1344  0.2153  0.3417
22955W        W39802   6.307  14.982   3.496  0.2427 -0.3058  0.3180
22956W        W39803  15.573  17.530  12.511  0.0621  0.3730  0.5393
22957W        W39804   1.322  12.188  14.240 -0.0425  0.4239 -0.0359
22958W        W39805   3.551  14.752  11.166 -0.1848 -0.2435  0.2353
22959W        W39806   1.960   3.078  12.955  0.1646 -0.2265  0.1310
22960W        W39807   8.140   5.476   0.405 -0.0869 -0.0228  0.0359
22961W        W39808   8.114  18.764   2.676  0.1601  0.4246  0.3261
22962W        W39809   7.158  11.334   0.661  0.1211 -0.1675 -0.1238
22963W        W39810   1.626  13.335  12.359  0.1267 -0.1257  0.1941
22964W        W39811   9.243  17.486   2.068  0.4181  0.1266 -0.0957
22965W        W39812  15.683   8.310   3.377  0.1378  0.1398 -0.1685
22966W        W39813   0.393  11.965   2.940 -0.0003 -0.1741 -0.2107
22967W        W39814   0.946   4.992   4.018 -0.2191  0.0454 -0.0763
22968W        W39815  17.935   3.234   4.549  0.2872 -0.0303  0.2360
22969W        W39816   7.884  17.866   2.726 -0.0914  0.2861 -0.0800
22970W        W39817   0.898   0.498   4.631 -0.1182 -0.1178 -0.1464
22971W        W39818   5.847  17.594  10.012  0.2917  0.2357  0.3905
22972W        W39819  14.182  14.753   4.783  0.1876 -0.2156  0.1149
22973W        W39820  13.381   3.899  11.664 -0.4763 -0.2647  0.1737
22974W        W39821  15.459   7.380  14.056  0.0179 -0.0163 -0.1261
22975W        W39822   7.088   8.901  10.473  0.0337  0.0739 -0.1882
22976W        W39823   6.677  16.770  12.504  0.3063 -0.1212  0.0607
22977W        W39824   3.519   2.777  10.809  0.0103  0.0193 -0.1974
22978W        W39825   6.370   1.291  11.401  0.2596  0.2015 -0.0455
22979W        W39826   8.166   8.452  12.985  0.2765  0.1443  0.2671
22980W        W39827  11.843  13.874  11.173 -0.0600  0.0126 -0.0332
22981W        W39828   2.828  11.359   0.025 -0.1513 -0.0712 -0.1364
22982W        W39829   1.877  17.105  13.445  0.0625 -0.5057  0.3416
22983W        W39830  15.784   8.266   1.714  0.2867 -0.0203 -0.0327
22984W        W39831  13.979  18.575   4.865  0.0546  0.0209  0.0436
22985W        W39832   6.797   7.112  14.279  0.0551  0.0596 -0.1556
22986W        W39833  15.721  14.270   5.236 -0.2437  0.0140  0.1771
22987W        W39834  12.877  15.949  13.601  0.1569  0.3395 -0.5219
22988W        W39835   2.100   2.914   1.188 -0.3008 -0.2400  0.2373
22989W        W39836   9.324  12.667  10.730 -0.1384  0.2677  0.2203
22990W        W39837  15.786   4.889   2.660 -0.0446 -0.2753  0.3386
22991W        W39838   6.396   3.308   3.113 -0.0940 -0.3482  0.4701
22992W        W39839   1.659  11.890   4.351  0.1078  0.4364 -0.1351
22993W        W39840   1.750  18.905   2.792  0.0530 -0.2093  0.1565
22994W        W39841  13.567   4.679   3.672  0.2358  0.2993 -0.0365
22995W        W39842   5.597  18.684   2.339 -0.1139 -0.1704  0.1772
22996W        W39843  11.696  18.197   1.010 -0.1170  0.0660  0.0878
22997W        W39844  17.313  13.046   1.679 -0.0420 -0.0788  0.0979
22998W        W39845   0.424  14.717  11.729  0.1176 -0.1497  0.0842
22999W        W39846   4.381  12.048   3.695 -0.1457 -0.1955  0.1966
23000W        W39847   7.969  10.779  10.431  0.1307 -0.1388  0.0349
23001W        W39848   3.526   9.758   1.017 -0.1573 -0.0849  0.1609
23002W        W39849   8.379   7.219   0.602  0.0335  0.0859 -0.2530
23003W        W39850  18.893   9.951  13.212  0.0406 -0.4103  0.0952
23004W        W39851   4.534   1.144  12.383  0.0426 -0.1458  0.1975
23005W        W39852   4.163   5.880   2.998 -0.0404 -0.2642 -0.3095
23006W        W39853  10.562  18.007  10.957  0.0077  0.2664  0.2553
23007W        W39854   9.888  16.325  10.436  0.3859 -0.1157  0.3235
23008W        W39855   3.191   0.812   3.801  0.1996 -0.1572 -0.2615
23009W        W39856  11.274   3.150   2.199 -0.1414  0.1692  0.2135
23010W        W39857  19.019  10.265  10.645 -0.2204  0.3290  0.2199
23011W        W39858  10.051   0.710  13.567 -0.1042  0.4372 -0.1026
23012W        W39859  15.440  17.999   0.381  0.2279 -0.4372 -0.1970
23013W        W39860  10.286   4.241  12.607  0.1952 -0.1833 -0.1530
23014W        W39861  10.940   7.775  14.004 -0.1925 -0.0814 -0.3017
23015W        W39862   7.123   3.542   4.379  0.0944 -0.0549  0.2317
23016W        W39863  11.685  13.265  13.006  0.1823 -0.0761 -0.2171
23017W        W39864   5.819  17.154   2.390  0.1804  0.3373  0.0409
23018W        W39865   7.840  18.641  13.068  0.1845 -0.4306 -0.2129
23019W        W39866   3.851   4.479  12.181  0.2693 -0.1911 -0.1203
23020W        W39867  15.896   3.431   2.239  0.3070  0.1371 -0.0424
23021W        W39868  17.794   7.950   0.896 -0.0712  0.0577  0.0482
23022W        W39869  14.045  11.703  11.306  0.1317 -0.1772  0.0724
23023W        W39870   9.270  17.980   0.095  0.2400  0.2083 -0.5261
23024W        W39871   6.335   1.365  11.945 -0.0040 -0.4101 -0.0243
23025W        W39872   3.434  15.128   4.339 -0.2447  0.0313  0.2885
23026W        W39873   1.854  18.049   2.541  0.1075  0.0932  0.1217
23027W        W39874  11.253  17.258   0.160 -0.1126 -0.1557  0.0724
23028W        W39875  18.107   4.128   1.527 -0.1184  0.0525  0.1425
23029W        W39876  15.380  18.695   1.166  0.1769  0.1102  0.1164
23030W        W39877  15.779  12.355   4.471  0.1536  0.0544  0.0275
23031W        W39878   2.983  19.519  13.810 -0.2025  0.0469  0.0509
23032W        W39879  17.573  10.399  10.496  0.1378 -0.2841  0.1023
23033W        W39880   6.792  17.148   2.398  0.1732 -0.3321 -0.1224
23034W        W39881   7.706  13.336   4.536 -0.0340 -0.2511 -0.3705
23035W        W39882  15.077  16.263   2.799 -0.1219  0.1507  0.0342
23036W        W39883  12.394  13.940  13.504 -0.0100 -0.1747 -0.0023
23037W        W39884  10.730  18.920   2.621 -0.2266 -0.1013  0.0507
23038W        W39885   2.011   2.996   0.217  0.2644 -0.1541  0.2703
23039W        W39886   1.460  15.692  13.936  0.1772 -0.0244  0.2125
23040W        W39887   8.917  16.635   3.450  0.1317 -0.0036  0.1571
23041W        W39888   6.904  15.003  12.932 -0.1176  0.1111 -0.0670
23042W        W39889  10.195   8.630  13.596  0.0344  0.0902 -0.0965
23043W        W39890   8.785   8.532   1.105  0.2962 -0.3881 -0.1295
23044W        W39891  12.320  16.545   2.494  0.0845 -0.0947  0.2774
23045W        W39892   7.990   8.834   3.617 -0.0446 -0.0353 -0.2278
23046W        W39893   0.086   9.786  11.073  0.2291  0.3071 -0.1290
23047W        W39894  14.684  10.512   4.779  0.0250 -0.1089  0.0796
23048W        W39895  10.598  15.827  10.198  0.2409  0.1019 -0.1479
23049W        W39896  19.297  13.683   3.099 -0.1527  0.0383 -0.0427
23050W        W39897   0.524   7.651   3.420 -0.1231  0.2361  0.2462
23051W        W39898  19.431   5.440   1.019 -0.0536 -0.3049 -0.1460
23052W        W39899   6.423   7.799   1.303 -0.0928 -0.1158  0.0531
23053W        W39900   2.109  10.280   2.327  0.0096 -0.1822 -0.1273
23054W        W39901  19.151   5.200  13.959 -0.0842 -0.2351 -0.0618
23055W        W39902  19.422   7.985   1.081 -0.0952  0.0056  0.1085
23056W        W39903  10.667   9.476  13.223  0.1311  0.0298 -0.2519
23057W        W39904   0.656   3.425  10.121  0.3926  0.1760 -0.0068
23058W        W39905  16.420   0.572   1.430  0.0945 -0.1187  0.0315
23059W        W39906  10.572  12.888   3.400 -0.1113  0.0805 -0.0223
23060W        W39907   4.597  15.528   1.161  0.0364  0.3079  0.0007
23061W        W39908  17.462  16.847   2.128 -0.1821  0.2063 -0.2296
23062W        W39909  12.418   5.923   9.372 -0.0115  0.3184 -0.2702
23063W        W39910  16.514  14.855  12.030 -0.3417 -0.3031 -0.0816
23064W        W39911   3.717   3.507   3.511  0.0506 -0.0477 -0.0854
23065W        W39912   3.980  10.038  10.506 -0.0726 -0.0562  0.1422
23066W        W39913   5.917   3.528  11.340  0.0935  0.0875  0.3404
23067W        W39914   8.622  15.664  10.199  0.1090 -0.1288  0.1525
23068W        W39915   9.128  17.318  10.999 -0.1080 -0.3063 -0.0848
23069W        W39916   3.122  13.323   3.879  0.1233 -0.0229 -0.1608
23070W        W39917  12.696   3.580  12.682  0.1246 -0.0628 -0.0712
23071W        W39918  10.925   8.531   9.604 -0.1001  0.1000  0.1479
23072W        W39919  18.091  10.395  10.668  0.1211  0.0856  0.0613
23073W        W39920  17.895  19.284   0.047  0.2064  0.0862 -0.0329
23074W        W39921  15.895   2.544  12.162 -0.1161  0.0112  0.0668
23075W        W39922  12.134   9.712  13.345 -0.0183  0.1156 -0.1648
23076W        W39923   2.174   6.396  12.218  0.6047 -0.0068  0.1077
23077W        W39924   2.744   7.957  12.813  0.0070 -0.0801 -0.3000
23078W        W39925   3.849   1.522   4.161 -0.0277  0.0688 -0.0522
23079W        W39926  11.940   0.076   0.032  0.0484  0.2586  0.2999
23080W        W39927   5.245  15.553  14.441  0.1277  0.1663 -0.2830
23081W        W39928   1.551   5.178  10.571  0.1126  0.4665 -0.3018
23082W        W39929  15.946   6.657  13.661 -0.1357  0.0791  0.1567
23083W        W39930   6.313  12.847   2.224  0.0188  0.3612 -0.3104
23084W        W39931  12.594   4.321   4.732 -0.0092  0.0415  0.2547
23085W        W39932   8.722   8.468  12.839  0.2920 -0.1986  0.1511
23086W        W39933  12.402   0.139   1.537  0.0099  0.1966  0.1464
23087W        W39934   3.487   1.513   4.538  0.1471 -0.4599  0.1684
23088W        W39935  10.480  15.069   3.323  0.0077  0.1132  0.1634
23089W        W39936   2.288  11.470  10.170 -0.1977 -0.0169  0.1760
23090W        W39937  12.266   3.581   9.764 -0.2198  0.2309 -0.1959
23091W        W39938   6.320  10.138  11.580 -0.3180 -0.3046  0.3970
23092W        W39939  13.460  19.009   2.764 -0.0698  0.1617  0.1629
23093W        W39940  16.148  18.959  14.143  0.0047 -0.0993  0.2318
23094W        W39941  15.046   4.988   2.050 -0.0055  0.4268  0.0485
23095W        W39942   6.905   2.570   1.774 -0.2826 -0.0084  0.4247
23096W        W39943  16.136   4.074  13.795 -0.3869 -0.2348 -0.0425
23097W        W39944  11.555   8.142  11.438  0.2790 -0.2369 -0.0199
23098W        W39945  12.396   9.480   3.319  0.1722 -0.0448  0.4729
23099W        W39946   8.679  14.841  13.894 -0.0367  0.2406  0.3041
23100W        W39947   6.058   1.465  13.451  0.1235  0.2623  0.1698
23101W        W39948   2.050   1.268  13.257  0.0938 -0.1995 -0.0668
23102W        W39949   8.073  18.765  14.329 -0.2215  0.0542  0.0664
23103W        W39950   7.724  18.400  12.605  0.0048  0.1450  0.1783
23104W        W39951  15.027  13.020   2.993  0.2453  0.1897 -0.3065
23105W        W39952   1.187   5.867   3.283  0.1734  0.2455  0.1402
23106W        W39953  16.642   8.672  13.105  0.1911 -0.0448  0.1388
23107W        W39954  14.563   8.177  11.456  0.2790  0.1924 -0.0650
23108W        W39955   7.485   1.795  10.696  0.0057 -0.1065 -0.0927
23109W        W39956   3.877  17.223   1.239 -0.1559  0.0298 -0.0231
23110W        W39957  15.219  16.043   3.699 -0.0873  0.0230  0.1884
23111W        W39958  11.000  13.521   0.299 -0.0254 -0.1496 -0.0828
23112W        W39959   5.326  11.364   1.927 -0.1803 -0.1709 -0.0473
23113W        W39960   7.243  15.663   3.506  0.2275 -0.2293 -0.2979
23114W        W39961   4.184   5.770   0.335  0.2269  0.0276 -0.2565
23115W        W39962   5.085   6.993   1.061 -0.0186  0.0188  0.0678
23116W        W39963  10.717  14.545   1.894  0.0210 -0.0866 -0.1017
23117W        W39964  12.605   5.152   0.812  0.4620  0.1252 -0.0007
23118W        W39965   6.350   8.417   1.349 -0.1310 -0.1311 -0.1408
23119W        W39966  18.179   5.699  12.683  0.0169  0.3706  0.0367
23120W        W39967   7.150   7.016  11.217 -0.1477 -0.0098  0.3276
23121W        W39968  17.161  17.702   2.399 -0.0953 -0.0419  0.0890
23122W        W39969   5.288  11.412  13.273 -0.2738 -0.3396  0.0652
23123W        W39970   7.151  10.875  12.302  0.0155  0.0481 -0.1311
23124W        W39971   4.744  12.054  12.238  0.2826 -0.0928  0.2638
23125W        W39972   5.832  10.071  10.990 -0.0832 -0.0737 -0.1551
23126W        W39973  13.788  12.118  10.104  0.2196 -0.1973 -0.0080
23127W        W39974  19.319  13.411  11.753 -0.3459 -0.0820  0.2175
23128W        W39975  18.474   2.841  11.097  0.0415 -0.0867 -0.1115
23129W        W39976  13.015  15.280  11.265  0.0511  0.1090 -0.0403
23130W        W39977  12.839   6.622  11.929  0.0784  0.4681  0.0266
23131W        W39978  10.986  15.717  11.209 -0.0861  0.1940  0.2209
23132W        W39979  17.433   7.083  11.609  0.1238 -0.1176 -0.3159
23133W        W39980  17.300   0.843  12.893 -0.0670 -0.4119 -0.0924
23134W        W39981  15.346  13.495   5.220  0.3551  0.1031 -0.1894
23135W        W39982  13.833  10.799   4.657  0.0982  0.0846 -0.1236
23136W        W39983  12.074  12.752   0.779  0.0810  0.4045 -0.3596
23137W        W39984   2.561  18.696   2.336  0.1793 -0.0880 -0.0723
23138W        W39985   6.317  17.786  12.310  0.2018  0.1789 -0.2237
23139W        W39986   5.291   9.273  14.453 -0.1598 -0.0533 -0.3767
23140W        W39987  12.917   6.882  13.344  0.0684 -0.0898  0.1790
23141W        W39988  19.323   8.655   1.207 -0.0206 -0.0238 -0.1149
23142W        W39989  13.123   9.494  11.708  0.2481 -0.2111  0.1641
23143W        W39990   9.105  19.472  11.038 -0.0861 -0.3756  0.1584
23144W        W39991   1.120   0.231   2.196 -0.1737  0.0984  0.0532
23145W        W39992  18.085   5.711   0.918  0.3281  0.0752  0.0054
23146W        W39993   6.177   4.974  11.223 -0.0214  0.0972  0.0984
23147W        W39994  16.159  13.404  11.002 -0.3520 -0.0531  0.0655
23148W        W39995   5.906   5.291  13.115  0.1395  0.1837 -0.1071
23149W        W39996  12.232  10.902  14.250  0.1476  0.2414  0.0340
23150W        W39997  15.425   8.127  12.220 -0.1526 -0.1322  0.0276
23151W        W39998  17.111   9.768  14.053  0.2174 -0.1920  0.3277
23152W        W39999  19.095   8.481  12.967 -0.1062  0.3543 -0.0114
23153W        W40000  16.512  11.390   0.963 -0.0929  0.2607  0.2982
23154W        W40001   8.188   4.339   0.401 -0.1409 -0.0870 -0.1127
23155W        W40002   4.421   7.114  14.595 -0.1250 -0.1266 -0.2053
23156W        W40003  15.317   2.158   4.123  0.2167 -0.0280  0.1144
23157W        W40004   9.542   8.816   1.639 -0.4397 -0.1645  0.0663
23158W        W40005  17.560  16.826   4.171 -0.0610  0.1181  0.0374
23159W        W40006  11.783   7.338   2.900 -0.0176  0.0574  0.0271
23160W        W40007  16.001   3.045  12.246  0.1538  0.0815  0.2401
23161W        W40008  11.872  15.472   1.998  0.1463 -0.0840 -0.0005
23162W        W40009   1.012   9.912  11.562 -0.2210  0.0739 -0.0031
23163W        W40010   9.075  15.392   5.743  0.1935  0.0353  0.1972
23164W        W40011  14.435   9.630   4.308  0.2981 -0.0632  0.1749
23165W        W40012   9.757   9.677   1.988 -0.1095 -0.0303  0.2537
23166W        W40013   8.162  12.759   0.321 -0.0463 -0.2770 -0.2095
23167W        W40014  13.191  14.074  10.709  0.0822 -0.1560  0.2111
23168W        W40015  14.898  10.106   1.030 -0.1440 -0.0102 -0.0979
23169W        W40016  18.342   5.686  13.684  0.1255  0.3360 -0.1007
23170W        W40017   4.795   0.851  11.647  0.1109 -0.1995  0.1824
23171W        W40018  16.647   6.624  13.394 -0.4483  0.1417  0.1489
23172W        W40019   4.765   8.979  12.153  0.2875  0.0716 -0.0825
23173W        W40020  11.458   1.286  10.282 -0.1912 -0.0107 -0.0518
23174W        W40021   7.181   8.542   5.071  0.0063  0.0403 -0.2212
23175W        W40022  15.247   1.635   0.177 -0.0846 -0.0166 -0.0123
23176W        W40023  12.227  11.135   2.385  0.2332 -0.0597  0.0166
23177W        W40024  11.463   6.559   0.364 -0.3421 -0.0536  0.0663
23178W        W40025   3.631  11.317   9.772  0.1952 -0.1371  0.0498
23179W        W40026   0.017  18.172  14.255 -0.0732 -0.1617  0.3261
23180W        W40027   4.604   4.495  10.694  0.0337 -0.1590 -0.0853
23181W        W40028   9.528  10.497   2.483  0.0665 -0.1753 -0.4319
23182W        W40029  11.452   6.199   1.816 -0.2667 -0.1381  0.1630
23183W        W40030  16.213  10.332   2.536  0.0006  0.1438 -0.0548
23184W        W40031  12.167  11.616   3.193 -0.1046  0.0465 -0.0064
23185W        W40032  15.837  16.330   9.110 -0.1801 -0.3165 -0.1830
23186W        W40033  11.068   7.049   2.571 -0.2733 -0.0078  0.0511
23187W        W40034  10.611   5.970   4.622  0.2248 -0.2676  0.1346
23188W        W40035   4.250  14.594   0.738  0.0400 -0.2136  0.0474
23189W        W40036   0.999   9.014   0.221  0.1028 -0.1779  0.1506
23190W        W40037  10.567   0.991  14.129 -0.1783 -0.1915 -0.1032
23191W        W40038   7.666   1.017   9.344 -0.0741 -0.1567 -0.1111
23192W        W40039  18.701   7.767   3.727 -0.2167 -0.2145  0.0612
23193W        W40040   2.977   7.606   4.840 -0.0030  0.1098  0.2661
23194W        W40041   8.181   6.045  11.760 -0.0874 -0.0686  0.2726
23195W        W40042  18.421  16.823   4.618  0.0680 -0.0673 -0.0953
23196W        W40043   1.181  17.352   0.628 -0.0325  0.0217  0.1054
23197W        W40044   7.940  11.585   0.982 -0.1511  0.3919  0.1166
23198W        W40045   2.830  12.200   2.406  0.2431  0.1828 -0.1449
23199W        W40046  10.869  17.648  11.137 -0.0499 -0.0706 -0.0619
23200W        W40047  17.112   0.510  10.099 -0.1504  0.0032 -0.2378
23201W        W40048  10.326  11.192   0.125  0.0602 -0.1010 -0.0589
23202W        W40049   5.555  16.984  14.107 -0.1091 -0.1229  0.1240
23203W        W40050  16.468  17.553  13.823  0.4514  0.0685 -0.0477
23204W        W40051   5.685  18.761  13.698  0.2385 -0.0661 -0.2668
23205W        W40052   2.187   2.678   4.740  0.2103 -0.3417  0.1112
23206W        W40053  19.598  18.842   3.639  0.0555 -0.1036  0.2201
23207W        W40054  13.873  12.746   3.370  0.1173  0.3028  0.0638
23208W        W40055   6.276  14.005   5.002 -0.1284  0.0557  0.0553
23209W        W40056  14.352  15.778   0.672 -0.0086 -0.0706  0.0056
23210W        W40057   1.990  10.955   4.630  0.1899  0.1614 -0.1107
23211W        W40058   2.019   0.917  12.808  0.0100  0.1913  0.0373
23212W        W40059  11.996  11.562   2.139 -0.2378  0.2732 -0.2528
23213W        W40060  15.982   4.625   3.460 -0.0712 -0.2022 -0.1312
23214W        W40061   3.748   6.702  14.572  0.0032  0.1039 -0.1347
23215W        W40062  15.709  10.401   5.491  0.0971 -0.1956 -0.0799
23216W        W40063   0.075  14.122   1.991  0.1590  0.1135 -0.1426
23217W        W40064  16.116  12.522  11.947  0.1334 -0.1386  0.3433
23218W        W40065  17.511   4.878  14.517 -0.0619  0.0133  0.1673
23219W        W40066   9.248   7.716   1.151  0.0337  0.0760 -0.1268
23220W        W40067  17.326   4.010  11.135  0.3175  0.0002  0.1292
23221W        W40068   2.723  13.926   0.331 -0.0895  0.0680 -0.0430
23222W        W40069   5.740   7.501  14.095  0.0751 -0.2326 -0.1107
23223W        W40070  15.472  13.020   5.177  0.2053 -0.1408  0.0306
23224W        W40071   9.121  10.899  10.904 -0.0160  0.1104  0.0518
23225W        W40072   6.338   9.451  11.476 -0.1079  0.1172 -0.2526
23226W        W40073  10.612  15.197  13.645  0.0995 -0.0567  0.3749
23227W        W40074  17.302  10.435   4.438  0.0950  0.2155  0.2399
23228W        W40075  10.914   8.008  13.588 -0.0635 -0.0023 -0.2383
23229W        W40076   8.901  11.959  14.009  0.0578  0.2602 -0.1908
23230W        W40077   2.297   6.202  14.600 -0.0061  0.1491  0.2284
23231W        W40078   8.026   4.499   2.525 -0.0117 -0.0723  0.0086
23232W        W40079  16.240   1.316  12.784 -0.0044 -0.2796  0.2743
23233W        W40080   7.064  18.840   0.359  0.0665  0.0168 -0.0757
23234W        W40081   9.197   4.497   0.729 -0.3534 -0.0615  0.0526
23235W        W40082  19.237  13.762  13.038  0.1215  0.0895  0.0948
23236W        W40083  14.614   6.892   3.051 -0.1146  0.3354  0.0008
23237W        W40084  17.759   3.901  13.989 -0.4809  0.1453  0.0740
23238W        W40085  18.119   7.122   3.935  0.0180  0.0209  0.0962
23239W        W40086  18.887  17.334  11.593  0.3823  0.3695  0.2331
23240W        W40087  11.665   5.004   4.036  0.2600  0.0608  0.2010
23241W        W40088   1.888  19.334   3.640  0.0550  0.2357 -0.2129
23242W        W40089   7.371  15.008   0.388  0.2362 -0.0266 -0.1557
23243W        W40090  17.727   0.519  13.357  0.0516 -0.0036  0.3779
23244W        W40091  11.297  16.989  14.336 -0.0326  0.3619 -0.0752
23245W        W40092   8.962  16.332  11.597 -0.0342  0.1600 -0.0502
23246W        W40093   3.305  13.418   1.033 -0.1106 -0.0780  0.0787
23247W        W40094   2.965  13.264  10.791 -0.2934  0.0294  0.0861
23248W        W40095   2.777   1.423   0.560 -0.0809  0.1240 -0.2034
23249W        W40096  18.029  18.087  12.117  0.1416  0.2756 -0.1340
23250W        W40097   4.857  11.404   0.622  0.1524 -0.3498  0.0273
23251W        W40098  11.477   0.226   1.439 -0.0963  0.0643 -0.0888
23252W        W40099   8.608  16.603  12.163 -0.2327 -0.0882 -0.2380
23253W        W40100   5.595  15.831  11.559 -0.1563 -0.0605  0.0918
23254W        W40101   5.967  13.127  11.483  0.2804  0.0033 -0.0249
23255W        W40102   3.898  12.252  12.082 -0.1865  0.1545  0.0387
23256W        W40103   1.599  10.577   5.623  0.1670 -0.0362 -0.1595
23257W        W40104   6.041  18.711   1.472 -0.0475 -0.1180  0.2792
23258W        W40105  18.067  14.572   3.218 -0.2716 -0.2467  0.1409
23259W        W40106  10.296  15.053   2.781 -0.1228  0.2785 -0.0099
23260W        W40107   5.705  16.003  10.380 -0.2313  0.2285  0.1228
23261W        W40108   3.006   2.845   0.052 -0.1102 -0.2024 -0.0560
23262W        W40109   4.834  18.092   0.507 -0.2723 -0.1825  0.0436
23263W        W40110   1.255  19.463   0.499 -0.1876  0.3048  0.1100
23264W        W40111  18.087   0.762   1.986  0.3449 -0.0948  0.2409
23265W        W40112  14.033   5.835   3.116 -0.0547  0.1233  0.0839
23266W        W40113  14.671  17.728   3.785  0.2137 -0.1979  0.2662
23267W        W40114  18.086  17.838   3.824  0.1959 -0.0165 -0.1856
23268W        W40115   7.796   5.438  12.788 -0.1741 -0.0441  0.1126
23269W        W40116   6.471  19.544   0.438  0.0751  0.0242 -0.0439
23270W        W40117  14.610  13.184  10.587  0.2250  0.1012  0.0721
23271W        W40118  12.201   6.415   3.961  0.0333 -0.0399  0.1832
23272W        W40119  16.413  11.762   2.253 -0.1078  0.1857 -0.0580
23273W        W40120  12.427   6.510  13.725 -0.1810  0.0285 -0.1719
23274W        W40121  10.008   5.429  13.708  0.2177  0.2628 -0.2235
23275W        W40122   0.393  12.267   4.553 -0.1025  0.1139  0.2374
23276W        W40123  15.466  13.636   4.269 -0.2183 -0.1546 -0.3017
23277W        W40124   6.081  19.116  10.854  0.1502  0.0179 -0.1147
23278W        W40125  10.650  17.717   1.852 -0.1924  0.1584  0.1422
23279W        W40126   8.949  11.386   1.789 -0.0818  0.0768  0.0685
23280W        W40127  12.555   0.262   0.759 -0.0850  0.2435 -0.0601
23281W        W40128  14.344  15.505   3.140 -0.1974 -0.1981 -0.1503
23282W        W40129   4.837   8.222  13.004  0.5366 -0.2018 -0.0459
23283W        W40130   1.273   6.824   1.248  0.0684  0.3328  0.2393
23284W        W40131   7.488   1.769  11.269  0.0048 -0.1192  0.3187
23285W        W40132   6.387   4.753   1.184  0.3716 -0.0043 -0.1538
23286W        W40133  13.105  11.231   0.841  0.0249 -0.2815  0.0625
23287W        W40134  14.004  11.249   0.259  0.5420  0.1325 -0.1732
23288W        W40135  19.107   2.343  12.378  0.0241  0.1800 -0.0478
23289W        W40136   6.723  13.616   9.623 -0.0022  0.1594 -0.1358
23290W        W40137   8.846  13.984  12.228  0.3408  0.0844  0.0088
23291W        W40138  13.577   7.190  11.697  0.2447 -0.0079  0.4508
23292W        W40139  14.210   0.441   0.894 -0.0356  0.2962 -0.3436
23293W        W40140   2.384   4.394   4.226 -0.2982  0.3647 -0.1124
23294W        W40141  14.701   8.890   0.475 -0.0275  0.0953  0.1248
23295W        W40142  17.574  17.388   2.271  0.1030  0.0177  0.0570
23296W        W40143   4.362   6.930   2.359  0.0149  0.1429 -0.2209
23297W        W40144  12.048  10.495   4.207  0.1502 -0.2084 -0.0857
23298W        W40145   2.754   3.486  13.835  0.0149 -0.2226  0.1867
23299W        W40146  15.997   0.288   1.269 -0.0531 -0.1634  0.1570
23300W        W40147   2.681  14.074   1.623  0.0339 -0.0244  0.1040
23301W        W40148  10.278   6.322  10.281  0.0733  0.2155 -0.0080
23302W        W40149  18.549   7.942   1.405  0.0342 -0.1011  0.0395
23303W        W40150  16.921   0.219   1.343 -0.2116 -0.1734  0.0699
23304W        W40151   7.986   1.397   2.905 -0.2215 -0.2885 -0.1678
23305W        W40152  11.305   6.105   3.366  0.1672 -0.0742 -0.1961
23306W        W40153   7.629  14.973   0.817 -0.0862 -0.1324 -0.0764
23307W        W40154  15.390   6.037  12.561 -0.0238 -0.0414 -0.0270
23308W        W40155  10.307   5.104   3.692 -0.1769  0.1605 -0.1474
23309W        W40156   9.241  11.702   4.882  0.0009 -0.1986  0.1554
23310W        W40157  11.411   6.050   1.167  0.0990 -0.1558 -0.0044
23311W        W40158  16.835  15.264  10.104 -0.1322  0.0601  0.1116
23312W        W40159   2.312  16.372   4.614  0.4816  0.1031 -0.2479
23313W        W40160   2.563   1.488   4.128 -0.1971 -0.1320 -0.0284
23314W        W40161  16.387   9.913   5.052 -0.4481 -0.0155  0.2798
23315W        W40162  18.082   6.387   1.553 -0.3653  0.0071  0.3733
23316W        W40163   1.351   1.642   0.545 -0.0044  0.1512  0.2694
23317W        W40164   0.145  10.169   4.661  0.1272 -0.2183 -0.1264
23318W        W40165   3.584  10.706   0.666  0.2844  0.0643  0.0833
23319W        W40166  19.309   5.259   4.655 -0.1240  0.2159 -0.0373
23320W        W40167  15.769   2.390  13.788 -0.2253 -0.2975  0.3698
23321W        W40168   6.107   0.989  12.139 -0.2677 -0.1639 -0.1104
23322W        W40169  13.194  10.924   0.422 -0.2760 -0.0467  0.2804
23323W        W40170   3.211  13.190  13.418 -0.0625 -0.2296 -0.2477
23324W        W40171  18.485  14.709  13.406  0.0191 -0.0427  0.3184
23325W        W40172  13.592  11.956   3.376 -0.2487  0.0797  0.2553
23326W        W40173   5.486   2.725  12.135 -0.2528 -0.1670  0.2668
23327W        W40174   7.545  18.861  14.365 -0.1297  0.2205 -0.1828
23328W        W40175  18.852   3.741  10.925 -0.2764 -0.1001  0.2659
23329W        W40176   6.160   3.861   1.856  0.2300 -0.1470 -0.0442
23330W        W40177   3.337  12.859   1.609  0.0757 -0.0247  0.1686
23331W        W40178   5.416   8.333   0.038 -0.1089 -0.1642  0.3162
23332W        W40179  19.488   8.858   4.251  0.2577 -0.2289 -0.1582
23333W        W40180  12.577   8.234  12.517 -0.0914 -0.0303 -0.2025
23334W        W40181   8.876  11.542   5.171  0.1005  0.3124 -0.2437
23335W        W40182   2.044  15.899  10.193  0.1357  0.0492 -0.2027
23336W        W40183  13.001   8.132   0.118  0.2650 -0.3924 -0.1290
23337W        W40184   7.036  19.413   2.153  0.1919  0.2032  0.0076
23338W        W40185   4.114  13.583   4.704 -0.3173 -0.1032 -0.0025
23339W        W40186   0.500   6.710   1.482  0.2424 -0.0392  0.0773
23340W        W40187  10.419   1.486  14.056  0.1831 -0.0958  0.1975
23341W        W40188   9.812   7.939  11.853  0.4284 -0.0676  0.0732
23342W        W40189   9.257   9.843  12.107  0.1139 -0.1323 -0.3960
23343W        W40190  19.367  11.159   2.395 -0.2482  0.0012 -0.1286
23344W        W40191  14.957   2.845   4.675  0.0392  0.1695  0.4072
23345W        W40192  11.290  15.962  11.609 -0.0775 -0.2251  0.3293
23346W        W40193   0.891   1.552   0.164  0.1481  0.0913 -0.0845
23347W        W40194  10.168   9.970  11.998 -0.1569 -0.0317  0.3158
23348W        W40195  18.197  16.493   4.940 -0.1709  0.0319  0.1650
23349W        W40196   6.815   5.462   3.462  0.0194  0.1930  0.0266
23350W        W40197   7.563   1.920   3.787  0.0029  0.1409 -0.1850
23351W        W40198   9.858  14.318   1.787 -0.1246  0.2053 -0.0439
23352W        W40199  11.815  11.137  14.471  0.2093 -0.1902  0.1185
23353W        W40200   8.445   1.250  12.151  0.2631 -0.1270  0.2426
23354W        W40201   7.647   8.397  13.079 -0.4021  0.0293 -0.1710
23355W        W40202   6.243  14.367   5.321 -0.0641  0.1077  0.6906
23356W        W40203  15.921   1.083  14.595 -0.0960  0.1921 -0.2720
23357W        W40204  12.172   1.336  11.631  0.0287  0.1135 -0.0043
23358W        W40205  13.900   6.694  13.809  0.0620 -0.0661  0.0716
23359W        W40206   0.086   1.154   2.657 -0.1552  0.0125 -0.3771
23360W        W40207   2.218  14.768   1.356 -0.0024 -0.0944  0.1252
23361W        W40208   7.258  11.692  13.395 -0.1275 -0.1012  0.1180
23362W        W40209  13.574  12.564   2.295 -0.2706 -0.3325 -0.1781
23363W        W40210   5.734  18.158   2.599 -0.1845 -0.0675 -0.1078
23364W        W40211   8.752   0.652   2.345 -0.0448  0.4252  0.0233
23365W        W40212   8.459  19.382  10.036  0.3492  0.1177 -0.1978
23366W        W40213  12.037   5.852  10.699  0.1650 -0.0370  0.0816
23367W        W40214  14.624   9.799   1.386  0.4107  0.3495  0.1060
23368W        W40215  10.984   3.313   5.460 -0.0331  0.0807  0.1385
23369W        W40216   3.308  11.835   4.524 -0.1311 -0.1753  0.1102
23370W        W40217   6.823   8.965   1.380  0.2911  0.0456 -0.1420
23371W        W40218   5.517   8.829  13.559  0.3991  0.3414 -0.2164
23372W        W40219  14.634   0.994  11.729 -0.1822  0.1074  0.0602
23373W        W40220  16.828  10.077   4.696 -0.1310 -0.1669  0.1105
23374W        W40221  15.807  12.485  14.297  0.2772  0.2044  0.0446
23375W        W40222   6.697  18.037   2.530  0.0136  0.0063 -0.0330
23376W        W40223  16.439   8.883  11.437 -0.0598  0.3799  0.0356
23377W        W40224   0.434   1.934  14.074 -0.1265 -0.3002 -0.0806
23378W        W40225  11.619   7.026  10.571 -0.1081 -0.0981 -0.0974
23379W        W40226   7.791   4.892  11.532  0.0561 -0.2437  0.1191
23380W        W40227   4.824   9.111   4.018  0.1753 -0.1189 -0.0188
23381W        W40228  10.285   9.668   2.753  0.0276 -0.1491 -0.1077
23382W        W40229   1.647  12.454   4.411 -0.0565 -0.0198  0.1941
23383W        W40230  14.411  18.970   0.081  0.1425 -0.2710  0.1489
23384W        W40231   2.723   8.360   5.456 -0.2387 -0.2805  0.3153
23385W        W40232   8.544  12.978   3.966 -0.0400  0.0468 -0.1252
23386W        W40233   9.314   6.022  11.805  0.0796  0.0920 -0.0931
23387W        W40234  18.467  15.619  12.540 -0.1659  0.1220 -0.1278
23388W        W40235   1.656  14.238  12.302  0.0848 -0.4575 -0.0441
23389W        W40236   0.608   3.683  11.892 -0.1870 -0.3743 -0.1324
23390W        W40237   8.338   6.657   4.491  0.2906 -0.2507  0.0965
23391W        W40238   4.401  15.359  12.394 -0.0913 -0.1040 -0.2900
23392W        W40239   3.519   7.628   0.640 -0.1370 -0.0057 -0.1736
23393W        W40240   3.456  12.346  12.370 -0.5072 -0.0938  0.4276
23394W        W40241  11.564   5.025  12.396  0.1000 -0.1958 -0.4193
23395W        W40242  16.206   4.044   1.604  0.0277 -0.3923  0.2122
23396W        W40243   0.987  12.942   4.797  0.0427  0.3414  0.1877
23397W        W40244   8.843  11.843   1.753 -0.4006 -0.2364 -0.0645
23398W        W40245   9.818  14.940   0.506 -0.1568 -0.3303 -0.2752
23399W        W40246   5.833  14.738   5.348  0.0601 -0.1330 -0.2559
23400W        W40247  13.217   9.144   5.205  0.2027  0.3863 -0.0327
23401W        W40248  16.942  16.994  13.194  0.4537  0.2573  0.2994
23402W        W40249  15.770   9.890   3.249  0.0491 -0.1595 -0.1581
23403W        W40250  14.875   3.414  12.552 -0.1920 -0.3503 -0.2183
23404W        W40251  14.305  15.219  13.011 -0.2831  0.0734 -0.0185
23405W        W40252  13.357  15.418   1.559 -0.0422 -0.1151 -0.0584
23406W        W40253  18.515  18.536  11.409 -0.1077 -0.2353  0.3103
23407W        W40254   1.391  14.236   1.685  0.2897 -0.0918  0.1180
23408W        W40255  11.941   1.400  10.014 -0.1782  0.0828 -0.0330
23409W        W40256   1.900   6.702  13.955 -0.0018  0.0426  0.0838
23410W        W40257  18.472   4.168  13.234  0.1560  0.1586  0.0123
23411W        W40258   5.855  13.377   2.218  0.1360  0.0772  0.0562
23412W        W40259  14.851  16.421   3.948  0.1762  0.2273  0.0680
23413W        W40260  14.013   6.323   4.179  0.3385  0.1447  0.0960
23414W        W40261  17.484  13.161  12.885 -0.0307  0.1494  0.3260
23415W        W40262  11.006   5.482  13.836 -0.0605  0.2122  0.0404
23416W        W40263   4.126   4.826  13.877  0.0944 -0.1491 -0.1512
23417W        W40264   2.171   8.313  12.680  0.2387 -0.0607  0.0392
23418W        W40265  11.167  19.094  11.204 -0.0711  0.1243 -0.0706
23419W        W40266   6.641  14.702   0.925 -0.0758 -0.1100  0.2589
23420W        W40267  11.806  11.457   0.471 -0.0222  0.3202  0.1127
23421W        W40268  10.999  17.883  11.677  0.0536  0.2863 -0.3522
23422W        W40269  15.459  13.343   2.986  0.0285 -0.1836 -0.0368
23423W        W40270   2.888  17.957  10.272 -0.2102 -0.1309 -0.2406
23424W        W40271   4.121  13.560  10.330 -0.1832  0.0828  0.1643
23425W        W40272   3.184   2.029   1.083 -0.0325 -0.3389 -0.0787
23426W        W40273   0.429   9.687   4.079  0.3737 -0.0978 -0.1214
23427W        W40274  13.276  10.042   4.033  0.3563 -0.3860  0.0926
23428W        W40275  12.093   0.415  11.160 -0.0037 -0.1858  0.0049
23429W        W40276  13.820   9.606   3.255 -0.1575 -0.1022  0.1632
23430W        W40277  17.029  15.153  13.251  0.1624 -0.1895 -0.0598
23431W        W40278  18.581   2.683   2.463  0.2522 -0.0847 -0.0120
23432W        W40279   3.582   1.734   3.212 -0.0896  0.3111  0.1844
23433W        W40280   1.280   1.428   9.136 -0.2403 -0.1284 -0.0846
23434W        W40281   3.843  13.598   3.434  0.0993 -0.0114  0.0344
23435W        W40282   3.628  17.085  10.616 -0.3020 -0.0911  0.0167
23436W        W40283   2.392   5.040   3.594 -0.2091  0.2403  0.2544
23437W        W40284  14.760  12.543  10.464 -0.0436 -0.0386 -0.1181
23438W        W40285   5.966   8.098   1.219 -0.0557  0.0113  0.1963
23439W        W40286   1.833  11.676  13.479 -0.1813 -0.2255 -0.2895
23440W        W40287  13.384   7.231   3.666  0.5375 -0.0815 -0.0336
23441W        W40288  18.372   9.135   0.399 -0.0462 -0.0080 -0.0480
23442W        W40289   8.416  18.666   4.409  0.0043 -0.1873  0.0985
23443W        W40290   7.141   7.628   2.561  0.1527 -0.1133  0.1394
23444W        W40291  14.442   7.090  12.129  0.0416 -0.1733  0.0211
23445W        W40292   7.857   4.537  10.999 -0.0683  0.2413  0.0589
23446W        W40293  17.588   9.523   2.330  0.3139 -0.0038 -0.0558
23447W        W40294   9.669   9.747   1.342  0.1398  0.0009 -0.1164
23448W        W40295  14.850  12.942  13.744 -0.0958 -0.0961 -0.1482
23449W        W40296  15.158   9.945   2.509  0.0594 -0.2405  0.3166
23450W        W40297   5.812  16.135   2.087 -0.2722 -0.0484 -0.2133
23451W        W40298   9.930  16.135  14.351 -0.2078  0.2641 -0.1971
23452W        W40299   7.764   1.872   2.269 -0.0046  0.2916  0.1742
23453W        W40300   2.450   9.559   0.143  0.0360  0.1806 -0.3933
23454W        W40301   5.050   6.402   4.100  0.2779 -0.2447  0.2183
23455W        W40302   8.220  12.557  10.306  0.0432 -0.1315 -0.1443
23456W        W40303  19.065  16.781   9.519 -0.1264  0.0391  0.3317
23457W        W40304   5.115  11.062   1.015 -0.2092  0.0877  0.0492
23458W        W40305  18.413   4.175   5.169 -0.2708  0.0852  0.0238
23459W        W40306   7.275   5.760  13.433  0.1970 -0.2023 -0.2295
23460W        W40307   8.776   0.878   1.573  0.3872 -0.3357 -0.3412
23461W        W40308  17.612  11.233   3.025  0.2019  0.2091 -0.3070
23462W        W40309   5.688  11.950   4.983  0.1789 -0.3365  0.0492
23463W        W40310  19.382  12.603   1.513 -0.2077  0.1227  0.2128
23464W        W40311   5.320  14.663  13.778  0.3992  0.1762  0.0176
23465W        W40312  18.762  14.474   3.518 -0.0210 -0.3553  0.1726
23466W        W40313   9.081   2.190   3.064  0.2108 -0.3909 -0.1578
23467W        W40314   8.785   3.229   0.619  0.2471 -0.1303  0.3096
23468W        W40315   7.217  14.668   4.745  0.1087  0.2230  0.2851
23469W        W40316  15.869   6.164  14.612  0.0367  0.1513 -0.1652
23470W        W40317  11.917   9.336   2.876  0.1430  0.0303 -0.1353
23471W        W40318  19.379  18.082   4.204  0.0085 -0.1499  0.1015
23472W        W40319   5.764  12.186  13.742 -0.3522 -0.0888  0.1715
23473W        W40320  16.790   2.216   1.639  0.1822 -0.1896  0.0920
23474W        W40321   8.377  17.019   4.705  0.3367  0.2073 -0.0509
23475W        W40322  15.252  11.828   4.331  0.0243  0.4060 -0.1029
23476W        W40323   7.083   5.619  12.240  0.3662  0.0088  0.0243
23477W        W40324  10.011   3.224   2.747  0.2076 -0.0230 -0.0949
23478W        W40325   6.772  17.156  11.507 -0.1277 -0.2933 -0.3745
23479W        W40326  10.796   5.018  13.935 -0.1647 -0.2262  0.1132
23480W        W40327   8.112  13.322   3.429  0.1628  0.1855 -0.0888
23481W        W40328   8.667  16.822  11.717 -0.0792 -0.1659  0.1331
23482W        W40329  14.165   3.141  13.305 -0.1159 -0.0784  0.1455
23483W        W40330  14.497   2.241   0.582  0.0949  0.2642 -0.3562
23484W        W40331   6.113   1.992   0.205 -0.0865  0.1112  0.0359
23485W        W40332   2.223   0.545   3.998 -0.1009 -0.0315 -0.1389
23486W        W40333   9.513  11.442  12.183 -0.0900  0.1034 -0.0284
23487W        W40334   3.231   2.710   3.723  0.1201 -0.0657 -0.3091
23488W        W40335  13.980  13.944  10.319 -0.4493 -0.1969 -0.0005
23489W        W40336  14.877   1.242  10.829  0.4120 -0.0398  0.0638
23490W        W40337  19.151  19.462   3.633 -0.0138 -0.1203  0.2228
23491W        W40338   6.654   1.061   1.393 -0.0749  0.3389  0.0367
23492W        W40339  17.922   5.136  14.552 -0.1481 -0.0329 -0.1423
23493W        W40340  17.180   4.678  10.570  0.0253 -0.0503 -0.1451
23494W        W40341  12.291   6.440  14.568  0.1882 -0.0333 -0.0727
23495W        W40342  11.361   7.325  12.296  0.1206 -0.0867  0.1114
23496W        W40343  18.598  15.878   1.006  0.1194  0.0149  0.1499
23497W        W40344  18.070   1.701   0.300 -0.0385 -0.0722 -0.1756
23498W        W40345  13.269  10.938  10.492  0.2337  0.0948  0.0750
23499W        W40346   3.389   9.085   5.564 -0.2501  0.2145  0.2851
23500W        W40347   3.143   0.246   0.845 -0.0808  0.1882 -0.0718
23501W        W40348  19.225  11.653   5.494  0.1773 -0.1032  0.2415
23502W        W40349  15.483   1.587   1.933 -0.2019  0.0242  0.1381
23503W        W40350   2.507   1.022   2.516  0.0347  0.0031 -0.1448
23504W        W40351   5.281   8.843  10.103 -0.4091  0.0206 -0.1908
23505W        W40352   8.464  11.684   4.054  0.3650 -0.4028  0.1182
23506W        W40353   2.250   8.146  14.005  0.5459  0.0884 -0.0019
23507W        W40354   7.349  14.783  10.797 -0.3626 -0.2248  0.1543
23508W        W40355   7.331  16.509   9.457  0.1532 -0.1697 -0.1416
23509W        W40356  18.212  17.580   4.246  0.3108  0.4611 -0.3521
23510W        W40357  10.555   9.959   3.057 -0.3219  0.0127 -0.1573
23511W        W40358  14.654  11.680  13.272 -0.2005  0.0364  0.3150
23512W        W40359   1.712  16.690   4.117  0.0381  0.0593 -0.0002
23513W        W40360   8.754  11.917  12.265 -0.0365  0.3861 -0.1931
23514W        W40361  11.003  13.090   3.513  0.1908  0.3210 -0.1847
23515W        W40362  11.837  16.757  12.305 -0.3643 -0.0219  0.0448
23516W        W40363   8.478  15.429  11.989 -0.1921  0.2931 -0.0206
23517W        W40364  14.013  13.514   1.411  0.1763  0.4511  0.1707
23518W        W40365  17.552  13.590   4.302 -0.1137 -0.0752 -0.2488
23519W        W40366   0.753  14.460  11.949  0.0062  0.0889  0.0266
23520W        W40367   4.373   4.402   0.794 -0.1342 -0.0205 -0.0242
23521W        W40368   7.038  11.671  11.942  0.0609 -0.3472 -0.0576
23522W        W40369  11.373   8.305   3.951  0.2413  0.2805  0.0793
23523W        W40370  16.994  12.394   4.240 -0.0814 -0.2846  0.0165
23524W        W40371  12.450   8.812   4.749 -0.2524  0.0429 -0.0153
23525W        W40372   9.947   2.100   3.449  0.4099  0.1355  0.1842
23526W        W40373   2.689  16.676   1.930 -0.0989 -0.2929 -0.0391
23527W        W40374   9.219  12.144   1.574 -0.0091 -0.0859 -0.0510
23528W        W40375   3.260   5.576   3.059  0.1371  0.0407 -0.3259
23529W        W40376   0.202  19.316  11.056 -0.3950 -0.2911 -0.0552
23530W        W40377  14.255  11.318  12.617  0.1686 -0.0441  0.0665
23531W        W40378  14.157  12.143  10.413 -0.0471  0.1280 -0.0055
23532W        W40379   9.680  16.425   0.742 -0.0062 -0.0677  0.1196
23533W        W40380  12.657  11.389  11.169  0.1145 -0.0448 -0.0458
23534W        W40381   0.966   6.831  10.308  0.2201 -0.0885 -0.2551
23535W        W40382   7.497   6.461   0.020  0.2135 -0.2605  0.2522
23536W        W40383  19.619   5.029   2.884  0.1854 -0.0097  0.0443
23537W        W40384   9.546  15.475   0.482  0.0540 -0.0463  0.1620
23538W        W40385  19.076  17.322   9.808 -0.0447 -0.3305  0.0240
23539W        W40386  12.330  11.371  10.685  0.2378 -0.1869 -0.2129
23540W        W40387  16.830  12.939  10.548  0.0803  0.1121  0.2777
23541W        W40388   2.999   5.470  11.023 -0.4911 -0.0578  0.3443
23542W        W40389  13.290  10.026   4.558 -0.0094  0.1493 -0.3270
23543W        W40390   1.182  12.458   5.170  0.1138 -0.2082  0.2198
23544W        W40391  12.674   0.068   9.655  0.2734 -0.1555  0.1849
23545W        W40392  10.647   8.762  13.163  0.1096 -0.1523 -0.1691
23546W        W40393  13.812   9.673  10.340  0.0162 -0.0593 -0.4395
23547W        W40394  17.169  13.766   1.817  0.1262 -0.0726  0.0362
23548W        W40395   2.302  16.542   2.937 -0.2966  0.0295 -0.1120
23549W        W40396   5.198  14.164  11.403  0.3564  0.0111 -0.1646
23550W        W40397  19.272   6.647   3.570 -0.0074  0.0629  0.4141
23551W        W40398  14.430  13.491   3.430  0.0521 -0.0817  0.0594
23552W        W40399  15.418   3.029   0.795  0.1602  0.0571  0.2024
23553W        W40400  16.470  19.456  13.174  0.0648  0.1814  0.0995
23554W        W40401  17.200   8.645   1.325  0.0388 -0.1453  0.0981
23555W        W40402  15.813   8.046   2.789 -0.2846  0.0326  0.0390
23556W        W40403  19.464  13.528   4.174  0.1875 -0.3177  0.1913
23557W        W40404  18.980   2.707   2.760  0.0725  0.0166 -0.3301
23558W        W40405   3.508   0.184  11.295 -0.3197  0.1518 -0.4083
23559W        W40406  13.993   2.523   0.792  0.4208 -0.0938 -0.1395
23560W        W40407   9.703  16.800  11.774 -0.1895 -0.1231 -0.0906
23561W        W40408  19.303  16.481   9.824 -0.1648 -0.3694  0.0184
23562W        W40409  13.163  12.760   3.645  0.0112 -0.1141 -0.1154
23563W        W40410   9.616  16.118   1.128 -0.1273  0.3086 -0.0550
23564W        W40411  12.298  17.964  13.689 -0.1825 -0.2997 -0.1451
23565W        W40412   7.379  10.763   2.731 -0.1548 -0.2097  0.0078
23566W        W40413   8.673   2.510  14.477  0.0706 -0.2290 -0.1676
23567W        W40414  10.114   8.927   1.489  0.0533  0.2292  0.1102
23568W        W40415   4.814   2.300  13.209  0.2870 -0.1492  0.0716
23569W        W40416   4.310   9.072  14.111 -0.0454  0.1470 -0.1749
23570W        W40417  11.289   1.389   0.589  0.0243  0.0929  0.4121
23571W        W40418  11.760   6.505  10.629  0.3031  0.0067 -0.0507
23572W        W40419  13.142  10.470  10.244 -0.1002  0.3125 -0.0033
23573W        W40420  16.851   9.007   1.051 -0.2303  0.0142 -0.1074
23574W        W40421   6.809   2.178  14.475  0.3565  0.1892  0.1844
23575W        W40422  15.692  12.131  11.729  0.4783 -0.0715 -0.0131
23576W        W40423   0.957   7.831   1.184  0.0397  0.1046 -0.1870
23577W        W40424  18.435   5.652   2.768 -0.4893  0.3085  0.2465
23578W        W40425   5.136  17.019  13.041  0.1466  0.0877 -0.1195
23579W        W40426   2.567  16.583   4.976  0.2599 -0.0992 -0.2825
23580W        W40427   3.669  14.320   1.320  0.0296  0.1945  0.1404
23581W        W40428  11.537  17.230   2.239  0.0351 -0.1501 -0.3021
23582W        W40429   3.405   6.540   3.374  0.2435  0.0228 -0.1218
23583W        W40430  15.660  16.988   2.589 -0.0162  0.3317 -0.1113
23584W        W40431  12.475   3.724   1.324  0.2367 -0.0798  0.1319
23585W        W40432   0.365  16.250  13.764  0.0422  0.1678 -0.0596
23586W        W40433   8.956  12.914  13.331 -0.1587 -0.0143 -0.0597
23587W        W40434  10.113  11.878   4.971  0.1812 -0.1071  0.1598
23588W        W40435  11.853  12.556  11.973  0.0803  0.2981  0.1324
23589W        W40436  18.618   2.478   3.000 -0.1998  0.0382  0.2472
23590W        W40437   0.285   0.087  14.105 -0.0406 -0.0920  0.1981
23591W        W40438   8.358   8.178   3.075  0.0672  0.0655 -0.0266
23592W        W40439  17.750   7.839  12.015 -0.1093  0.0135  0.0898
23593W        W40440   3.957  10.632  10.508  0.0509  0.0994 -0.1489
23594W        W40441  12.663   8.647  10.699  0.0345  0.0671  0.0028
23595W        W40442  14.929  13.848  13.717  0.2633 -0.1002  0.0283
23596W        W40443  19.124   0.129   2.353 -0.2272 -0.1803  0.1639
23597W        W40444   3.839  18.665   0.032  0.4106 -0.2039  0.1169
23598W        W40445  15.667   1.089   9.681  0.0317 -0.0208  0.3066
23599W        W40446   4.808  14.604   5.492 -0.1246 -0.1038  0.0401
23600W        W40447  10.302   6.401   4.494 -0.1801  0.0917 -0.1712
23601W        W40448  11.607   5.351   3.683  0.0125 -0.0404 -0.0185
23602W        W40449   1.327  14.447   3.633 -0.0495 -0.1169 -0.3677
23603W        W40450   5.260   3.697   3.862  0.0991 -0.0158 -0.3016
23604W        W40451   1.912   2.735  10.311 -0.0762  0.0638  0.0865
23605W        W40452   1.175  16.139  11.925  0.2179  0.0706 -0.1432
23606W        W40453   3.227  17.479  10.896 -0.4519  0.2132  0.0376
23607W        W40454   6.558   1.477  13.231  0.3109  0.0930 -0.1565
23608W        W40455   6.254  18.014   3.528  0.3200  0.1029  0.3083
23609W        W40456  14.806  13.292   1.411  0.0011  0.2253  0.1709
23610W        W40457  19.041   5.907  11.411  0.0626  0.2755  0.0054
23611W        W40458   8.394   5.861   2.886  0.1057 -0.0075  0.2554
23612W        W40459  18.381  13.757  10.348  0.2755  0.0880  0.0189
23613W        W40460  14.863  15.397   4.673  0.0800 -0.2953 -0.4254
23614W        W40461   9.590   6.349   4.879  0.1480  0.1646 -0.2089
23615W        W40462   9.067  14.352  11.370 -0.3695 -0.1732  0.0276
23616W        W40463   3.982   2.548  13.508 -0.0535  0.1124 -0.0513
23617W        W40464   5.694   8.862   3.948  0.2502 -0.1218 -0.0052
23618W        W40465  12.468   1.131   0.255 -0.0146 -0.0080  0.1546
23619W        W40466   7.751   1.287  12.646  0.1373  0.0297  0.5390
23620W        W40467   7.693   6.155  13.234 -0.0440 -0.2071 -0.2111
23621W        W40468  14.043   6.329   2.334 -0.2070 -0.0257 -0.0166
23622W        W40469  16.920  16.692   9.908 -0.2021 -0.1715 -0.0222
23623W        W40470   4.273   1.284  13.910 -0.1352  0.2092 -0.3604
23624W        W40471   2.746  11.319  12.103  0.0438 -0.0089 -0.0464
23625W        W40472   8.287   3.676   4.858 -0.1383 -0.0886  0.2568
23626W        W40473   3.091   1.556   4.286  0.0073 -0.0001 -0.3960
23627W        W40474  15.005  13.460   2.695  0.0562 -0.3047 -0.1587
23628W        W40475  17.606   2.635   1.018  0.2925  0.1347 -0.4201
23629W        W40476  17.873   4.691  13.535  0.3698  0.0514  0.3519
23630W        W40477   5.760  11.945  13.254 -0.2325 -0.1557  0.2400
23631W        W40478  11.982   8.928   4.395  0.0552  0.1351 -0.1000
23632W        W40479   5.506   6.871   0.758 -0.0711  0.0805  0.1496
23633W        W40480  10.137   5.974   3.548 -0.1059 -0.1229  0.2786
23634W        W40481   6.587   4.265  11.691 -0.0301 -0.0795 -0.2967
23635W        W40482   1.595   1.080  13.141 -0.1801  0.2643  0.0941
23636W        W40483   0.663  15.344  13.487  0.1002  0.0346  0.3538
23637W        W40484  11.715   1.046   0.866  0.0969  0.2943  0.0601
23638W        W40485  15.282   9.394  12.659 -0.1152 -0.1274  0.5043
23639W        W40486   0.626   8.914   5.427 -0.1994  0.2221  0.0591
23640W        W40487  19.145   1.900   1.524  0.2064  0.2719 -0.2135
23641W        W40488   4.292  12.244   2.709  0.1441 -0.2304  0.0873
23642W        W40489  11.599  13.895   3.865  0.3432 -0.1481  0.1923
23643W        W40490  12.570   3.543  12.153 -0.1152  0.1384 -0.1249
23644W        W40491   9.530   0.224  10.835  0.2513 -0.0611 -0.1149
23645W        W40492  11.675   0.594  13.035  0.0382 -0.2258  0.0486
23646W        W40493  17.515  14.454  13.525  0.0713 -0.1909 -0.1119
23647W        W40494   5.952   5.162   4.875 -0.3332 -0.1390 -0.0867
23648W        W40495   4.085   9.693   4.810  0.0871  0.2364 -0.1150
23649W        W40496   8.060  19.361  13.648  0.2574  0.1537 -0.0942
23650W        W40497  15.805   7.499   0.344  0.0096  0.0258 -0.3084
23651W        W40498  10.553  12.824   1.191 -0.2271  0.0076  0.0125
23652W        W40499   1.581  17.742   0.750 -0.0755 -0.2444 -0.0087
23653W        W40500   4.241  15.984  14.254  0.1627  0.0572 -0.2513
23654W        W40501   2.185  18.565  14.309 -0.2204  0.0378 -0.1031
23655W        W40502  19.523  19.021  12.397 -0.0112 -0.1256 -0.0554
23656W        W40503  17.325  16.524   4.789 -0.0954 -0.1736  0.0149
23657W        W40504   7.800   1.892   2.772 -0.1422 -0.0748  0.0608
23658W        W40505  11.547  17.946   3.256 -0.2452 -0.0315 -0.2696
23659W        W40506  15.684  17.995  10.385 -0.1955 -0.2496 -0.0445
23660W        W40507   1.536  17.049  13.923  0.2451  0.2345 -0.3714
23661W        W40508  19.193   5.785  14.158  0.0775  0.1592  0.3345
23662W        W40509  19.464  18.537  11.584  0.0099  0.1675  0.3614
23663W        W40510   0.627   4.506   4.042 -0.1334 -0.0152  0.0535
23664W        W40511  15.162  11.170  14.052  0.0182 -0.1566  0.0194
23665W        W40512  12.917   3.289   3.434  0.1228 -0.1641 -0.0483
23666W        W40513   6.790   0.978   4.506  0.2174 -0.1836 -0.2844
23667W        W40514   7.257  12.152   0.201  0.2282  0.2584 -0.0424
23668W        W40515   3.623   0.318   1.724  0.1146  0.1985  0.0629
23669W        W40516  12.057   0.535  12.676 -0.0134 -0.0682  0.0117
23670W        W40517  18.843  13.117   1.751  0.1449  0.2065  0.0244
23671W        W40518   4.296   5.885  10.970 -0.2127  0.2739  0.0345
23672W        W40519  12.940  16.202  14.440 -0.2183 -0.3334 -0.0573
23673W        W40520   7.686  16.426  12.635  0.0642 -0.0716  0.4442
23674W        W40521   2.303   7.377  11.581 -0.1100  0.3399  0.2763
23675W        W40522   8.952   1.555   0.024  0.1367  0.1500  0.2347
23676W        W40523   4.145  13.444   3.046  0.3349  0.2630  0.1934
23677W        W40524   1.511  15.791   3.622 -0.0007  0.1301  0.1815
23678W        W40525  17.010   7.316   2.488 -0.1718 -0.2283 -0.6151
23679W        W40526   8.364   1.819   9.486 -0.1101 -0.0500  0.2035
23680W        W40527   1.973   2.477   9.797  0.0141  0.1726 -0.0150
23681W        W40528   8.697  13.351   4.274 -0.2455 -0.2559  0.2385
23682W        W40529   9.379   2.369  14.445  0.0817  0.1344 -0.2330
23683W        W40530   8.019  11.591  11.270  0.0594 -0.1635 -0.4003
23684W        W40531  15.959   2.163  13.158  0.0844  0.0777  0.2211
23685W        W40532   9.313  16.016   5.192 -0.0879 -0.4154 -0.0725
23686W        W40533  12.670   8.902   0.537  0.0012 -0.2977  0.0728
23687W        W40534   2.927   9.512  13.374  0.2805  0.4403  0.4163
23688W        W40535  11.372  14.540   2.252  0.2429  0.1955 -0.0740
23689W        W40536   6.463   7.683   0.646 -0.0876 -0.0043 -0.0959
23690W        W40537   8.926   8.744   3.289 -0.2042  0.0736 -0.0301
23691W        W40538   5.553  14.363  13.498 -0.1684 -0.1293 -0.1639
23692W        W40539   7.583   5.289  10.514 -0.2807  0.0094  0.1984
23693W        W40540   4.468   6.245   1.216 -0.0444 -0.1284 -0.0789
23694W        W40541   1.988  17.249  13.984  0.0722 -0.0121 -0.0770
23695W        W40542   2.147   3.931  11.513 -0.2741  0.0005 -0.2792
23696W        W40543   3.646   0.027   2.576  0.0349 -0.3220  0.0429
23697W        W40544   7.761  10.784  10.934  0.1947  0.2018  0.1191
23698W        W40545  14.026  10.428   2.890  0.2808 -0.0122 -0.0357
23699W        W40546  15.784   9.386  12.787  0.2107  0.0814  0.0685
23700W        W40547   4.909  18.305  10.795  0.2791  0.2156 -0.0092
23701W        W40548  16.888   8.324  11.976  0.0282  0.2394 -0.0474
23702W        W40549   3.968   7.463   5.678  0.0661  0.1941  0.0881
23703W        W40550   3.463  10.554  11.397 -0.0505 -0.2709 -0.0810
23704W        W40551  16.368   5.720   0.400 -0.0259 -0.0935 -0.1414
23705W        W40552  10.126   5.407   2.178  0.3744 -0.0513  0.0001
23706W        W40553  15.902  13.636   4.617  0.1223  0.1603 -0.1815
23707W        W40554  11.616  17.088   5.141  0.0189  0.2206 -0.0083
23708W        W40555   2.817   5.708   3.776  0.1545 -0.1161 -0.0672
23709W        W40556   1.296   7.452   0.423 -0.0444 -0.0687 -0.0939
23710W        W40557   4.334  15.894  11.628 -0.2134  0.0893 -0.1893
23711W        W40558  17.710   7.484   1.035 -0.0411  0.0098 -0.0843
23712W        W40559  15.834  16.157  10.374  0.0310  0.0650  0.1680
23713W        W40560   5.769  13.914   3.277 -0.0099  0.2390 -0.1787
23714W        W40561  11.085   2.101  14.138 -0.4927 -0.0340 -0.3246
23715W        W40562   5.603  13.667   3.638  0.1127 -0.1271  0.1165
23716W        W40563   3.351  11.880  13.250  0.1261  0.3453 -0.2598
23717W        W40564   3.302   9.703   2.520  0.0097 -0.1232  0.0971
23718W        W40565   4.833   5.190   2.056 -0.0307  0.0774  0.0047
23719W        W40566  12.641  12.137   4.103  0.2765  0.0282 -0.0107
23720W        W40567   5.855  10.570   2.659 -0.0595 -0.5592 -0.3688
23721W        W40568   9.166  13.432   0.926 -0.0060  0.0666 -0.0802
23722W        W40569  17.164   5.193   5.533 -0.1941  0.0898  0.1102
23723W        W40570  14.597   7.042  13.949 -0.0035 -0.3707 -0.3225
23724W        W40571  10.778   2.150  12.511 -0.2646  0.2554 -0.0153
23725W        W40572  13.941   7.213  10.020 -0.1123 -0.3052  0.0564
23726W        W40573  19.284  19.443  13.507 -0.2609 -0.3362 -0.0028
23727W        W40574  14.459  11.179   3.638  0.0994  0.0829  0.0863
23728W        W40575   0.622   7.788  13.668 -0.3472  0.0581 -0.0521
23729W        W40576   2.890  18.788  14.363  0.0789 -0.1093  0.1144
23730W        W40577   2.922   8.619   1.768 -0.1848 -0.1257  0.3589
23731W        W40578   4.907   4.893  12.333 -0.1835  0.1374 -0.0494
23732W        W40579   0.983   1.105   3.652 -0.1157 -0.0905  0.1431
23733W        W40580   3.176   3.348   1.208 -0.1524 -0.0846 -0.0019
23734W        W40581  11.451  15.725   3.619  0.2146 -0.0661  0.1916
23735W        W40582   5.520   6.102   2.491  0.1385  0.1415  0.1452
23736W        W40583   1.265   4.282  12.311 -0.1859 -0.0865 -0.4049
23737W        W40584   3.207  10.202  14.466 -0.0931  0.1443 -0.1374
23738W        W40585  11.484   5.927  11.307  0.0585 -0.0806  0.0937
23739W        W40586  10.355  12.966   2.033 -0.0442  0.0984 -0.0021
23740W        W40587   9.930  10.566   3.325  0.2074 -0.1881  0.1955
23741W        W40588   1.837  18.657   3.227  0.0159  0.0358  0.2651
23742W        W40589  17.005  11.546  14.208 -0.0628 -0.0468  0.1455
23743W        W40590  19.229   2.388   1.410 -0.0820 -0.0204  0.1089
23744W        W40591  14.320   0.812   9.768  0.1584 -0.2431 -0.4517
23745W        W40592  11.191   7.610  13.211 -0.1532  0.0573  0.2124
23746W        W40593   8.143  10.866  12.235  0.1302  0.0827  0.0921
23747W        W40594   2.172  15.835   3.930  0.1915 -0.0621 -0.5508
23748W        W40595   5.208  18.628   0.591 -0.2355  0.0408 -0.0800
23749W        W40596  10.003   1.277  13.443  0.0015  0.0131  0.0738
23750W        W40597  14.102  10.909  10.784 -0.2135 -0.1097 -0.0940
23751W        W40598  10.662   2.904  11.762 -0.0127 -0.1084 -0.1721
23752W        W40599  14.433   2.742   4.412 -0.0825  0.1808 -0.1205
23753W        W40600  15.430  15.841   2.694 -0.5076  0.0205 -0.1481
23754W        W40601   5.265   4.567   5.055 -0.0819  0.0037  0.1312
23755W        W40602  18.608  13.829   4.413  0.1250 -0.1443  0.2126
23756W        W40603   6.373   5.306   4.252 -0.1146  0.0139 -0.0358
23757W        W40604  16.145  15.946  10.746  0.0656  0.0631  0.1320
23758W        W40605   1.967  14.700   2.222 -0.0415 -0.2173 -0.3165
23759W        W40606   3.711   6.150  12.434  0.0158  0.0402 -0.3383
23760W        W40607   4.176   0.692   4.183  0.0497  0.0891 -0.0138
23761W        W40608   0.313   3.059  10.922 -0.0907 -0.0260 -0.0893
23762W        W40609  11.502  13.189   2.302 -0.1404 -0.1851 -0.0361
23763W        W40610   1.564   3.310  11.125  0.3734 -0.1637  0.1953
23764W        W40611  10.232   2.983  10.597  0.2585 -0.0730 -0.0197
23765W        W40612   4.425  10.808  13.681  0.1369 -0.0120  0.4917
23766W        W40613  16.526   3.683   4.455  0.3473 -0.2225  0.4165
23767W        W40614   0.330   9.372  11.268  0.0686  0.2069 -0.4203
23768W        W40615  16.080   0.824   2.289 -0.0254  0.0855 -0.0080
23769W        W40616  17.946   6.345   2.751 -0.1891 -0.1169 -0.0386
23770W        W40617   4.243  14.656   2.404 -0.1351 -0.1992  0.1951
23771W        W40618  15.005  11.803   1.704 -0.1879  0.1130 -0.0681
23772W        W40619   0.249  19.350   2.391  0.2626  0.0682  0.0245
23773W        W40620  17.428   6.187   0.863 -0.0432 -0.1772 -0.1690
23774W        W40621  10.659  16.502  14.073  0.1111 -0.0309 -0.0397
23775W        W40622   5.119   6.097  13.024 -0.1023 -0.2633  0.0490
23776W        W40623  15.116   7.878  13.797  0.1729  0.0095 -0.0089
23777W        W40624   2.898   8.586  13.528  0.2268 -0.1368  0.0830
23778W        W40625  19.607  15.993   1.338 -0.2126  0.0740  0.2725
23779W        W40626  11.554  16.313   4.422 -0.2368  0.0700  0.0881
23780W        W40627  14.845   3.041   4.086 -0.2474  0.1289 -0.2831
23781W        W40628  19.487  17.635  13.896 -0.0933  0.1825  0.0311
23782W        W40629  16.608   7.070  11.240 -0.0841  0.0157 -0.3943
23783W        W40630   7.836   3.228   0.549  0.0918 -0.0314  0.0132
23784W        W40631  18.675  12.002   3.284 -0.0399 -0.4371 -0.2978
23785W        W40632   8.338   6.149   3.569  0.0391  0.0194 -0.0398
23786W        W40633  12.984   1.154   4.131 -0.2578  0.0917 -0.0149
23787W        W40634  13.043  12.833  11.595  0.1047  0.1511 -0.2236
23788W        W40635   1.418   0.339  12.202 -0.0611  0.2554 -0.0743
23789W        W40636   3.493  18.546   4.936 -0.1415  0.0056 -0.0769
23790W        W40637   9.570   8.075  14.178 -0.0749  0.0127  0.0607
23791W        W40638  12.013   0.999  13.628 -0.1923 -0.4838 -0.2906
23792W        W40639   2.211  19.054   1.073 -0.1239 -0.2816 -0.1622
23793W        W40640  13.070   2.411   0.423  0.1114 -0.0095 -0.2789
23794W        W40641   3.148   0.088   1.643 -0.2150  0.0927 -0.1686
23795W        W40642   6.200  16.619  12.352  0.1316  0.0673 -0.0892
23796W        W40643  11.455  16.956  11.987 -0.0162  0.1928  0.1530
23797W        W40644   5.830  14.975  12.914 -0.1678 -0.1207 -0.1805
23798W        W40645  14.123  17.602   4.432 -0.0942  0.0916 -0.0771
23799W        W40646  11.368   5.162  13.395 -0.1349 -0.0836  0.1286
23800W        W40647   8.479   3.559   1.567 -0.3325 -0.0563  0.0905
23801W        W40648   9.920  12.565  11.000 -0.0757 -0.0847 -0.0497
23802W        W40649  13.707   6.541  10.867 -0.1233 -0.1531 -0.1888
23803W        W40650   1.635  14.016  14.591  0.0000 -0.0634  0.0466
23804W        W40651   1.582   9.967  10.830 -0.0831 -0.3683  0.4500
23805W        W40652  16.906   7.694  12.668 -0.1905 -0.3970 -0.2911
23806W        W40653   1.575   1.435   3.073 -0.3196 -0.0854  0.3603
23807W        W40654  18.543  13.808   3.804  0.2931  0.0963 -0.0686
23808W        W40655   5.697   5.761   1.286 -0.1254 -0.1024 -0.2666
23809W        W40656   8.802  12.082   0.826 -0.2186  0.0117 -0.1674
23810W        W40657   5.473   9.115  13.974 -0.1170 -0.3190 -0.3579
23811W        W40658   8.055   6.557   5.559  0.2305  0.1284  0.1507
23812W        W40659   5.999  12.344  10.539  0.0219  0.2419 -0.2846
23813W        W40660  15.459  13.533  13.160 -0.2432 -0.0496  0.2215
23814W        W40661  18.272   3.929   4.778 -0.1659  0.0928 -0.0807
23815W        W40662  14.963   9.118  13.495 -0.2709  0.1690 -0.0371
23816W        W40663  11.813   6.243   0.788 -0.0458 -0.4052  0.1928
23817W        W40664  13.615   6.042   2.376  0.1685  0.0540 -0.1552
23818W        W40665   1.017   9.637   2.457  0.0470 -0.3281  0.0011
23819W        W40666   3.932   2.537   2.092 -0.2490 -0.1783  0.1310
23820W        W40667  19.377  10.808   0.653  0.1281  0.1162 -0.0357
23821W        W40668  14.938   2.610   3.501  0.0021  0.3371  0.1596
23822W        W40669  19.090   6.718   0.595  0.2945 -0.0164  0.1436
23823W        W40670  12.456   4.684   0.592 -0.4475  0.1726  0.2324
23824W        W40671   9.076  13.702   3.425 -0.3135 -0.2400  0.0212
23825W        W40672   1.058   8.655   4.093  0.0778  0.2548  0.1831
23826W        W40673   9.747   7.389  12.069 -0.2504 -0.0190  0.0488
23827W        W40674  13.780  11.463  13.366 -0.0548 -0.4146  0.3257
23828W        W40675  13.644  10.928   0.051 -0.0985  0.0048 -0.0433
23829W        W40676   5.173  10.864  13.438  0.5482  0.0838 -0.0669
23830W        W40677  19.250   2.220   9.953 -0.0864  0.1213 -0.1195
23831W        W40678   5.529  10.502   9.504 -0.2599  0.0142 -0.0928
23832W        W40679   0.522   5.714   4.115  0.0251  0.0155 -0.0551
23833W        W40680   0.880  15.913  10.369 -0.0358  0.0616  0.0900
23834W        W40681  17.070  10.415  11.938  0.0543 -0.2575 -0.0554
23835W        W40682   2.935  14.207   0.854  0.1413  0.1160 -0.0667
23836W        W40683   5.496   3.738   4.948  0.1547  0.3216 -0.0437
23837W        W40684   5.205  13.177  12.136  0.3322  0.0373  0.0134
23838W        W40685  11.351   7.938  10.663 -0.1954  0.0672 -0.1436
23839W        W40686   4.823  15.100   5.437 -0.2008 -0.0776  0.1102
23840W        W40687  11.899   4.252   2.372 -0.0569  0.0401  0.2858
23841W        W40688   7.336   8.167  12.687  0.2424  0.0928 -0.0549
23842W        W40689   8.430  16.664  13.183  0.1424 -0.2045  0.0189
23843W        W40690  12.078  11.662   3.739  0.0469  0.3366  0.0550
23844W        W40691   3.338   3.175   3.976 -0.2997 -0.1818 -0.0426
23845W        W40692   5.324   4.129   3.217  0.1238  0.2542 -0.0720
23846W        W40693   2.014   4.748  13.900 -0.0480 -0.1994 -0.2491
23847W        W40694   1.552  13.965  12.789  0.2380  0.1033  0.1571
23848W        W40695  15.351  16.183  11.860 -0.4083  0.1012  0.0215
23849W        W40696  13.532   4.089   4.347  0.4962 -0.1587 -0.1270
23850W        W40697  11.126   7.328   4.861  0.1949 -0.1230  0.0554
23851W        W40698   6.001   7.914   3.514 -0.0493 -0.1739 -0.1906
23852W        W40699  16.634  11.400   2.625  0.5682  0.1100 -0.1047
23853W        W40700   4.991  14.504   3.734  0.0704 -0.3042 -0.0152
23854W        W40701  18.887   0.651   3.174 -0.0090 -0.0917 -0.0563
23855W        W40702   3.334   6.533   2.838 -0.1483 -0.1034 -0.1710
23856W        W40703   8.672  17.112   1.483 -0.5040 -0.1568  0.0496
23857W        W40704  10.687   2.759  10.337  0.3047 -0.1470 -0.1906
23858W        W40705  10.193   0.725  11.775 -0.1775 -0.1643 -0.0182
23859W        W40706   3.880  16.465  13.456  0.2299  0.5371 -0.2205
23860W        W40707   8.127   8.977  12.690 -0.2719 -0.0560  0.0835
23861W        W40708  15.442  10.913  10.724  0.1235 -0.0534 -0.3183
23862W        W40709   3.175  16.850  10.413 -0.4561 -0.1340 -0.1635
23863W        W40710  16.921  16.583   3.497 -0.1744  0.0858 -0.1072
23864W        W40711  16.831  13.741   0.249 -0.0268  0.2145  0.1422
23865W        W40712   3.021   6.067   1.632 -0.1164 -0.0483 -0.3145
23866W        W40713   0.397  10.542  12.808 -0.1244 -0.2475  0.2130
23867W        W40714   5.244  14.939   0.918  0.0406  0.3583 -0.2185
23868W        W40715   7.696  15.019   2.874 -0.1060 -0.3180 -0.1705
23869W        W40716  19.163  13.254   3.469  0.1194  0.3295 -0.0420
23870W        W40717   3.430  14.963  10.714  0.2517  0.1737  0.0816
23871W        W40718   9.698  14.976   2.954 -0.0818  0.1679  0.1470
23872W        W40719   9.141  16.598   0.131 -0.3623 -0.0191 -0.1597
23873W        W40720  18.881   1.535  11.448  0.0505 -0.0651  0.1344
23874W        W40721  15.940  17.062  12.256  0.1912  0.1150  0.0380
23875W        W40722   3.629  16.026  12.670  0.0464 -0.0486  0.2322
23876W        W40723   2.805   9.431   4.537 -0.2928 -0.0000 -0.4093
23877W        W40724   0.926   7.651   9.940 -0.0839 -0.3661  0.0589
23878W        W40725   0.094  15.740  13.253 -0.2509 -0.0379 -0.0111
23879W        W40726   9.686  15.302   1.417 -0.1624 -0.1446 -0.0167
23880W        W40727  16.324   4.689   3.865 -0.0730 -0.1681 -0.1180
23881W        W40728   4.699  16.767   0.916 -0.3319 -0.1648 -0.0895
23882W        W40729  17.062   8.802   3.733 -0.1147  0.2458  0.0437
23883W        W40730  13.659   5.523   3.986  0.0840  0.2897 -0.0389
23884W        W40731   6.343   5.396   5.506  0.1398 -0.0362 -0.0704
23885W        W40732   0.215   4.359   5.603 -0.1247  0.3474 -0.2604
23886W        W40733   0.602  10.089   4.333 -0.2432 -0.3259  0.1941
23887W        W40734   9.285   8.458   4.800 -0.0447 -0.1573  0.0158
23888W        W40735   8.503  12.405   1.075 -0.0394  0.2434 -0.2149
23889W        W40736   1.690   5.650  14.457 -0.2158  0.1353  0.1666
23890W        W40737   8.327   3.087  12.743 -0.2842  0.0603  0.1106
23891W        W40738   7.517   8.364   4.239  0.4444  0.2489  0.3131
23892W        W40739   6.424   8.729   1.838 -0.1885 -0.3340 -0.4975
23893W        W40740  13.934   6.426   0.837 -0.0399  0.0927 -0.0626
23894W        W40741  17.905  16.455   3.964  0.5110 -0.0433 -0.2121
23895W        W40742  14.615   6.022   1.524 -0.0008  0.0347  0.1223
23896W        W40743   2.073   1.089   5.370 -0.0206 -0.1413  0.0193
23897W        W40744   4.978  12.141   1.702  0.1895  0.0299 -0.1712
23898W        W40745   4.894  18.947  12.210 -0.0313 -0.2154  0.0338
23899W        W40746  11.578   5.418  11.471 -0.0517 -0.2648  0.0276
23900W        W40747  11.125   9.286   1.066 -0.2919 -0.1402 -0.0000
23901W        W40748   2.828   2.998  14.078 -0.0537 -0.2129  0.2591
23902W        W40749  18.914  15.518   1.133  0.1168 -0.0054 -0.0181
23903W        W40750   0.576  10.259   3.742  0.2363  0.2094  0.0584
23904W        W40751  19.345  10.920   3.418  0.0722 -0.0282  0.1487
23905W        W40752   3.209   3.684  14.570 -0.1679  0.1275 -0.0217
23906W        W40753  17.339  19.034  10.205 -0.2184  0.1651  0.1167
23907W        W40754  16.018   4.788  13.822 -0.1744 -0.1261  0.1664
23908W        W40755   2.372   0.474  14.119 -0.2663 -0.1078  0.4790
23909W        W40756   1.514   2.170   2.159 -0.0148  0.1128  0.0384
23910W        W40757   7.895  13.427  12.817  0.0391  0.2206  0.0988
23911W        W40758  18.128   8.100  11.892 -0.2409  0.0134 -0.0353
23912W        W40759  17.469   0.016  10.843 -0.0035  0.0420 -0.3959
23913W        W40760  13.014   3.918  10.368  0.2025 -0.1296  0.0783
23914W        W40761   7.105   3.945  14.416 -0.0242  0.0455 -0.0394
23915W        W40762  17.333  15.258   1.113 -0.1028 -0.0084  0.2353
23916W        W40763  11.826   4.735  11.991  0.4898  0.0845  0.0547
23917W        W40764   1.653  18.516   1.820  0.0976  0.4113  0.2329
23918W        W40765   5.837   1.052   3.691  0.2275 -0.1258  0.0372
23919W        W40766  18.844  12.249   4.795 -0.0015  0.0749  0.1070
23920W        W40767  10.167   5.342   0.172 -0.0726  0.1856  0.1360
23921W        W40768   7.486  18.360   1.924 -0.2760  0.0865 -0.4801
23922W        W40769  14.611  15.004  10.649 -0.1103  0.0227 -0.0297
23923W        W40770   5.555  15.642   1.409  0.0424 -0.0677 -0.3866
23924W        W40771   5.620   5.398   3.126  0.1278 -0.0119  0.1973
23925W        W40772  11.682   8.128   0.100 -0.1718  0.1092 -0.0521
23926W        W40773   5.646  15.287  11.698  0.1468  0.0250  0.0162
23927W        W40774   6.112   6.009   2.261  0.1087  0.1556 -0.1077
23928W        W40775  17.428  18.378   0.398 -0.2266  0.1685 -0.1937
23929W        W40776   2.215  10.010   5.407  0.0918 -0.1548  0.2442
23930W        W40777   6.812  18.743   3.175 -0.0449 -0.0001  0.1194
23931W        W40778  18.607   6.760   2.325  0.0117 -0.1839 -0.0895
23932W        W40779  15.525   9.679   3.641  0.1609  0.1048  0.0404
23933W        W40780  13.915   6.331  14.206  0.0732  0.0647  0.2820
23934W        W40781  16.289   6.937   1.402 -0.2052 -0.0023 -0.0361
23935W        W40782  14.107  15.239  10.845  0.1079  0.2270 -0.2348
23936W        W40783  16.974   3.624  10.998  0.0355  0.0973 -0.3015
23937W        W40784  10.049   0.752  10.212 -0.2509 -0.0009  0.1399
23938W        W40785   4.195  12.741   1.020 -0.2085  0.1448 -0.0051
23939W        W40786   3.797   4.541   4.378 -0.3801  0.1760  0.0176
23940W        W40787  10.123  17.916  13.507 -0.3780 -0.1681 -0.0643
23941W        W40788   4.774   1.951   4.037  0.1055 -0.3413 -0.0776
23942W        W40789  12.882  16.680   3.166 -0.1175 -0.2633 -0.0675
23943W        W40790  17.156   4.476  11.050  0.1246 -0.2360 -0.0634
23944W        W40791   5.912  17.604  12.747  0.3255  0.0623  0.0894
23945W        W40792  16.886   2.011   5.392  0.0684  0.0428 -0.1327
23946W        W40793  17.388   9.308  11.449  0.0092 -0.0206  0.1231
23947W        W40794  15.735   4.062   1.015 -0.1406  0.1717 -0.0136
23948W        W40795   3.067   3.854  12.044 -0.1151 -0.3825  0.2915
23949W        W40796  17.499   3.471   3.178  0.3404  0.2106  0.0642
23950W        W40797  17.679   5.740   0.658 -0.0521  0.0802  0.1710
23951W        W40798  16.629  12.921   3.660  0.0616  0.1414 -0.1824
23952W        W40799  15.527   9.575   0.371 -0.3144  0.0735  0.1417
23953W        W40800  12.209   0.402   4.263 -0.1540  0.0110  0.1640
23954W        W40801  11.614  11.862   2.043 -0.2143  0.1803  0.0423
23955W        W40802  17.188  12.804  13.909  0.2825 -0.4739  0.2034
23956W        W40803   5.822   2.319   4.807  0.0484  0.0314 -0.0213
23957W        W40804  11.966  11.815  13.195  0.0071 -0.0425  0.0924
23958W        W40805  18.395   8.587  11.862 -0.3591 -0.2173 -0.3439
23959W        W40806   6.616   7.685   1.801  0.0510 -0.1880  0.1410
23960W        W40807   8.390   0.493   3.881  0.0713 -0.0257 -0.0694
23961W        W40808   7.016   2.547  12.606  0.2239 -0.1871  0.1351
23962W        W40809  12.419  10.878  11.912  0.0596 -0.3549 -0.4233
23963W        W40810  15.375  14.770   2.611 -0.1485 -0.0342 -0.4410
23964W        W40811   4.421  15.335   0.183  0.1373 -0.0343  0.1167
23965W        W40812  14.589   6.819   4.031  0.2996 -0.1764  0.2390
23966W        W40813   2.813   7.769  14.068 -0.1493 -0.0757  0.0743
23967W        W40814   3.434  17.735  11.392  0.1917 -0.0194 -0.0689
23968W        W40815  18.580   1.292  12.422 -0.1692 -0.2256  0.1337
23969W        W40816  19.062   4.947  14.408 -0.3062 -0.1112 -0.1492
23970W        W40817   1.417  13.929   2.111 -0.0987  0.0105  0.0829
23971W        W40818  19.275  14.434   4.284  0.1289  0.1673 -0.1270
23972W        W40819  16.753   4.995   4.723 -0.0602  0.3127  0.2443
23973W        W40820  12.799  10.321  11.102 -0.0712  0.1952 -0.1205
23974W        W40821   4.349   5.775   4.850 -0.2502 -0.1430  0.1423
23975W        W40822   3.451   6.023   3.374 -0.1371 -0.1026 -0.1469
23976W        W40823   1.271   4.181  13.997 -0.0624  0.2079  0.5788
23977W        W40824  12.151   0.410   2.004  0.2201  0.3888 -0.3654
23978W        W40825   6.518   2.483   1.414  0.2200 -0.0169  0.3961
23979W        W40826   8.786   5.363   4.028 -0.1518 -0.0834 -0.2432
23980W        W40827   3.542   6.573   4.792  0.1862 -0.0293  0.0208
23981W        W40828  14.406  11.266  13.447  0.0157 -0.1360  0.0837
23982W        W40829   5.975  14.539   3.720 -0.1334 -0.1874 -0.1423
23983W        W40830  18.892  14.628  10.499  0.0232  0.4368  0.2165
23984W        W40831   2.660  18.003   1.235 -0.0025  0.1847 -0.1838
23985W        W40832  17.704  15.262   2.564 -0.1405 -0.0417 -0.0268
23986W        W40833   9.180   3.254   1.432  0.0882 -0.3024 -0.1389
23987W        W40834   2.127  10.642  11.031  0.0501 -0.1476 -0.2782
23988W        W40835  13.032  10.410   0.624  0.1990 -0.2703 -0.1940
23989W        W40836   7.897   1.427  11.171  0.1316 -0.0463  0.1641
23990W        W40837   1.465   3.720  14.046  0.3502  0.2622  0.1031
23991W        W40838  16.993   9.035   0.586 -0.1964  0.1156 -0.1111
23992W        W40839   5.693  17.361  13.139  0.2137 -0.2483  0.2173
23993W        W40840  15.034   1.596   2.791  0.0127 -0.0049 -0.2484
23994W        W40841  10.724   1.874  14.399  0.2554  0.3488  0.2186
23995W        W40842  14.069  13.824  11.780 -0.1903  0.1427 -0.3071
23996W        W40843   8.035   4.567  10.483  0.1281  0.1627  0.0552
23997W        W40844   0.946  12.740   3.956  0.3822  0.2323  0.1303
23998W        W40845   9.340   8.593  10.211 -0.0851  0.0475  0.3285
23999W        W40846  18.711  13.705  12.955  0.1670  0.1403  0.2445
24000W        W40847   2.504  11.668   3.917  0.0279 -0.0574 -0.1431
24001W        W40848   0.395  19.015  13.929 -0.2370  0.1021  0.4258
24002W        W40849  17.187   8.751   1.917 -0.4738  0.0348 -0.2920
24003W        W40850   7.132   9.160   0.428  0.1508 -0.4051  0.0539
24004W        W40851   9.315  18.937   1.352 -0.0746 -0.2545 -0.0879
24005W        W40852   9.100   6.535   4.626  0.1148 -0.1801 -0.2809
24006W        W40853  11.874   5.327  12.657  0.5280 -0.0532 -0.0788
24007W        W40854   4.285  12.055  14.392  0.0196 -0.4095 -0.1996
24008W        W40855   6.598   4.209   2.436 -0.0972  0.0834 -0.2706
24009W        W40856  10.152  11.994   0.675  0.0128 -0.1297 -0.3671
24010W        W40857   9.946   1.874   1.079 -0.1726  0.0167 -0.1281
24011W        W40858   7.976  16.842   1.846  0.1333 -0.2146 -0.2269
24012W        W40859   2.435  11.596  13.249 -0.2763 -0.0028 -0.1005
24013W        W40860  11.508  10.233  10.348 -0.2279  0.2464  0.1463
24014W        W40861  12.479  10.859  10.805  0.1066 -0.3741 -0.3809
24015W        W40862   9.115  11.647   3.294  0.0889 -0.3052 -0.1371
24016W        W40863  12.819  11.717  13.072  0.1010  0.0735 -0.0441
24017W        W40864  15.501  18.891   2.694 -0.1464  0.1601 -0.3161
24018W        W40865   2.847   1.843   1.719 -0.1157 -0.0407  0.4583
24019W        W40866  10.400   6.866   5.036 -0.2246  0.0418 -0.1361
24020W        W40867   3.074   9.258  14.255  0.1370 -0.4048 -0.2880
24021W        W40868   0.610   6.877  11.618 -0.0049 -0.2190 -0.1881
24022W        W40869  18.734   3.082   1.716 -0.2924  0.3991  0.0132
24023W        W40870   3.435   5.869   5.547  0.2527 -0.0237 -0.0663
24024W        W40871   5.843   9.390   0.286 -0.0183 -0.1517 -0.1387
24025W        W40872  14.963  18.832  10.163 -0.0989 -0.0920 -0.0023
24026W        W40873  15.150  15.143   1.900 -0.1537  0.0519 -0.0428
24027W        W40874  10.685  17.138   4.632 -0.0904 -0.1045 -0.1909
24028W        W40875   4.609  13.453   0.785  0.0960 -0.0402  0.0146
24029W        W40876  19.026   5.697  13.390  0.2752 -0.0511 -0.1295
24030W        W40877  17.499   8.766  12.834 -0.2569 -0.1871  0.3433
24031W        W40878  16.641  17.605  12.400 -0.4031 -0.0680  0.3861
24032W        W40879   0.826   6.873   2.009 -0.1652  0.2716  0.2654
24033W        W40880   3.094  11.992  12.259 -0.0448 -0.0381  0.2849
24034W        W40881  11.021   3.879  11.034 -0.2189  0.0139  0.1039
24035W        W40882  13.507   0.625  10.281  0.0397  0.2120 -0.0552
24036W        W40883   6.699  17.286  13.850  0.0333 -0.0739  0.1208
24037W        W40884  11.267  12.565  13.331 -0.1552  0.0852 -0.0714
24038W        W40885  13.779  10.249   0.717 -0.0234 -0.0246 -0.0371
24039W        W40886   2.716  13.258  11.621 -0.3644 -0.0077 -0.0455
24040W        W40887   9.984   8.870  11.490  0.0552  0.0400 -0.1341
24041W        W40888  10.151   6.951   2.109  0.2489 -0.0275 -0.0469
24042W        W40889   5.428  16.389   1.365  0.0043 -0.1754 -0.1819
24043W        W40890   7.095   6.697  14.453 -0.2910  0.2178 -0.2880
24044W        W40891  18.025  15.554  10.341 -0.1915  0.2815 -0.0734
24045W        W40892  12.375  16.101   3.874 -0.0105 -0.0700  0.2335
24046W        W40893  19.357  19.615  11.189  0.1239  0.2879  0.1761
24047W        W40894  13.878  14.019   0.633  0.0713 -0.0718 -0.1014
24048W        W40895  10.917  16.955  14.081  0.1836 -0.1901  0.1445
24049W        W40896   0.265  11.766  10.706  0.0600  0.0842 -0.0238
24050W        W40897   5.092   8.132   0.853 -0.2297  0.1394  0.1191
24051W        W40898  11.318  12.574  11.759 -0.0177 -0.1527  0.1844
24052W        W40899   7.264  19.311  12.395 -0.1692  0.2719  0.0898
24053W        W40900   2.673  18.408   0.885 -0.2863  0.2686 -0.3003
24054W        W40901  15.676   1.198   1.541  0.1172 -0.0173 -0.1771
24055W        W40902   9.143   9.353  12.397  0.0525 -0.4639  0.0726
24056W        W40903  12.954  14.578  12.841 -0.3363  0.0270 -0.1682
24057W        W40904  13.813   0.715   1.015 -0.2137  0.0366 -0.2820
24058W        W40905  14.557  16.925  13.658  0.0998 -0.2208  0.0622
24059W        W40906  10.990  11.121  14.414  0.3448  0.1088 -0.3146
24060W        W40907   9.488  19.302   2.870 -0.1675  0.1915 -0.2104
24061W        W40908  12.633  13.862  11.039 -0.0102  0.3185  0.1309
24062W        W40909  10.076  14.969   4.267 -0.0915 -0.3647  0.6363
24063W        W40910  18.769   7.341   1.210  0.3360  0.1414 -0.0546
24064W        W40911   4.373  12.718  13.731  0.0564  0.2294 -0.1180
24065W        W40912   7.659  17.301  13.345  0.0215  0.0860 -0.0052
24066W        W40913   3.069  10.840  11.148  0.0298 -0.1442 -0.2463
24067W        W40914   3.310   6.829  13.816  0.0965 -0.2148  0.0205
24068W        W40915   0.815  11.396   3.300  0.3641  0.0942  0.1329
24069W        W40916   7.911   5.906   0.606  0.0162  0.0697  0.2690
24070W        W40917  17.927  12.897   3.898  0.0690 -0.0251 -0.1415
24071W        W40918   6.241   8.177  11.285 -0.3183  0.0044  0.3743
24072W        W40919   9.320   0.495   3.233 -0.2177  0.0121 -0.0256
24073W        W40920  15.264   4.065  14.194 -0.1880 -0.0881 -0.0354
24074W        W40921  18.377  17.496  13.021  0.0028 -0.0477  0.0141
24075W        W40922  12.672   5.050   1.285  0.2017 -0.1246  0.0208
24076W        W40923  13.331  15.313  11.751  0.2443  0.2351 -0.1517
24077W        W40924   8.858  15.080   0.843 -0.2842  0.0213  0.0770
24078W        W40925  17.399   5.794   2.115  0.3001  0.2145  0.1925
24079W        W40926   2.834  17.275  11.509  0.2661  0.2411  0.2381
24080W        W40927   4.811  15.092  11.740 -0.0417  0.1038 -0.1525
24081W        W40928  17.504  13.643  13.007  0.2248 -0.4110  0.0098
24082W        W40929   3.551  14.824   1.160  0.0280 -0.1964 -0.1617
24083W        W40930   5.239  16.792   1.067  0.0335 -0.2241  0.0807
24084W        W40931   8.367  18.476  10.553 -0.0585  0.0832  0.0488
24085W        W40932  11.867  11.682  14.602  0.1150  0.0257  0.1680
24086W        W40933  15.406  18.414  13.665 -0.2403  0.1054 -0.0552
24087W        W40934  11.122   3.659   3.230 -0.1822 -0.0815 -0.2003
24088W        W40935  10.105   6.036  10.782 -0.1877  0.1470 -0.3887
24089W        W40936   7.144   8.581   3.533 -0.1415 -0.0909 -0.1227
24090W        W40937  10.106   3.458   1.989 -0.1799 -0.0936  0.3913
24091W        W40938   4.745  15.019  10.648 -0.0704 -0.1475 -0.2140
24092W        W40939   8.550   5.756   0.377 -0.3204 -0.0731 -0.1723
24093W        W40940  19.381  19.618   4.046 -0.2794 -0.4677 -0.1723
24094W        W40941   2.776  13.515  11.197 -0.0219 -0.1766  0.2802
24095W        W40942   6.784   8.823  12.666 -0.1475  0.0706 -0.2769
24096W        W40943  11.154  17.297  11.370  0.0138 -0.3090 -0.0183
24097W        W40944  16.720   3.275   4.192  0.1274 -0.0063 -0.0268
24098W        W40945  18.193   2.414  11.267 -0.2816  0.3097  0.2089
24099W        W40946  10.316   6.904   4.537  0.1594  0.0165 -0.2695
24100W        W40947  12.903  15.513   1.120  0.0691 -0.0859 -0.0240
24101W        W40948  15.404   4.590   2.737  0.0980 -0.0350  0.0088
24102W        W40949   6.585  13.494   4.961 -0.1537  0.0685 -0.1749
24103W        W40950  18.771  12.401   3.650 -0.2186  0.1140  0.0977
24104W        W40951   6.863   2.070  11.396 -0.1366  0.1159  0.1141
24105W        W40952  17.726  18.707   1.336 -0.0381  0.1049 -0.3210
24106W        W40953   6.450   5.182   2.101  0.0364  0.4270 -0.0589
24107W        W40954   0.647   7.527   4.670  0.1131 -0.5638 -0.3569
24108W        W40955  12.515   5.565   1.113 -0.2996  0.2137  0.0310
24109W        W40956   1.838   8.151   3.556  0.2572  0.1063  0.0818
24110W        W40957  12.901  19.367   0.131 -0.3673 -0.0143 -0.1262
24111W        W40958  17.971   2.174   4.426 -0.1995  0.0524  0.0061
24112W        W40959   4.757  19.536   3.046 -0.0657 -0.1147  0.1820
24113W        W40960  14.012  13.670   0.229  0.1877  0.2876 -0.0382
24114W        W40961   7.429   8.728   2.650  0.0217 -0.0672 -0.0471
24115W        W40962  14.158   2.885   1.740 -0.1571  0.0895 -0.3241
24116W        W40963   8.718  17.307   0.743 -0.1127  0.1342 -0.0031
24117W        W40964  10.602  15.401  12.926 -0.0499  0.1340 -0.2852
24118W        W40965   4.100  10.984  11.005 -0.0012  0.1671  0.2646
24119W        W40966  14.278   2.610  13.412  0.3060 -0.1757  0.0676
24120W        W40967  14.829   8.815   3.439  0.3012  0.1086 -0.1483
24121W        W40968  18.718   7.958  14.112 -0.1478 -0.0340  0.2384
24122W        W40969   8.899   1.797  13.744  0.3198  0.1342  0.0887
24123W        W40970   0.294   2.016  12.533 -0.2124 -0.3925 -0.2689
24124W        W40971   1.134  17.550   2.901 -0.0041 -0.1248 -0.1346
24125W        W40972   8.612   3.917  11.667 -0.0353  0.0136 -0.2411
24126W        W40973   4.847   1.104   9.693 -0.1154 -0.0978 -0.0599
24127W        W40974   5.096  16.937   0.068 -0.1070  0.2746  0.1046
24128W        W40975   2.414  11.613   4.700 -0.2715 -0.2585  0.0587
24129W        W40976   5.588   6.163   0.081  0.1456  0.0424  0.1247
24130W        W40977   6.220   2.100   5.057  0.2668 -0.1196  0.0785
24131W        W40978   2.342  14.976   2.464  0.0710 -0.0373  0.1394
24132W        W40979   1.267   6.256  11.660 -0.0233  0.1378  0.0325
24133W        W40980  16.007  17.754  14.595 -0.1283  0.0397 -0.1247
24134W        W40981   2.251  14.949   3.575 -0.0274  0.1658  0.2617
24135W        W40982  14.159   1.201  13.069 -0.1880 -0.1451  0.3469
24136W        W40983   2.450   2.052  11.832  0.0197  0.3722  0.2797
24137W        W40984   1.201  17.438  11.854  0.1424 -0.1693  0.1072
24138W        W40985   2.898   5.782  13.876  0.2270 -0.2288  0.2864
24139W        W40986  15.417   6.588   1.695 -0.1992 -0.0566  0.1383
24140W        W40987   3.130  15.720   0.427  0.4590 -0.1682  0.1097
24141W        W40988   7.699  16.217   2.222 -0.2197  0.1128 -0.0199
24142W        W40989   8.415  19.623   3.862  0.0292  0.0131 -0.1405
24143W        W40990   3.710   7.207   3.835  0.1473  0.2553 -0.0033
24144W        W40991  17.505  17.721  12.872 -0.0426  0.1808  0.0558
24145W        W40992   5.818   4.673   2.963  0.1194 -0.2935  0.2554
24146W        W40993   9.854  11.164   4.482 -0.2228  0.1543  0.3920
24147W        W40994   2.107   2.129   2.153  0.0713  0.1044 -0.0899
24148W        W40995  19.251  16.955  10.117 -0.0337  0.2071  0.1726
24149W        W40996  10.840  14.582   5.858 -0.2932  0.1207 -0.0424
24150W        W40997   9.946   0.290  11.625 -0.1773 -0.0627 -0.0597
24151W        W40998   2.793   0.326  13.912 -0.3048  0.0139  0.2253
24152W        W40999  11.918  14.161   4.101  0.1746  0.2178  0.0118
24153W        W41000   3.280  11.019  14.124 -0.0873 -0.0071 -0.1522
24154W        W41001   1.934  15.920   4.777 -0.3121  0.0052  0.1292
24155W        W41002  12.268   9.136   1.906  0.1876  0.2461  0.0297
24156W        W41003   5.826   4.814  10.841 -0.1315 -0.0874  0.0574
24157W        W41004   0.424  11.906   1.482  0.0616 -0.0197 -0.2357
24158W        W41005   0.329  17.284   2.306  0.3185  0.1020  0.0882
24159W        W41006   7.774   5.568   2.829  0.0297 -0.0022  0.0585
24160W        W41007  10.563  15.371   0.050 -0.2055  0.0482  0.2206
24161W        W41008  16.968   2.769   3.381 -0.2390 -0.0625 -0.0144
24162W        W41009  17.902  12.205  13.385 -0.0286  0.1680 -0.1996
24163W        W41010  11.588  16.561   5.455  0.1170  0.1110 -0.0954
24164W        W41011  11.408  11.826   0.150  0.3176 -0.1977  0.2170
24165W        W41012   9.942   8.458   1.740 -0.0282  0.4158 -0.1305
24166W        W41013   9.661  10.959   1.134 -0.2770 -0.2233 -0.0533
24167W        W41014   9.141   9.050  11.396 -0.2004  0.0158  0.3502
24168W        W41015   4.982  19.449   1.031  0.1372  0.1937 -0.1496
24169W        W41016   7.529  16.385   1.714 -0.2114 -0.1101 -0.0937
24170W        W41017  10.755  14.421   0.825 -0.0166  0.0730  0.0549
24171W        W41018  18.031  17.575  11.645  0.0447 -0.0783  0.2432
24172W        W41019   3.418  17.536  12.337  0.3370  0.1649 -0.1199
24173W        W41020   5.638  14.940   1.777  0.1050  0.2189 -0.2253
24174W        W41021   7.451   4.659  13.761 -0.0430 -0.1656 -0.2724
24175W        W41022  14.487  18.606   2.455  0.1924 -0.0901 -0.0545
24176W        W41023  11.972   2.785  12.513 -0.1294  0.4248 -0.0935
24177W        W41024   7.110   1.343   2.288  0.0708 -0.0714  0.1471
24178W        W41025  14.534   3.451  10.197  0.3781 -0.1368  0.1682
24179W        W41026   6.979  16.701   2.275  0.0210  0.0365  0.2495
24180W        W41027  10.091  11.353  10.536 -0.1804  0.0545 -0.0964
24181W        W41028   6.670  16.280   3.829 -0.1102  0.2398  0.0118
24182W        W41029   8.306  18.677   1.640 -0.1113  0.2443  0.2296
24183W        W41030  15.263   7.211   1.145 -0.3647  0.3112  0.1936
24184W        W41031   2.238   9.392   0.907  0.0314  0.4188 -0.1554
24185W        W41032  10.059   9.319   9.274  0.0121 -0.1201  0.1543
24186W        W41033  14.300  18.670  14.304 -0.1287 -0.0509 -0.3681
24187W        W41034  12.959   9.419   2.576  0.0023 -0.0795 -0.1339
24188W        W41035   3.155   7.634   0.279 -0.0141 -0.0945 -0.0684
24189W        W41036   8.339  18.929  13.841  0.1711  0.0771 -0.1282
24190W        W41037  15.157  13.892  11.861 -0.0942 -0.1189 -0.1470
24191W        W41038  16.538   7.143  10.368  0.0901 -0.1097 -0.0162
24192W        W41039  12.986   3.285   1.722  0.2321 -0.1722  0.0567
24193W        W41040  15.743  14.663   4.719  0.3157  0.2550  0.1063
24194W        W41041   4.602  17.270   9.870  0.1286  0.1018 -0.0274
24195W        W41042  14.061  12.681  13.906  0.2330  0.4297 -0.0147
24196W        W41043   3.333  10.937   4.669 -0.0806  0.1547  0.0237
24197W        W41044   6.496   9.750   2.592 -0.1431  0.1385  0.0089
24198W        W41045  13.849   5.758  10.062  0.1568 -0.0936 -0.1588
24199W        W41046   2.933  10.156   5.033  0.0663 -0.0664 -0.1938
24200W        W41047   1.914   2.490   0.234  0.0356 -0.1253 -0.1147
24201W        W41048  11.756   9.976  14.366 -0.0895  0.5159 -0.0585
24202W        W41049  19.108   0.034  12.592  0.4726 -0.4126 -0.3739
24203W        W41050  12.060  19.363   0.361 -0.3753 -0.1123 -0.2506
24204W        W41051  11.673  16.866  13.391  0.1279 -0.1409  0.3391
24205W        W41052  14.826  11.936   2.157 -0.0495 -0.0179  0.1780
24206W        W41053  15.724  18.277   0.114 -0.0490  0.0062 -0.0693
24207W        W41054   9.792   3.192  10.075 -0.1951  0.0758 -0.0052
24208W        W41055   7.354   7.186  11.694 -0.3733 -0.0878  0.0102
24209W        W41056  10.125  12.804  14.222 -0.0417  0.0572 -0.1158
24210W        W41057   8.742   3.732  11.232 -0.0895  0.3981  0.1152
24211W        W41058  15.866   4.967  11.670 -0.0049 -0.0099 -0.1570
24212W        W41059   9.030   4.708  13.197  0.0049  0.3891 -0.0251
24213W        W41060   5.556   9.992  11.879  0.1308 -0.0256  0.0507
24214W        W41061   5.539  12.851   9.353 -0.2367 -0.0180  0.1624
24215W        W41062   8.958  19.192   3.162 -0.2378  0.2192  0.1389
24216W        W41063  18.433  11.448   0.664  0.1508 -0.3325  0.2292
24217W        W41064  13.595  16.213  11.525 -0.2674  0.1159 -0.5543
24218W        W41065  19.485   9.977  11.470 -0.0753  0.1330 -0.1951
24219W        W41066   9.182   7.827  11.460  0.2323  0.0503  0.1589
24220W        W41067   8.056   4.172  11.995 -0.2326 -0.1391 -0.0962
24221W        W41068  15.131   6.985   1.629  0.2322 -0.0661 -0.1930
24222W        W41069   0.041   6.242   2.808 -0.0725 -0.0605  0.2907
24223W        W41070   0.640  18.518  11.349  0.2597 -0.1099  0.1632
24224W        W41071  13.568  12.869  12.771  0.0533  0.1029 -0.0511
24225W        W41072  16.435   9.644  12.504  0.0467 -0.0961  0.0527
24226W        W41073   7.971  17.822  11.044 -0.1780 -0.0374 -0.0370
24227W        W41074   5.066   3.550  10.131 -0.0212  0.1062  0.2185
24228W        W41075   4.282   8.382  10.308  0.0776 -0.3354  0.0095
24229W        W41076  16.022  18.922  13.655 -0.0200 -0.0385 -0.0266
24230W        W41077   5.354   1.883   4.825 -0.0211  0.1638 -0.3697
24231W        W41078   5.261   5.466   9.956  0.0506  0.1056 -0.3889
24232W        W41079   0.943   1.511  12.095  0.0235 -0.1917 -0.0269
24233W        W41080   1.058  16.533   3.828  0.2016  0.0463  0.0545
24234W        W41081  11.837  11.595   1.070 -0.0412 -0.1409 -0.2191
24235W        W41082   3.547   9.317  13.223  0.0581  0.1438 -0.2105
24236W        W41083  12.617   2.714  11.600  0.0058 -0.2552  0.2004
24237W        W41084   3.885  11.111  12.810  0.0998 -0.2171 -0.1192
24238W        W41085  14.442  11.568  10.122  0.1096  0.2490 -0.1502
24239W        W41086  14.092  17.553   3.885 -0.0598  0.3300 -0.0622
24240W        W41087  19.005   1.339  13.370 -0.2601 -0.2830 -0.0259
24241W        W41088   8.347  11.041  13.639  0.0618  0.2712 -0.0534
24242W        W41089   5.302  11.894   0.078 -0.0399  0.1047 -0.1129
24243W        W41090  13.029  19.610   0.784 -0.1980  0.1184 -0.1859
24244W        W41091  10.177  14.635   1.519  0.0932  0.3532  0.0428
24245W        W41092  13.692   1.916   4.362  0.2746  0.1280 -0.1206
24246W        W41093  14.440  15.185  13.566  0.3727 -0.2440  0.0619
24247W        W41094   5.397  15.267   0.220 -0.0150 -0.0195 -0.1480
24248W        W41095   4.031   8.225   2.053  0.0299 -0.0454 -0.1789
24249W        W41096  12.550   5.213   2.053  0.0051 -0.3199 -0.2158
24250W        W41097  16.589  12.391   3.448 -0.3306 -0.1258 -0.1436
24251W        W41098   0.131   0.600   2.100 -0.2885 -0.1666 -0.0240
24252W        W41099  18.720   0.132   1.768 -0.1963 -0.2538 -0.1627
24253W        W41100   6.587   7.891   2.774 -0.2080  0.0013 -0.0962
24254W        W41101   9.064   5.512   3.509 -0.2028  0.1900  0.0751
24255W        W41102   4.634   6.293  11.156 -0.2443  0.1807 -0.0696
24256W        W41103  17.889   7.320   5.282 -0.2556  0.0390  0.0190
24257W        W41104   4.182  19.469  12.372  0.1242  0.2457 -0.0738
24258W        W41105  13.404   2.517  13.385  0.0878 -0.2846  0.3399
24259W        W41106   2.417  19.166   0.553  0.0518 -0.6002 -0.3496
24260W        W41107   3.687   2.790   3.980  0.0791 -0.0808  0.0420
24261W        W41108  15.426   7.194   5.283 -0.0235  0.3375 -0.2416
24262W        W41109   4.553  15.674   0.501  0.1115  0.0074 -0.1732
24263W        W41110   9.370   4.040  12.416 -0.0752 -0.0323 -0.1635
24264W        W41111  14.923   0.653  12.708  0.1379  0.0122  0.0949
24265W        W41112   2.478   8.245   4.844  0.0415  0.0743 -0.3415
24266W        W41113  16.596  12.483  10.968 -0.1966  0.0149  0.1929
24267W        W41114   3.391  15.291   2.615 -0.0459  0.2659 -0.0050
24268W        W41115  14.759   9.592  13.539 -0.0974 -0.0287 -0.0306
24269W        W41116  15.755   6.873  12.548  0.2431  0.0543  0.4297
24270W        W41117   1.544   7.770   5.568  0.0467 -0.0013  0.0328
24271W        W41118   7.561  17.006   2.683 -0.1395  0.0509 -0.1665
24272W        W41119   4.321  16.970  14.428 -0.0190  0.0163 -0.0687
24273W        W41120  12.473   7.987   0.097 -0.3102  0.0843  0.0276
24274W        W41121  10.663  13.221  11.973 -0.0895 -0.3501 -0.1473
24275W        W41122  17.296   4.769  14.033  0.1003  0.2812  0.1628
24276W        W41123   3.006   3.888  13.310 -0.1654  0.0207 -0.3640
24277W        W41124  18.642  12.080  12.363 -0.0466  0.1490 -0.2005
24278W        W41125   7.232   3.000  14.524  0.2796  0.1235  0.0442
24279W        W41126  15.813  15.528   4.564 -0.0914 -0.0398  0.3455
24280W        W41127   5.683   7.821  13.600  0.0168 -0.0695 -0.2419
24281W        W41128   2.972   3.239   9.960  0.0910  0.0281  0.0047
24282W        W41129   9.874   4.804  10.455  0.1015 -0.0272  0.0782
24283W        W41130  18.395   5.715  10.118  0.2105 -0.2218 -0.0699
24284W        W41131   5.244  14.118   4.559  0.1696  0.2965 -0.0479
24285W        W41132  18.153  12.527  13.638 -0.0448  0.0413 -0.0323
24286W        W41133   4.777  11.765   0.252  0.0845  0.2518  0.1208
24287W        W41134   4.200   5.342  12.755  0.2376  0.1471  0.1062
24288W        W41135   7.275   2.358   4.286  0.2593  0.1904  0.2052
24289W        W41136  11.581  14.355   4.964 -0.0523 -0.4652 -0.0101
24290W        W41137   9.227  14.578  11.767 -0.2029  0.0537 -0.0159
24291W        W41138   2.819  14.734  13.227 -0.0187 -0.0245 -0.1502
24292W        W41139  16.535  11.462  14.089 -0.1499  0.1399 -0.2051
24293W        W41140  13.046   3.845   0.543  0.0037 -0.2485  0.2526
24294W        W41141   0.394   5.969   4.501  0.1772  0.1799  0.2574
24295W        W41142  10.509   2.454  11.754 -0.1215  0.0828  0.2310
24296W        W41143   3.972   0.363   3.330 -0.0147  0.1500 -0.2285
24297W        W41144  16.075   6.680   1.012 -0.4821 -0.0940 -0.2606
24298W        W41145  12.100   1.475   1.080  0.1350 -0.1256 -0.1197
24299W        W41146   5.689   1.906  10.356 -0.3796  0.0532 -0.2506
24300W        W41147   9.369  15.485  13.710 -0.1805 -0.0084  0.1653
24301W        W41148  17.980  12.705  14.089  0.1983  0.1927  0.0747
24302W        W41149  19.601  15.970  12.430  0.2344  0.0312  0.2186
24303W        W41150  17.476   0.548   0.482  0.0600 -0.0031  0.3859
24304W        W41151  10.990   6.391   0.397 -0.4889  0.0496  0.3269
24305W        W41152   6.888   0.653   5.096  0.1236 -0.0842  0.2700
24306W        W41153   8.164   2.177   1.430  0.2620  0.0641  0.2643
24307W        W41154  16.619   2.791   3.933  0.0020  0.1411  0.4951
24308W        W41155  14.604  11.608   0.007  0.2533  0.3558 -0.1149
24309W        W41156  19.520   4.210  13.985  0.1473  0.1835  0.0671
24310W        W41157   0.562   9.841   1.412  0.1243  0.0960 -0.1328
24311W        W41158  15.024  13.210   5.488  0.1033 -0.0887  0.1284
24312W        W41159  16.974  11.739  10.469  0.0984  0.0993 -0.2934
24313W        W41160  14.951   4.759  12.187 -0.0356 -0.1072 -0.0965
24314W        W41161  15.903  19.372  13.438 -0.2824  0.5666 -0.2909
24315W        W41162  17.882   4.553   1.644  0.0934 -0.1804 -0.3236
24316W        W41163   1.745  17.810   1.208 -0.1450 -0.1081 -0.2110
24317W        W41164  10.818   4.612   0.386  0.1321 -0.1958 -0.3391
24318W        W41165  12.860  19.286  11.612  0.1382 -0.0055  0.1877
24319W        W41166   4.558   4.732   1.930  0.6148 -0.0134  0.0671
24320W        W41167   0.393  10.590   4.381  0.1621 -0.0764  0.0802
24321W        W41168   7.082  16.864  11.907 -0.0535 -0.2360 -0.2247
24322W        W41169   4.809   2.219   1.987  0.0020  0.2867  0.0485
24323W        W41170   5.015  16.714   3.471 -0.1666 -0.1981  0.1775
24324W        W41171  17.630  13.686   0.643  0.1304 -0.1530 -0.3926
24325W        W41172   5.591   0.363  11.557  0.0330 -0.1058  0.1566
24326W        W41173  10.830   1.093   1.895 -0.1199 -0.0378 -0.0816
24327W        W41174   3.685   3.988   0.200 -0.2498 -0.0623 -0.2899
24328W        W41175  11.058   5.057   1.213  0.4359  0.0211  0.2083
24329W        W41176   4.158   2.438   3.918  0.2242 -0.1001 -0.0785
24330W        W41177  13.956   6.259  10.511  0.0334 -0.0815  0.4017
24331W        W41178  13.160  15.167   4.895  0.0995  0.0091  0.3880
24332W        W41179   9.197  11.092   1.379  0.0704 -0.1899 -0.1201
24333W        W41180  12.076   2.416   2.156  0.0799 -0.4378  0.1679
24334W        W41181  13.254  17.634   2.506 -0.2004 -0.1150 -0.0688
24335W        W41182   8.859  11.700  11.122 -0.0270 -0.0506  0.1773
24336W        W41183  19.335   0.469   3.921 -0.3850  0.3291 -0.0347
24337W        W41184  15.348  10.518   3.968 -0.3455  0.1190  0.3633
24338W        W41185   0.636  19.445  11.345 -0.0709 -0.1792  0.1765
24339W        W41186   3.519   4.362  11.787 -0.0249  0.0586 -0.1654
24340W        W41187   7.418   9.727   1.104  0.1046  0.0581 -0.2208
24341W        W41188  14.853   4.922  13.998  0.0318 -0.1067 -0.1111
24342W        W41189  16.584   5.749  14.508 -0.2447  0.2012  0.0892
24343W        W41190  12.877  17.167  13.836  0.1313  0.1179 -0.2039
24344W        W41191  11.390  18.955   2.682  0.2139  0.4167  0.2151
24345W        W41192   2.015  11.752  11.365 -0.0466 -0.3108 -0.2460
24346W        W41193   0.737   2.350   4.076  0.0003 -0.3848 -0.0522
24347W        W41194  15.254   9.828   0.652 -0.2127  0.2736 -0.3614
24348W        W41195  13.401   1.292   2.191  0.0513 -0.0153 -0.1467
24349W        W41196  11.742  17.188   0.881 -0.1018 -0.1725 -0.4173
24350W        W41197   7.810  15.003  10.846  0.2486 -0.5482  0.1145
24351W        W41198   0.237   4.317  10.350  0.0099 -0.0389 -0.0018
24352W        W41199  13.369   0.742   3.148  0.1342 -0.2014  0.1653
24353W        W41200   4.111  15.801   2.406  0.1907  0.3826  0.1718
24354W        W41201   4.224   7.580   5.221 -0.0016  0.2216  0.0226
24355W        W41202   1.308  10.412   4.946  0.0940 -0.2120 -0.0645
24356W        W41203   1.563  10.052  13.834 -0.0239  0.0166 -0.3984
24357W        W41204  18.437   6.532   5.532  0.1555  0.2753 -0.1184
24358W        W41205  14.883  11.684   3.612 -0.2054 -0.1316  0.1428
24359W        W41206  17.357   3.582  14.024  0.1137  0.3975  0.0208
24360W        W41207  11.301  14.023   1.381  0.0099 -0.2442 -0.1142
24361W        W41208   3.629   4.097   2.964 -0.1713  0.2272  0.2316
24362W        W41209  10.936   2.894   1.920  0.0953  0.0237  0.3379
24363W        W41210  11.083   5.226   9.951 -0.2062  0.2316 -0.1751
24364W        W41211   6.636  16.268  12.616  0.0945 -0.0805  0.0410
24365W        W41212   8.724   6.900   4.582  0.0809  0.0034  0.1849
24366W        W41213  18.321  16.058   0.125  0.2771 -0.2340  0.1336
24367W        W41214   9.646  13.791  11.535 -0.2096  0.2568 -0.3012
24368W        W41215   4.661  19.373   4.324 -0.0474  0.0557 -0.0953
24369W        W41216  11.673  13.818   2.916  0.1884 -0.0918  0.0329
24370W        W41217  12.030   7.914  10.225 -0.1509  0.2488  0.0209
24371W        W41218  15.740   9.784  14.535 -0.1808  0.1802  0.0964
24372W        W41219   8.106   5.761   3.257  0.0623 -0.1202  0.4321
24373W        W41220  11.113   1.951   0.119 -0.0375  0.2632 -0.0173
24374W        W41221  10.425  14.119   3.849  0.2232  0.0141 -0.0420
24375W        W41222  12.875   7.107   3.982 -0.2368  0.0302  0.0943
24376W        W41223  16.817   7.585   2.948  0.0944 -0.2482  0.1599
24377W        W41224  16.973   5.030  12.514  0.0354 -0.0640  0.0212
24378W        W41225   0.923  13.528   2.762 -0.1193 -0.0280  0.0957
24379W        W41226  15.718   3.324   3.742  0.1613 -0.0462  0.0302
24380W        W41227   4.330  19.072   2.326  0.2772  0.0933 -0.0219
24381W        W41228  14.848  16.204   5.628  0.3070  0.0799 -0.0480
24382W        W41229  16.113  18.864   1.014 -0.2629  0.0884 -0.2833
24383W        W41230   6.806   0.676  12.154  0.4469 -0.0083 -0.2656
24384W        W41231  16.779   4.446   0.337  0.3387 -0.1441 -0.2522
24385W        W41232   8.974  14.175   2.048 -0.0478  0.0617  0.2909
24386W        W41233  10.958   2.613  11.546 -0.1748  0.1292 -0.0030
24387W        W41234   4.642  12.577   1.460  0.2030  0.1376  0.0982
24388W        W41235  16.447   9.811   3.001  0.0093  0.1404 -0.0268
24389W        W41236   5.711  13.247   1.774  0.1297  0.2332  0.2597
24390W        W41237  17.963   3.566  11.903  0.2500 -0.0683 -0.3352
24391W        W41238   7.702   6.888  10.502  0.1716 -0.1939 -0.1115
24392W        W41239  16.319  18.488   5.203 -0.1874 -0.0207 -0.1179
24393W        W41240   0.408  14.412  12.495 -0.1618  0.0042 -0.0266
24394W        W41241  18.217  15.514   2.574  0.0537  0.1687 -0.2075
24395W        W41242   3.299   7.014  11.057 -0.2042 -0.2084  0.0900
24396W        W41243  15.701   8.366  14.034  0.0028  0.0057  0.2014
24397W        W41244  18.406   6.851   3.347 -0.0845 -0.0956  0.2046
24398W        W41245  13.190   9.526   3.892 -0.1858  0.1630  0.0246
24399W        W41246  18.733  14.542  11.868  0.0467 -0.0543  0.2012
24400W        W41247  10.772   6.515   4.877 -0.1084 -0.3646  0.0091
24401W        W41248  15.338  16.842   9.370 -0.0483 -0.2350 -0.2813
24402W        W41249  15.960  15.248   1.048 -0.2385  0.1881 -0.0543
24403W        W41250   2.719   0.812  13.862 -0.1105  0.1183  0.0382
24404W        W41251   9.671   3.879  10.772  0.1091 -0.0298 -0.1922
24405W        W41252  14.969   2.751  11.756 -0.1034  0.0796  0.1303
24406W        W41253   5.117   7.246   5.141 -0.0241 -0.0566 -0.2867
24407W        W41254  14.372   3.692   4.469  0.1580  0.1241 -0.1610
24408W        W41255  12.512   5.088   9.632 -0.1430 -0.1526  0.0364
24409W        W41256  10.714   7.359   2.774 -0.1264  0.1237 -0.0997
24410W        W41257  19.568   1.355  10.631  0.2230  0.2753 -0.2902
24411W        W41258   6.893   3.820   4.946 -0.1870  0.0038 -0.1141
24412W        W41259  15.601  12.928  10.165 -0.2447  0.2100  0.1340
24413W        W41260   7.865  10.594  11.739 -0.0250 -0.1509  0.2699
24414W        W41261   2.428   5.890   4.149  0.2342  0.1356 -0.2254
24415W        W41262   2.072  15.418  10.291 -0.1164  0.1321  0.0425
24416W        W41263  11.250   7.132  14.303 -0.0985 -0.1234 -0.0201
24417W        W41264   3.044  19.493   4.369 -0.3243  0.1976  0.3091
24418W        W41265   4.354  16.396  12.336  0.0176  0.0263  0.0931
24419W        W41266   9.018   3.310   3.676  0.0257 -0.0677  0.0857
24420W        W41267   3.473   8.853  11.340  0.1607  0.0271 -0.0370
24421W        W41268  13.641   5.738   3.477  0.1661 -0.0526 -0.0577
24422W        W41269   8.117  19.631  14.371  0.1902 -0.1537  0.2610
24423W        W41270  13.231  12.652  12.110  0.1027  0.2608  0.0824
24424W        W41271  11.950  11.530  12.189 -0.0385 -0.2487 -0.0320
24425W        W41272   6.421   7.868   2.276  0.0130 -0.1489  0.2242
24426W        W41273   8.016   8.698   4.320  0.0315  0.1777 -0.0477
24427W        W41274   4.066  17.327  10.266  0.1061  0.1705  0.0680
24428W        W41275  14.795   1.944  11.209  0.0028  0.1782 -0.0407
24429W        W41276   1.767   2.665   5.241  0.1322  0.2527 -0.3403
24430W        W41277   6.031  15.845   2.749  0.1316 -0.0311  0.0607
24431W        W41278  17.709   4.852   0.424 -0.0091  0.3761 -0.1463
24432W        W41279   5.629   7.660  12.256  0.1139 -0.2209 -0.1509
24433W        W41280   3.549  17.933   2.089 -0.3977  0.0319 -0.1664
24434W        W41281   8.528   8.746  12.071 -0.1483  0.2863 -0.3537
24435W        W41282   9.996   7.860  10.615  0.3792  0.0049  0.0432
24436W        W41283  18.183  14.157  11.084  0.0419 -0.0994  0.0986
24437W        W41284  14.547  14.702   4.300  0.0901 -0.0124  0.0257
24438W        W41285   2.910  12.705   0.346 -0.4243 -0.2494  0.0323
24439W        W41286  12.317   2.489  12.356 -0.1077  0.0087 -0.2055
24440W        W41287   4.998  12.344   3.258  0.0102 -0.2807  0.4965
24441W        W41288   1.253   8.449   5.525  0.0987 -0.1775  0.1814
24442W        W41289  12.460  11.252  13.851 -0.0237  0.0665  0.3632
24443W        W41290  16.107  14.074   3.735 -0.1905  0.0499 -0.1067
24444W        W41291  16.091   9.532   3.272 -0.0167  0.2210  0.1133
24445W        W41292   5.612  17.979  10.305 -0.0191 -0.0690 -0.2082
24446W        W41293  19.283   1.288   4.536 -0.2543 -0.2857  0.4793
24447W        W41294   5.211  15.678  11.257 -0.0768  0.4237 -0.2203
24448W        W41295  14.194  11.923   9.901  0.3797 -0.1924  0.0728
24449W        W41296   3.198   6.012   2.753 -0.1178  0.2308  0.0498
24450W        W41297   4.917  13.474   1.967  0.0103 -0.1748 -0.1773
24451W        W41298   6.448  17.866   1.856 -0.1172  0.1484 -0.0469
24452W        W41299  11.366   5.966   2.393  0.0643 -0.0464 -0.0959
24453W        W41300   7.309   7.373   1.161 -0.1253  0.3538 -0.2952
24454W        W41301  12.756  12.741  12.593  0.4363 -0.3307  0.0939
24455W        W41302  16.080   6.071  10.985  0.1843 -0.2906  0.1044
24456W        W41303  17.780   5.425   1.598 -0.3120  0.1584 -0.0302
24457W        W41304  11.101   8.626  13.146  0.3374 -0.2419  0.2083
24458W        W41305   5.073  19.146   4.455  0.1354 -0.0942  0.2659
24459W        W41306  19.302  13.829  10.430  0.0774 -0.0374  0.1235
24460W        W41307   3.642  18.158   1.222 -0.0548 -0.4036 -0.2010
24461W        W41308   7.993  19.550  10.163  0.2348 -0.1082  0.1340
24462W        W41309  10.999   7.277   9.733  0.3727  0.0228 -0.1081
24463W        W41310   7.335  10.483   1.626  0.0127  0.0661  0.0223
24464W        W41311   3.691  18.745  12.781  0.2548 -0.2492  0.0330
24465W        W41312  18.650   9.745   2.180 -0.0779 -0.0118 -0.2682
24466W        W41313   8.917   9.830   0.668 -0.0045  0.2574  0.1126
24467W        W41314  13.079  13.979  14.590 -0.1761 -0.2035 -0.0807
24468W        W41315   8.732   1.738   0.971  0.1846  0.0550  0.0712
24469W        W41316   1.126   9.672  11.966  0.0080  0.1061 -0.1609
24470W        W41317  11.021   8.673   5.415  0.0144 -0.1369 -0.1373
24471W        W41318   3.431  17.406  13.268  0.0571  0.1790  0.1366
24472W        W41319  12.254  18.229  11.066  0.0288 -0.1489 -0.1206
24473W        W41320   2.598  12.969   1.303 -0.2515 -0.1176  0.2603
24474W        W41321  14.737  10.120  13.555  0.2437  0.1621 -0.0801
24475W        W41322   2.449  10.327  10.712  0.0989  0.2725 -0.3354
24476W        W41323   9.290  12.319  14.061  0.2776 -0.3023  0.4378
24477W        W41324  14.104   1.118   9.449  0.3199  0.1800  0.0721
24478W        W41325  14.055   9.861  12.571  0.1058 -0.3004 -0.0765
24479W        W41326  18.041   8.516   3.046  0.2536 -0.1007  0.2891
24480W        W41327   1.535   2.127  12.649 -0.1350 -0.1052  0.0755
24481W        W41328   0.991   0.949  13.256 -0.1532 -0.0497  0.1266
24482W        W41329   7.776   6.801   5.869  0.0237 -0.1328 -0.0328
24483W        W41330  13.667  14.552   2.554 -0.1813  0.1235  0.1086
24484W        W41331   7.242   1.992  11.874  0.1783 -0.1099  0.0172
24485W        W41332   7.958   8.471   1.686 -0.3700 -0.2242 -0.0736
24486W        W41333   9.367  17.565  12.447 -0.0605 -0.2642 -0.2711
24487W        W41334   0.067  18.060  12.972  0.3110 -0.2212 -0.1143
24488W        W41335  14.027  17.030   3.652  0.1280  0.3009 -0.1261
24489W        W41336  14.651  12.219  12.530 -0.4197 -0.3778  0.0207
24490W        W41337  14.392   8.231  10.999  0.0318 -0.2689 -0.0393
24491W        W41338  11.483   8.609   2.905  0.1698 -0.3583  0.1405
24492W        W41339   5.034   9.785  11.266  0.1750  0.0042  0.0179
24493W        W41340   9.058  14.445  13.862 -0.0031  0.0863  0.0582
24494W        W41341   5.606  14.087  11.114 -0.1470  0.0634 -0.2300
24495W        W41342   4.578  11.403  13.773  0.2631 -0.0481  0.1687
24496W        W41343  18.815   9.362   9.750  0.1997  0.1613 -0.3051
24497W        W41344  10.957   1.053  12.063  0.1197 -0.1977 -0.5193
24498W        W41345   3.861   4.429   2.018  0.0634 -0.1564  0.0930
24499W        W41346   3.481  16.973   4.298 -0.1557  0.0041  0.1228
24500W        W41347  19.145  16.171  10.400  0.0260 -0.0240  0.0901
24501W        W41348   7.218  10.998   8.753  0.2813 -0.1664 -0.1714
24502W        W41349   4.356  18.673  13.356  0.0280 -0.0899 -0.1831
24503W        W41350  10.624   0.760  12.763 -0.0900  0.1965 -0.1419
24504W        W41351   3.679  12.743   0.393 -0.1042 -0.1693  0.0670
24505W        W41352  10.055  15.376  12.822  0.0151  0.2986 -0.1650
24506W        W41353   6.845  14.063   0.652 -0.3484  0.0586  0.1999
24507W        W41354  13.645  13.525   2.999  0.2982  0.0677 -0.2060
24508W        W41355   9.965   5.676  12.763 -0.2391 -0.0284 -0.1751
24509W        W41356   3.984  13.488   1.622  0.1741  0.2471 -0.1236
24510W        W41357   9.089   2.632  13.084  0.2661  0.1086  0.1456
24511W        W41358  11.268   7.804   4.712 -0.3292  0.3326  0.1480
24512W        W41359   9.983   4.683   1.515  0.0029  0.1443 -0.1105
24513W        W41360   4.615  12.733   3.630  0.0506  0.5029  0.0475
24514W        W41361  12.009   7.659   1.553 -0.0581  0.2295  0.1301
24515W        W41362   9.479   2.228  10.435  0.1698  0.3399  0.3317
24516W        W41363   7.184  16.754  13.284  0.4316  0.1601 -0.0371
24517W        W41364   4.753  11.712   4.823  0.3074  0.4082 -0.0775
24518W        W41365   9.386  16.288  11.176 -0.0597  0.4102 -0.0329
24519W        W41366  10.891   9.652   1.369  0.1135 -0.2230 -0.0392
24520W        W41367  11.190   9.379   3.475  0.2388  0.0882 -0.0614
24521W        W41368  11.003   7.426  13.671 -0.0330  0.0699  0.0011
24522W        W41369  14.067  16.465   2.863 -0.1411  0.1192  0.2349
24523W        W41370  10.766  11.626   9.984 -0.1503 -0.3385  0.1710
24524W        W41371  17.651  19.196   3.190  0.0382  0.1719 -0.2904
24525W        W41372   9.656  15.031  13.770 -0.0195 -0.4384  0.1722
24526W        W41373   8.099  15.557   0.185  0.0557 -0.0988  0.5081
24527W        W41374  18.698   9.705   2.958 -0.0665  0.0186 -0.1388
24528W        W41375   1.063   2.822   0.776 -0.1092  0.4922 -0.2699
24529W        W41376  18.233   3.805  14.507  0.0092  0.0571  0.3852
24530W        W41377  15.146  10.550  13.251  0.0908  0.0913  0.0417
24531W        W41378   1.623  19.228   0.104 -0.1524 -0.0783  0.0799
24532W        W41379  17.432  10.926   2.141  0.2606  0.0063  0.1666
24533W        W41380   1.847  19.105  10.498  0.1381  0.0042 -0.1342
24534W        W41381  15.800  18.706   1.415  0.1009  0.2983 -0.1000
24535W        W41382   4.583   5.178  12.048  0.1465  0.1723  0.0316
24536W        W41383  12.083   5.487  13.101 -0.1238  0.1367  0.0871
24537W        W41384   7.595   4.203  13.738  0.3174  0.1717 -0.1374
24538W        W41385   5.883   8.397  13.581 -0.0812  0.4470  0.2868
24539W        W41386  16.221  10.036  14.495 -0.1570  0.0157 -0.0822
24540W        W41387   2.575   6.976  13.969  0.0991  0.0463  0.2011
24541W        W41388   0.353  14.410  10.915  0.3351 -0.1479  0.2880
24542W        W41389   0.641  15.382   2.218  0.1393  0.0567 -0.0960
24543W        W41390  10.620   4.660  13.609  0.1959  0.1957  0.2811
24544W        W41391   5.925   6.383   4.590  0.1801  0.1308 -0.1736
24545W        W41392   2.492  15.290  14.521  0.1819  0.2338  0.2845
24546W        W41393   3.211   6.728   0.862  0.0730  0.3488 -0.2980
24547W        W41394  13.377   8.690  12.210 -0.1388 -0.2010  0.3200
24548W        W41395   3.260  17.718  10.455 -0.1819  0.0588  0.3820
24549W        W41396  18.451  18.946   1.387 -0.0611  0.0349  0.0533
24550W        W41397  13.374   9.198   2.629  0.1962 -0.1453  0.2318
24551W        W41398   7.887   6.740   0.880  0.3463  0.0027 -0.3885
24552W        W41399   2.546   0.951   1.479 -0.1057  0.0245 -0.1142
24553W        W41400  11.616   1.319   1.477  0.0413 -0.1011 -0.2568
24554W        W41401  16.242   4.486  12.151 -0.0936 -0.1503 -0.0802
24555W        W41402   9.620  19.093  10.379  0.0128 -0.4702 -0.0161
24556W        W41403  14.097   9.298  12.058 -0.4101 -0.1116 -0.2813
24557W        W41404   4.320   6.339   5.705 -0.0203  0.1378 -0.2763
24558W        W41405   5.791   6.872   4.567 -0.1440 -0.3711 -0.3531
24559W        W41406   3.314  18.082   0.422 -0.0661  0.0954  0.5223
24560W        W41407   5.189  14.113   2.135  0.0526  0.1639 -0.0576
24561W        W41408   2.213   4.017   2.518 -0.1502  0.1731 -0.0667
24562W        W41409   2.377  13.923  10.275  0.1391  0.2546 -0.1603
24563W        W41410  13.356  15.811  10.187 -0.3076 -0.1125  0.2437
24564W        W41411   1.350   2.611  10.334  0.0969 -0.1246 -0.2766
24565W        W41412  16.405  15.547  10.867  0.1235 -0.1961 -0.1725
24566W        W41413  15.723   5.712  13.707 -0.2286  0.0601  0.0000
24567W        W41414  10.676  17.851  12.617  0.1533  0.1063 -0.0965
24568W        W41415  12.738  18.368   0.216 -0.1498 -0.2477 -0.1001
24569W        W41416   9.298   6.279  12.863  0.0589 -0.0803  0.0447
24570W        W41417  14.332  16.417  11.140 -0.1444  0.0303  0.0695
24571W        W41418   5.414  17.592   4.210 -0.1958 -0.0186  0.1901
24572W        W41419  12.638  13.150   3.141  0.0797  0.1416  0.0137
24573W        W41420   4.502   7.919   4.949  0.1656  0.1969  0.2525
24574W        W41421   1.750  15.004   9.758 -0.0551 -0.0404  0.4714
24575W        W41422  15.831  13.098   0.430 -0.0852 -0.0647 -0.5080
24576W        W41423  19.381  14.974  13.525  0.2646 -0.2698 -0.3076
24577W        W41424  13.319   3.402   0.619  0.1079  0.2722  0.1357
24578W        W41425  16.889  13.662   4.352 -0.0562  0.0922 -0.1799
24579W        W41426  15.065   3.213   1.644 -0.2801  0.3440  0.0040
24580W        W41427   9.015   8.047   0.208  0.2674  0.1103  0.2867
24581W        W41428  15.548   6.001  10.969 -0.0514  0.1057  0.0606
24582W        W41429   9.998  12.197   1.818 -0.1056  0.1367  0.0573
24583W        W41430  10.549   2.293  12.961 -0.1967  0.1044 -0.3108
24584W        W41431  13.907   4.705   9.603 -0.0182 -0.1555 -0.0613
24585W        W41432   5.520  13.480   1.348 -0.0748 -0.2836  0.1846
24586W        W41433   6.842   1.483   2.653  0.3591  0.0414 -0.0589
24587W        W41434   4.055   3.574  13.994  0.0790 -0.0742  0.3356
24588W        W41435   0.752   9.463  11.598 -0.0242 -0.0628 -0.1813
24589W        W41436  12.930   8.868   1.154  0.1589  0.1780  0.0027
24590W        W41437  18.032  17.034   5.072 -0.1217  0.2434 -0.2332
24591W        W41438  15.616  11.580   5.727  0.2027  0.0089 -0.2880
24592W        W41439   8.340   3.302   3.109 -0.1088 -0.0033  0.0448
24593W        W41440  19.317   3.280   0.894 -0.4928  0.2538 -0.1806
24594W        W41441  10.107   5.740   1.062  0.1426  0.1189 -0.1694
24595W        W41442  12.150   0.927   2.175 -0.2957 -0.3325  0.0936
24596W        W41443   2.557  11.882   5.157  0.0713 -0.0423 -0.0445
24597W        W41444  15.116  14.820  14.399  0.0122  0.0895  0.2007
24598W        W41445  12.321   5.471  10.680  0.2379 -0.1011 -0.2674
24599W        W41446   2.928   0.932  10.399  0.1391 -0.0150  0.0028
24600W        W41447  11.613   6.564  14.302  0.1866  0.0963  0.0742
24601W        W41448   9.319  16.383   3.302  0.2768 -0.0813  0.2959
24602W        W41449  16.044   4.976  14.306 -0.3373 -0.0511  0.0129
24603W        W41450  13.746   0.949  13.597 -0.0836  0.0800 -0.0905
24604W        W41451  17.703  10.136   4.440 -0.0412  0.2219  0.4936
24605W        W41452  11.459  13.972   4.635  0.1034 -0.0195  0.1775
24606W        W41453   5.605   2.969  12.590  0.3245 -0.1485  0.1424
24607W        W41454   9.291   4.615  12.424 -0.1225 -0.0863  0.1961
24608W        W41455  13.959   8.468   1.873  0.0990 -0.0744  0.1937
24609W        W41456   9.403   4.840   2.544  0.2786  0.0105 -0.2463
24610W        W41457  17.359  18.167   4.372 -0.0476  0.0206 -0.0631
24611W        W41458  17.335  15.344  13.590 -0.1298 -0.0253  0.1170
24612W        W41459  10.166   5.320  11.513  0.1212 -0.0601 -0.1522
24613W        W41460   1.423   6.815  12.608  0.2393  0.2973  0.2309
24614W        W41461  11.859   9.906   3.450 -0.3812 -0.0493 -0.1289
24615W        W41462   2.366  12.648  10.845  0.0069 -0.0549 -0.0653
24616W        W41463   8.651   1.052  14.331  0.2316 -0.1357 -0.1180
24617W        W41464   9.687  13.165   2.864 -0.2185  0.1315  0.1788
24618W        W41465   1.778   7.337   0.442  0.3372 -0.3527  0.1073
24619W        W41466   4.221  13.210  10.947  0.0049  0.0159  0.1788
24620W        W41467  17.618   5.028  10.557 -0.2848 -0.2262 -0.3655
24621W        W41468   9.909  15.982   2.882  0.0327  0.0957  0.1810
24622W        W41469   4.516  14.348   1.076 -0.0199  0.1448 -0.4606
24623W        W41470   4.045   3.007   0.132 -0.1231  0.1729 -0.0970
24624W        W41471  14.032   1.436   3.568 -0.1078  0.0349  0.0317
24625W        W41472  13.539   6.284  13.199 -0.1750  0.1897  0.1214
24626W        W41473  14.905  11.025   2.377 -0.0061 -0.1575  0.2142
24627W        W41474  16.896  18.350  14.091 -0.2861 -0.1435  0.0073
24628W        W41475  17.255   4.372   2.323  0.0123 -0.2521  0.2141
24629W        W41476   6.761   5.440  12.642  0.3763 -0.1618  0.1234
24630W        W41477   6.814  14.235   1.446  0.0163  0.1171  0.3287
24631W        W41478  19.205   1.791   2.044 -0.1698  0.5037 -0.3428
24632W        W41479  14.709  19.331  13.839  0.1177 -0.1458 -0.3018
24633W        W41480   9.400   3.144   3.403  0.1035  0.0089  0.0337
24634W        W41481  15.534  15.766  10.737 -0.0284  0.0394  0.1379
24635W        W41482  12.002   8.656  13.210  0.1432  0.1299 -0.0083
24636W        W41483  17.069  18.870   3.952  0.0515  0.1021  0.1117
24637W        W41484  13.785  10.372   2.476 -0.1593  0.0533 -0.0712
24638W        W41485  16.356  18.047   3.973 -0.1727 -0.2112  0.1126
24639W        W41486   8.489  16.120  12.962 -0.1636  0.3165  0.0443
24640W        W41487  17.769  14.579  14.462  0.0699 -0.0370  0.0000
24641W        W41488   8.625   2.565  12.234 -0.2934  0.0602  0.2235
24642W        W41489  13.072  10.351  12.942  0.1374  0.4466 -0.0759
24643W        W41490   3.753  11.154   0.842  0.1691 -0.0829  0.0761
24644W        W41491  13.026   1.133   3.027  0.1375  0.0141  0.5325
24645W        W41492  15.292  14.628   3.088  0.4276  0.1258  0.1668
24646W        W41493  16.389   9.546   0.541  0.1116 -0.1316 -0.2003
24647W        W41494   1.225  12.459   2.676 -0.0053 -0.0989  0.1221
24648W        W41495  13.658  15.902   0.071  0.1407  0.2246 -0.1917
24649W        W41496   8.383   3.359  13.502  0.1837 -0.1916 -0.1075
24650W        W41497  18.104  10.325   4.761  0.2674  0.3458 -0.2958
24651W        W41498   9.768   1.471  11.895 -0.0479 -0.2678 -0.1975
24652W        W41499  19.493   2.051  11.172 -0.1685 -0.1364 -0.0731
24653W        W41500  12.831   0.419  11.860  0.1900 -0.1651  0.1241
24654W        W41501  12.396  11.445  12.478 -0.1138 -0.2011 -0.1434
24655W        W41502   7.553  14.484  11.207  0.0357 -0.0657  0.1000
24656W        W41503  15.734  12.394  12.388 -0.2274  0.0312 -0.2409
24657W        W41504  19.222  10.263  12.643  0.0393 -0.3473 -0.1159
24658W        W41505   7.782   2.579  12.146 -0.0334 -0.1212 -0.2815
24659W        W41506  14.909   9.317  13.057  0.0350 -0.2631 -0.2300
24660W        W41507   5.458   0.801  13.559 -0.1421 -0.3589 -0.0187
24661W        W41508   3.313   5.015   1.077  0.0940 -0.1788 -0.2509
24662W        W41509  17.583  11.424   3.537  0.1911  0.0941  0.0056
24663W        W41510  15.509  12.760   4.082 -0.0367 -0.0042 -0.2810
24664W        W41511   7.176   0.731  12.941  0.0990  0.3194  0.0488
24665W        W41512   8.647   7.167   4.173 -0.1534  0.2572  0.1366
24666W        W41513   1.350   4.438  14.574 -0.2195  0.0005  0.3139
24667W        W41514  18.374  13.705   1.659 -0.2091 -0.0850  0.0881
24668W        W41515  18.490   5.736  12.233 -0.1154  0.1431  0.1456
24669W        W41516   1.868  10.163   0.474  0.3141 -0.2650 -0.2008
24670W        W41517  10.278   5.796   2.683  0.0995 -0.1670 -0.1682
24671W        W41518   5.324  17.370  13.989  0.3423  0.1730 -0.0385
24672W        W41519   8.741   2.577   3.569 -0.0166  0.1482  0.0743
24673W        W41520   2.629   3.441   2.127 -0.0681  0.0405  0.1675
24674W        W41521   1.769  18.067   9.395 -0.3013  0.0488  0.0207
24675W        W41522   6.793   5.324   0.202 -0.2458 -0.2502  0.1081
24676W        W41523   8.283   9.671  10.903 -0.3436  0.2900  0.0431
24677W        W41524  10.945   3.463  12.508  0.1444  0.0977  0.0609
24678W        W41525   9.049   2.258  10.877 -0.0327  0.1322 -0.0411
24679W        W41526  15.412  13.481   1.161  0.3019 -0.3079  0.1154
24680W        W41527  19.074   2.161  14.122 -0.4127 -0.0984  0.0139
24681W        W41528  13.336  16.746   5.123 -0.0532  0.1745 -0.0154
24682W        W41529   4.016  16.357  10.234  0.0843 -0.2457 -0.2692
24683W        W41530  18.741  17.093  14.124 -0.1915 -0.0438 -0.2135
24684W        W41531   3.796   3.103  10.264  0.0270 -0.3124  0.0542
24685W        W41532   6.905   1.106   0.710  0.2252  0.0303  0.1879
24686W        W41533  15.787  15.394  13.051  0.1296 -0.2208  0.0271
24687W        W41534   3.737  18.427   0.556  0.1523 -0.0178 -0.1203
24688W        W41535  14.003   6.117  10.984  0.0240  0.3111 -0.2406
24689W        W41536   4.214   5.363   0.638 -0.0097 -0.3386 -0.1046
24690W        W41537   0.712  11.021   2.874  0.0096 -0.1064  0.1514
24691W        W41538  17.725  14.035   4.085 -0.1390 -0.1117 -0.3481
24692W        W41539  14.707   4.657   4.383  0.1014 -0.0805 -0.2590
24693W        W41540   8.984   9.264  14.299  0.0444 -0.4235  0.0725
24694W        W41541   1.968   8.485  14.282 -0.1524 -0.1033 -0.0625
24695W        W41542  15.139  15.990  11.461 -0.1504 -0.0686  0.0307
24696W        W41543   0.124  12.567  14.582  0.0846 -0.2409  0.1279
24697W        W41544   3.762   2.995  12.674 -0.1104  0.0240  0.0663
24698W        W41545   1.513  14.854  13.835  0.0982  0.0820 -0.0387
24699W        W41546  13.257  14.705   4.194 -0.0633  0.2416 -0.1511
24700W        W41547  12.430  17.292   1.398  0.2154  0.1642 -0.3449
24701W        W41548   3.893  14.112  13.509  0.1691 -0.2457  0.2909
24702W        W41549  13.441   9.961  12.565 -0.1703 -0.1738 -0.2525
24703W        W41550  14.643   4.480   3.190  0.1454  0.1738 -0.0186
24704W        W41551   3.259   3.703  13.905 -0.0615  0.0185  0.1534
24705W        W41552  18.589   9.828  13.624  0.0886 -0.2069  0.0637
24706W        W41553  16.973  16.479  13.102 -0.2860  0.0962  0.2519
24707W        W41554  13.000  11.825   0.473 -0.2475 -0.1901 -0.1228
24708W        W41555   6.193  16.122   1.047  0.0214 -0.1046  0.4069
24709W        W41556   2.695  14.739  10.332  0.1590 -0.3564  0.2131
24710W        W41557   1.464   5.685   0.874  0.1213 -0.1176 -0.1771
24711W        W41558   4.015  14.858  13.547 -0.2004 -0.0858  0.1259
24712W        W41559  11.208  19.595  11.250  0.0326 -0.0472 -0.1963
24713W        W41560   4.147  19.057   1.055 -0.0924  0.0181  0.1929
24714W        W41561  14.081   9.004  11.057  0.2313  0.2095  0.1171
24715W        W41562   8.089  15.108   2.238  0.1714 -0.1135  0.0070
24716W        W41563   4.948  12.775  14.127  0.1296  0.2964 -0.1237
24717W        W41564  17.912  12.253   0.364 -0.0331 -0.1585 -0.1470
24718W        W41565   6.406  10.669   0.697 -0.2319 -0.2581 -0.0651
24719W        W41566  17.549  15.593  12.710 -0.3716 -0.0610 -0.2837
24720W        W41567  17.382  10.715   3.809  0.2081  0.1291  0.0663
24721W        W41568  16.405  18.629  11.229 -0.1694  0.0895  0.1015
24722W        W41569  13.680  15.050   4.053 -0.3442 -0.1730  0.1428
24723W        W41570  14.578  18.062   1.377  0.1641  0.0938  0.2959
24724W        W41571   6.134  15.210  12.227 -0.0063  0.1733 -0.2791
24725W        W41572  12.313  13.620  12.188 -0.0428  0.0337 -0.1748
24726W        W41573   7.250   1.100   2.702  0.0755  0.1178  0.1289
24727W        W41574   8.231  16.079   2.296  0.1145 -0.0109 -0.0789
24728W        W41575  19.591   1.993   0.450 -0.2474  0.1256  0.2163
24729W        W41576   2.784   2.729   0.560 -0.0391 -0.1617  0.2590
24730W        W41577  10.927  15.373   4.462 -0.2591  0.0438  0.3044
24731W        W41578   1.004   3.870  12.096  0.1055  0.0733  0.4440
24732W        W41579  11.319  14.091  13.024  0.3125  0.0836  0.0510
24733W        W41580  18.983   0.887  11.755 -0.2075 -0.2520 -0.3238
24734W        W41581   7.060  15.114  14.089  0.2176  0.0311 -0.3527
24735W        W41582   8.832   2.553   0.771  0.5727 -0.1036  0.2823
24736W        W41583   0.762   1.734   3.192  0.0449 -0.1356 -0.2886
24737W        W41584  19.039   0.746  13.347  0.0635  0.1780  0.2520
24738W        W41585   0.310   8.478   3.865  0.1755 -0.1864 -0.0529
24739W        W41586  11.974  11.349  13.463 -0.0347 -0.1932  0.0415
24740W        W41587  14.726  16.416  13.219  0.0541 -0.1268 -0.0323
24741W        W41588  16.886   1.219   0.402 -0.0119 -0.1019  0.2052
24742W        W41589  19.545  11.547   3.004 -0.0269 -0.0648 -0.0752
24743W        W41590  12.848  16.257   3.825 -0.2624  0.3234  0.2591
24744W        W41591  17.893  15.940   1.903 -0.3450  0.3849 -0.1517
24745W        W41592  11.441   7.717   1.460 -0.0810  0.0260  0.3580
24746W        W41593  17.860  10.717  11.021  0.1911 -0.1221  0.2902
24747W        W41594  12.963  16.056  10.773  0.1010 -0.3862  0.2238
24748W        W41595   3.282   4.263  13.829 -0.0215  0.1575  0.2734
24749W        W41596  14.536   8.521  12.242 -0.3925 -0.1257  0.1689
24750W        W41597   6.121   7.679   4.321  0.1993  0.3880 -0.1167
24751W        W41598   2.873   1.275  13.937 -0.3222 -0.2641  0.0704
24752W        W41599  17.876  11.577   0.593  0.0572  0.0791 -0.1072
24753W        W41600   0.808  14.089  12.263  0.0251 -0.1182  0.0260
24754W        W41601   0.168   7.960  13.745  0.0194  0.2964 -0.3243
24755W        W41602  15.467  16.538   1.193 -0.0979  0.3114  0.2973
24756W        W41603  16.935   6.418   1.482 -0.4080 -0.1939 -0.3007
24757W        W41604   9.417  14.118   2.315 -0.2984 -0.1041  0.0925
24758W        W41605  19.063   9.285   0.146  0.0760  0.0324  0.0942
24759W        W41606  14.672   3.293  14.082 -0.4349 -0.1118 -0.1513
24760W        W41607   7.315   2.334  12.216 -0.0354 -0.1045  0.4197
24761W        W41608  16.151   9.824  11.514  0.0802 -0.4978  0.0724
24762W        W41609   7.390  11.356   1.127  0.1027 -0.2278  0.0193
24763W        W41610  15.453  15.462  11.209 -0.3846 -0.1496  0.1634
24764W        W41611   3.689   1.186  10.757  0.1219  0.0177 -0.0610
24765W        W41612  19.036   7.788  11.519  0.1543 -0.0211  0.1790
24766W        W41613  12.252   7.235   1.380  0.1911 -0.5253  0.0468
24767W        W41614  18.494   3.917  12.680 -0.3274  0.2112 -0.0972
24768W        W41615  15.034  11.612  11.195 -0.1980  0.3333 -0.0898
24769W        W41616  18.379  11.400  13.277 -0.1509 -0.0145 -0.0221
24770W        W41617  14.840   9.011   3.894 -0.1920  0.1491  0.2897
24771W        W41618  12.284   0.104  12.744 -0.2451  0.4726  0.2907
24772W        W41619   4.598   7.566  10.484  0.1417  0.1015 -0.0717
24773W        W41620  13.165   6.975  13.831 -0.2306 -0.0611  0.1334
24774W        W41621   2.512   7.516  12.891  0.0777  0.0413 -0.0296
24775W        W41622  11.592   7.092   2.484 -0.0562 -0.3861  0.1511
24776W        W41623  12.100  19.601  12.071  0.2034 -0.1355  0.3422
24777W        W41624   0.842   2.530  13.656 -0.3147 -0.0185  0.1889
24778W        W41625   0.721   2.018  12.154 -0.1922 -0.2341  0.1419
24779W        W41626  17.303  13.703  11.904  0.0943  0.0315 -0.3022
24780W        W41627   9.908  13.297  14.195 -0.2366 -0.0877  0.0786
24781W        W41628  10.008  18.211   3.544 -0.0010  0.0820  0.1043
24782W        W41629  11.060  19.096   2.312  0.1954 -0.4687  0.5120
24783W        W41630   1.449   9.221   2.807  0.0439  0.2515  0.0372
24784W        W41631  10.894  14.997  10.718  0.1386 -0.2096 -0.0132
24785W        W41632  14.516   9.365   5.011  0.4931  0.0888 -0.0020
24786W        W41633  15.788  19.572   3.248 -0.2547  0.0637  0.3213
24787W        W41634   6.128   2.173   1.072  0.1201  0.1083  0.0390
24788W        W41635   7.689  11.768   1.372  0.2297  0.2178 -0.0409
24789W        W41636   4.090   8.038  12.854  0.1119 -0.2854 -0.3446
24790W        W41637  11.661   0.861  12.601 -0.3313  0.0723  0.1459
24791W        W41638   8.067  10.778   3.167 -0.0999 -0.1136  0.0783
24792W        W41639   1.980   8.257   2.187 -0.0731  0.0234 -0.0040
24793W        W41640   2.106  18.400   0.207 -0.1056  0.2046 -0.2780
24794W        W41641  12.872   7.190   5.465 -0.0180  0.0237 -0.2370
24795W        W41642   8.585   7.433   1.014  0.1489 -0.0417  0.3485
24796W        W41643  12.233   9.718  14.524  0.0864 -0.1130  0.0138
24797W        W41644   0.351  12.127  14.423  0.0807 -0.2479 -0.2113
24798W        W41645   7.759  16.673   3.189 -0.0608 -0.0354 -0.0178
24799W        W41646   8.992   3.893  12.150  0.0657  0.1580  0.1096
24800W        W41647   7.247   6.465   0.793 -0.1295  0.0128 -0.1862
24801W        W41648   7.084  17.251   2.891 -0.0482 -0.0537  0.2802
24802W        W41649  18.959   8.052   1.175 -0.0802 -0.1010 -0.0414
24803W        W41650  15.857  11.095   4.555 -0.1124 -0.1549 -0.0298
24804W        W41651  10.524   6.394   1.427 -0.2971  0.0182 -0.1508
24805W        W41652  18.305  13.272  12.430 -0.2668 -0.2565 -0.0595
24806W        W41653  11.478  13.342  10.810  0.1653 -0.2310  0.3714
24807W        W41654  15.221  17.364  13.035  0.0148 -0.0752  0.0513
24808W        W41655   8.207   2.615  10.587 -0.1186 -0.0105 -0.1128
24809W        W41656  15.101  10.328   4.444  0.0898  0.0834  0.3000
24810W        W41657   0.043   0.937   3.779 -0.0880  0.2556 -0.0741
24811W        W41658  18.942   2.343  11.761 -0.1590  0.1533 -0.2274
24812W        W41659   9.878   9.329   9.742  0.2664  0.0451 -0.0259
24813W        W41660  12.254  15.066  12.593  0.1002 -0.2423 -0.2219
24814W        W41661   9.005   9.236  13.307  0.3717 -0.1411  0.0519
24815W        W41662   2.721  19.273   1.157  0.0534  0.0868 -0.0181
24816W        W41663  17.543   5.219  12.662  0.4899  0.0178 -0.3072
24817W        W41664   2.263  16.098   2.539 -0.1175 -0.2443  0.2237
24818W        W41665  12.946   7.651  13.964  0.2796  0.0188 -0.0699
24819W        W41666   0.736  17.440  12.718  0.0479  0.3220  0.1857
24820W        W41667   9.325   3.731  14.496  0.0836 -0.3051  0.2362
24821W        W41668  13.047   0.461   1.665  0.0494  0.0372 -0.0797
24822W        W41669   9.115   0.259  12.814 -0.0804 -0.0139 -0.1961
24823W        W41670  18.070   0.048  10.010  0.3070 -0.3015  0.2152
24824W        W41671   4.141   3.871   1.683  0.0515  0.2882  0.1325
24825W        W41672   4.045  10.947   2.905  0.1058  0.1783 -0.0127
24826W        W41673  13.011  17.508   3.546  0.0161 -0.0014 -0.4622
24827W        W41674  12.249  13.719   5.296  0.1748  0.0968  0.0025
24828W        W41675  16.468   3.143   4.616  0.4513 -0.0643 -0.0970
24829W        W41676  19.329   7.484   2.393 -0.0230  0.1838  0.1078
24830W        W41677   0.469  17.265  13.882 -0.2761 -0.2444 -0.2172
24831W        W41678   4.168   7.037   0.747 -0.1572  0.0823  0.0072
24832W        W41679   9.220   7.261   1.350 -0.4258  0.0177  0.1368
24833W        W41680  15.849  16.309   3.438  0.0463  0.2407  0.0625
24834W        W41681  15.948   6.537   1.473  0.0040 -0.4898  0.0371
24835W        W41682  18.120   9.208   2.870 -0.1508 -0.0128 -0.0426
24836W        W41683  17.764  14.910   1.583  0.2002 -0.1548 -0.3473
24837W        W41684  13.271   2.043  11.903  0.2489  0.0281 -0.2363
24838W        W41685   3.784   6.824   2.863 -0.3207 -0.0937 -0.2332
24839W        W41686  11.570   7.820   5.120 -0.2151 -0.1913 -0.2072
24840W        W41687   2.090  13.703   0.498  0.1277  0.2033  0.1266
24841W        W41688  16.644  12.494   3.927  0.2012  0.1854  0.0104
24842W        W41689  15.440   9.717   5.126  0.0287  0.1050 -0.1213
24843W        W41690   7.492   5.849  12.413 -0.0825 -0.1317 -0.3036
24844W        W41691   0.542  12.428   4.115 -0.2234  0.1955  0.0485
24845W        W41692  18.019  15.651   5.280  0.0787  0.0939 -0.1671
24846W        W41693  10.215  10.971  13.835 -0.2033  0.0196 -0.2222
24847W        W41694   2.446   1.569  12.021  0.3425 -0.4006  0.0835
24848W        W41695   5.310   0.053  11.911  0.0287 -0.0983  0.1553
24849W        W41696  12.625  13.446  13.672  0.0042 -0.2335  0.2168
24850W        W41697   5.405   6.968   2.291 -0.0085  0.1468  0.1662
24851W        W41698  10.301   6.659  13.503 -0.0563  0.1739 -0.1775
24852W        W41699  10.581   3.544   4.081  0.1375  0.1619  0.0290
24853W        W41700  10.616   2.222   0.745  0.3274 -0.1359  0.2007
24854W        W41701  13.549   2.833   0.740  0.2291  0.3703 -0.1746
24855W        W41702   4.059   8.417   3.406  0.0997  0.1544  0.0432
24856W        W41703  11.389   5.558   4.889  0.0029  0.0151  0.0048
24857W        W41704   2.622   1.086  10.074  0.1360 -0.2292  0.2312
24858W        W41705  11.765   6.697   5.637  0.2471 -0.2858 -0.1764
24859W        W41706   5.144   2.073   5.651 -0.0501 -0.0543  0.0108
24860W        W41707   9.881  13.779  11.089 -0.0460  0.0708  0.1264
24861W        W41708   9.012   7.320  10.290  0.1992  0.2087 -0.1213
24862W        W41709   6.549  10.005   3.038  0.2299  0.1084 -0.0212
24863W        W41710  12.962   3.864  12.259  0.2749  0.0555  0.0247
24864W        W41711  14.392   4.424  11.221 -0.0304 -0.1115  0.2808
24865W        W41712   6.483   9.738  14.132  0.0880 -0.2115  0.0592
24866W        W41713  17.701   7.964  14.568  0.3361 -0.0621  0.1944
24867W        W41714   0.008  12.657   4.812  0.4988 -0.0555  0.2531
24868W        W41715   4.443   3.044  14.012 -0.3411 -0.2666 -0.0235
24869W        W41716  10.944  10.120  14.503  0.1617  0.1401 -0.1977
24870W        W41717   5.667  12.277  10.999 -0.2406 -0.0883  0.0476
24871W        W41718   7.813   9.561  11.375  0.1271 -0.0409 -0.2188
24872W        W41719   6.258   9.853   1.248  0.0413  0.3368  0.1703
24873W        W41720  16.147  12.308   2.200  0.0221  0.1658 -0.2534
24874W        W41721   9.913  17.900   4.389  0.2551  0.0043  0.0799
24875W        W41722  12.836   0.143  14.289 -0.0133  0.2638 -0.5211
24876W        W41723  18.670   0.416   8.637  0.0722  0.1864 -0.2802
24877W        W41724   5.584  17.602  13.560  0.1020  0.1898 -0.0159
24878W        W41725  11.273  12.661   1.831  0.0686 -0.1744 -0.2868
24879W        W41726   4.420  12.846  12.742  0.1880  0.0930  0.1298
24880W        W41727  10.595  15.137  11.614 -0.0732  0.1109 -0.1426
24881W        W41728   4.010   3.806  11.098  0.2672  0.1917  0.0553
24882W        W41729  18.367   1.788   4.484 -0.3726  0.2504  0.0264
24883W        W41730   0.228   1.025  14.319 -0.3334  0.1711 -0.1500
24884W        W41731   3.948  18.735  11.445 -0.0250  0.0073  0.0707
24885W        W41732   7.356  14.744   1.698  0.0368 -0.0115  0.4876
24886W        W41733  19.453  15.505   1.346 -0.1259 -0.0403  0.0857
24887W        W41734  12.881  14.916   2.812  0.0774  0.1552 -0.3974
24888W        W41735   5.734  13.883   4.755 -0.1549 -0.0369  0.0509
24889W        W41736  17.097  14.492   3.479 -0.1442  0.0813  0.3019
24890W        W41737   7.780  13.402  10.374  0.1583 -0.2101  0.1283
24891W        W41738  10.546   2.883  13.240 -0.1349  0.1237  0.1019
24892W        W41739   0.413   2.481  12.459 -0.1879 -0.2975  0.1011
24893W        W41740   1.379  12.932  13.876 -0.2064 -0.1330  0.1265
24894W        W41741  14.412   1.967   1.556  0.1081 -0.0257  0.0057
24895W        W41742   4.725   6.563   0.026 -0.0168  0.4284 -0.2028
24896W        W41743   4.695   7.710   1.590 -0.0475 -0.1875  0.1209
24897W        W41744  16.835   3.180   3.091  0.1083  0.2809 -0.1307
24898W        W41745  17.856  10.086   3.000  0.1283  0.2196 -0.1877
24899W        W41746  10.991  18.049  13.012  0.2381  0.0983 -0.2877
24900W        W41747   4.856  13.072  14.578  0.1979  0.0829  0.1560
24901W        W41748   7.574  11.979  12.302 -0.3170  0.1490  0.0707
24902W        W41749   9.389  16.767  13.312  0.2591  0.0051 -0.0140
24903W        W41750   8.459  10.381  11.443  0.0843  0.0133 -0.3668
24904W        W41751   9.509  18.542  11.273 -0.0706 -0.0011 -0.2983
24905W        W41752   5.502   3.363   2.778  0.1670 -0.2081  0.0542
24906W        W41753  19.030   6.763  14.411 -0.0030 -0.1301  0.0890
24907W        W41754  13.442   9.711  11.330  0.2018  0.0812 -0.0572
24908W        W41755   7.658  12.554  12.530 -0.3024  0.1179  0.4169
24909W        W41756  10.649  18.662  13.510 -0.0425 -0.1204 -0.2354
24910W        W41757   8.410   0.163  10.392 -0.1248  0.4783 -0.0428
24911W        W41758  11.833   3.422   0.288  0.2152  0.1625  0.0584
24912W        W41759   1.013  12.615  11.559  0.3340 -0.0169 -0.0000
24913W        W41760   3.801   6.621  12.737  0.3680 -0.0546  0.0484
24914W        W41761   1.565   3.903  12.403  0.0554  0.8973  0.1938
24915W        W41762   2.488  16.997   3.176 -0.0918 -0.1628 -0.1803
24916W        W41763  15.259  12.972  11.767 -0.0783  0.1412  0.2240
24917W        W41764   1.889   6.991   0.856  0.0655  0.1063  0.0782
24918W        W41765   2.420  11.591   2.441  0.2482 -0.3898  0.2502
24919W        W41766   2.967   5.254  13.254 -0.0020 -0.2225 -0.1180
24920W        W41767   5.517   6.734  14.360  0.1126  0.0789  0.0997
24921W        W41768  14.189   8.675   5.724 -0.2202 -0.4813 -0.2447
24922W        W41769   4.623   6.471   3.441 -0.1648 -0.3562  0.2363
24923W        W41770  10.738   6.068  12.479  0.2231 -0.0054 -0.2875
24924W        W41771  16.767  14.680   1.327  0.0640  0.1404  0.0413
24925W        W41772  10.207   6.092   3.068 -0.0281  0.2578  0.2376
24926W        W41773  11.621  10.767   0.154 -0.2484  0.1511  0.0725
24927W        W41774  11.003   8.185   0.662 -0.2796  0.2733  0.3605
24928W        W41775   6.370   4.552   3.810 -0.0873 -0.0368 -0.1158
24929W        W41776   6.229   6.814  12.331  0.3056  0.2435 -0.1223
24930W        W41777  11.430   5.990   2.856  0.3144  0.0425 -0.2006
24931W        W41778  13.734   8.255   3.739  0.1101 -0.0383  0.1140
24932W        W41779  13.651   7.440  10.605 -0.0691  0.0744 -0.3024
24933W        W41780  17.550   7.351   0.000 -0.4062 -0.1339 -0.0835
24934W        W41781   8.676  12.155  12.735 -0.1292 -0.1272 -0.3180
24935W        W41782   4.850  17.946  12.145  0.1355 -0.1149 -0.1099
24936W        W41783  17.510   5.555   3.351  0.0093 -0.1790  0.0752
24937W        W41784   6.823   6.791   0.837 -0.0418 -0.1463 -0.3354
24938W        W41785   5.017   5.487   3.198  0.0696  0.0197 -0.0194
24939W        W41786   8.189  15.968   3.652 -0.2048  0.0292 -0.2103
24940W        W41787   5.606   2.845  10.804 -0.0573  0.1593 -0.3208
24941W        W41788   4.898  13.192  13.737 -0.0854 -0.1824 -0.0751
24942W        W41789  14.517   8.938   3.057  0.3811 -0.3407 -0.1073
24943W        W41790   2.158  11.979   3.609  0.0046  0.1053 -0.0984
24944W        W41791  13.671   4.696  10.107  0.2350  0.2794  0.1658
24945W        W41792   3.489   0.908  14.222  0.4143 -0.1010  0.1272
24946W        W41793  18.862   6.900   1.840 -0.1150 -0.4526  0.0638
24947W        W41794  15.590  11.360  13.092 -0.0336 -0.1021 -0.0234
24948W        W41795  11.276  12.750   2.325 -0.1877  0.2054  0.1631
24949W        W41796  15.933  17.389   0.875 -0.0505  0.3030  0.3663
24950W        W41797   8.382   9.434   0.445 -0.2109 -0.0525 -0.2686
24951W        W41798  14.489   0.578   4.377 -0.2110 -0.1186  0.1888
24952W        W41799  10.834   1.335   2.983  0.2970 -0.1157  0.0615
24953W        W41800  12.702   0.309   5.001  0.1263  0.4020 -0.1530
24954W        W41801  16.919   1.600   2.269  0.2331  0.1758  0.1877
24955W        W41802   3.529  15.756   3.262 -0.1160 -0.1269  0.2350
24956W        W41803  15.840   1.596  11.057  0.1832 -0.1198  0.0411
24957W        W41804   6.000  15.713   3.692 -0.1472 -0.0323  0.0371
24958W        W41805   9.441   5.723   2.211  0.0561 -0.2455 -0.1877
24959W        W41806  19.301  12.934   5.256  0.1901 -0.0701  0.1042
24960W        W41807  12.824  14.149   2.039 -0.0204 -0.0384  0.1937
24961W        W41808  11.070   4.950  12.447 -0.1820 -0.0852 -0.1926
24962W        W41809   4.345   1.956   1.936 -0.2336 -0.1658 -0.0085
24963W        W41810  13.366  15.914   1.617  0.4780 -0.1729  0.0753
24964W        W41811  11.360   5.823  14.191  0.0835 -0.0060  0.1247
24965W        W41812  10.077   6.615   1.476  0.1676  0.2195  0.2002
24966W        W41813  13.515   8.443   2.999  0.2463 -0.0543  0.0886
24967W        W41814   5.226  11.171  14.354  0.1561  0.0476 -0.1656
24968W        W41815   2.726  12.522   3.573 -0.3429 -0.3103 -0.1151
24969W        W41816  17.022   8.006   0.100 -0.1027  0.0889  0.1427
24970W        W41817  14.568   4.962  10.422 -0.0111 -0.2234 -0.0094
24971W        W41818   6.368   0.254  14.121  0.1298  0.2551 -0.2193
24972W        W41819   1.755  19.262  12.615 -0.0637  0.0523  0.2629
24973W        W41820   0.678   7.267   3.793  0.1374 -0.1306  0.0862
24974W        W41821   7.685  11.976   0.376  0.0376  0.2169  0.0086
24975W        W41822  18.742   3.797   0.056 -0.0954  0.2941  0.1534
24976W        W41823  13.233  17.894  14.123  0.1512 -0.0625 -0.1226
24977W        W41824   0.465   3.648  12.512 -0.0175 -0.3689 -0.2269
24978W        W41825  18.808  10.211  14.599 -0.1151 -0.0467 -0.1114
24979W        W41826   9.097  14.894   5.222  0.0711 -0.1297 -0.0901
24980W        W41827   5.477   4.689  13.989  0.1122 -0.0928  0.2036
24981W        W41828   8.806   0.727   1.133  0.1660 -0.1549 -0.1529
24982W        W41829  11.722  15.185  12.752 -0.2668  0.1120  0.0338
24983W        W41830  17.587  13.037   4.367  0.1470 -0.0912  0.0049
24984W        W41831   8.037   4.042   1.716 -0.2059 -0.2711  0.0247
24985W        W41832  19.055  14.231   3.840  0.0100 -0.1077 -0.3281
24986W        W41833  18.586   7.261   3.651  0.1842  0.2220  0.0892
24987W        W41834   0.187   0.609  11.758  0.3325 -0.1079 -0.0369
24988W        W41835  12.998   7.007   9.894 -0.1605  0.0561  0.3224
24989W        W41836   1.674   8.900  11.523 -0.0384 -0.0898 -0.1762
24990W        W41837  16.501   7.865  13.475  0.0475  0.0170 -0.0707
24991W        W41838   0.677  18.772  12.629 -0.1862  0.2362 -0.0271
24992W        W41839   2.168  18.254  13.874 -0.0010  0.0017  0.0236
24993W        W41840  15.405  13.967  12.306 -0.0858  0.2832 -0.2142
24994W        W41841  18.141  10.249  12.347 -0.1911 -0.0241  0.0044
24995W        W41842   2.614   1.189   1.036  0.2173 -0.2756  0.0238
24996W        W41843   3.773   7.605  14.276  0.1004  0.1146 -0.1534
24997W        W41844  10.747  11.259   0.373 -0.0076  0.1204  0.0913
24998W        W41845  12.671  15.054  12.899 -0.0656 -0.0899  0.0816
24999W        W41846   0.249  18.598  10.323  0.3595  0.0118  0.0529
25000W        W41847  16.954   2.421   0.935 -0.0789 -0.1840  0.2757
25001W        W41848   5.926  11.542  13.433  0.0719  0.2111  0.0002
25002W        W41849  12.076   5.953  11.392  0.0699 -0.5036 -0.0450
25003W        W41850   0.933   0.647   0.250  0.0907 -0.1459 -0.0893
25004W        W41851  13.192  10.495  10.782  0.2095  0.2200 -0.4480
25005W        W41852  11.126   4.229   4.508  0.1242 -0.0606 -0.0052
25006W        W41853   2.573  13.511   1.409  0.1070  0.1448 -0.1672
25007W        W41854   4.754  15.083   2.628 -0.3310  0.1231  0.1378
25008W        W41855   1.263   3.361   0.077 -0.0147  0.0842  0.1629
25009W        W41856  15.955   8.730   1.526  0.0897 -0.2475 -0.1463
25010W        W41857  17.092  19.270   0.344  0.0171 -0.0422  0.1537
25011W        W41858  12.811   7.980   2.390 -0.0373  0.4143  0.0467
25012W        W41859   1.998  16.700   1.450  0.0335  0.0642  0.1691
25013W        W41860   0.690   2.537   0.089 -0.0279  0.1947  0.2478
25014W        W41861   1.093  13.102  11.274  0.2718  0.1772 -0.3837
25015W        W41862  18.898   5.618   1.407  0.1796 -0.0092  0.1432
25016W        W41863   4.465   1.502   4.008 -0.0366  0.1135  0.0645
25017W        W41864  10.398  16.269  14.418  0.1409  0.3354  0.4497
25018W        W41865   0.807   1.476   0.618 -0.1796  0.1743  0.2580
25019W        W41866  18.990  16.701   2.351  0.1661 -0.2901  0.3649
25020W        W41867  15.769  19.487  11.561  0.5870  0.0124 -0.2247
25021W        W41868   8.760  17.849  13.626  0.4995  0.1323 -0.1937
25022W        W41869   7.561  17.067   1.580 -0.0963  0.2250  0.0221
25023W        W41870   5.457  13.276  12.548 -0.1418  0.0110 -0.3414
25024W        W41871  17.120   1.789   4.493  0.0564  0.0446  0.2039
25025W        W41872   1.161   2.153  13.336  0.4466  0.0639 -0.2215
25026W        W41873  13.809  15.104  11.721 -0.0583  0.0914  0.1485
25027W        W41874   4.103   7.841  13.336  0.1219  0.0537 -0.0166
25028W        W41875  17.229  12.171   9.785 -0.1704 -0.0742  0.1925
25029W        W41876   6.644  12.056   4.640  0.2178  0.1361  0.2111
25030W        W41877  16.292   1.049   1.073 -0.0918  0.0990 -0.0992
25031W        W41878  18.209   1.430   9.258 -0.2962  0.2408  0.1677
25032W        W41879   7.783  13.400   5.022  0.1330  0.0007 -0.0788
25033W        W41880   4.909   6.005   2.357  0.0891 -0.0855  0.2320
25034W        W41881   8.178   9.863   3.729  0.2297  0.1619  0.0187
25035W        W41882   6.638  13.022   2.617  0.3712 -0.1430 -0.1996
25036W        W41883  12.849   7.186  10.329  0.1242 -0.0440 -0.1088
25037W        W41884  14.455  13.469  11.417 -0.2501  0.0191 -0.0284
25038W        W41885  15.803   7.806  12.325  0.0273  0.0377 -0.3433
25039W        W41886  12.225   2.600   2.746 -0.2701  0.0610 -0.0437
25040W        W41887   6.159   3.492  12.769  0.2874  0.2215 -0.0399
25041W        W41888  14.508  15.473  10.526  0.0075 -0.1354 -0.2187
25042W        W41889   5.550  18.407  10.812 -0.0692 -0.1066  0.1097
25043W        W41890  13.999  14.267   3.490  0.0249  0.0242 -0.1497
25044W        W41891   3.764   8.729  10.895 -0.0939  0.1251  0.1406
25045W        W41892  13.885   0.954   1.495  0.0563 -0.1723 -0.1100
25046W        W41893   9.472   0.906   0.430 -0.2558 -0.0156 -0.0350
25047W        W41894  15.607   3.311  14.079  0.0470 -0.0663 -0.1767
25048W        W41895   5.509  13.369  13.885  0.2581  0.0170 -0.0348
25049W        W41896  19.399  16.377  12.103  0.0997  0.0547 -0.0192
25050W        W41897  17.315  14.003   5.470 -0.1432  0.0466 -0.1407
25051W        W41898   4.895   9.766   0.654  0.0540 -0.1371  0.0372
25052W        W41899   6.906   6.194   0.553  0.2782 -0.0142  0.1704
25053W        W41900   5.053  10.479   2.307  0.0251  0.3784 -0.0020
25054W        W41901  17.254   3.527   4.012 -0.3207 -0.0914 -0.0588
25055W        W41902   4.263   7.252  13.424 -0.2679 -0.1389  0.1856
25056W        W41903   1.459   0.838   2.366  0.2062  0.0484 -0.0963
25057W        W41904   3.161   6.162   3.784  0.3800 -0.0626  0.1202
25058W        W41905  19.166  11.509   2.679 -0.1623  0.0976  0.0441
25059W        W41906   3.254   2.616   4.226 -0.0232  0.1927 -0.3739
25060W        W41907  19.136   6.641   2.309 -0.2792 -0.0589  0.3563
25061W        W41908   7.242   5.455  12.651  0.0150  0.2006 -0.2282
25062W        W41909  10.376   5.310  12.003  0.1684 -0.0891  0.0753
25063W        W41910  17.273   1.641  11.964  0.0231  0.0079 -0.2163
25064W        W41911  14.918  15.540  10.093 -0.0886  0.2158 -0.0401
25065W        W41912  18.575   4.990  11.047  0.0542  0.0149  0.0034
25066W        W41913  12.027   0.964  13.023  0.0035  0.3084  0.0114
25067W        W41914  12.896  13.755   1.742 -0.0507  0.1251 -0.1019
25068W        W41915  10.123  16.756   1.835 -0.1344 -0.2077 -0.3019
25069W        W41916   4.372  16.328   4.206 -0.1882  0.0862 -0.1008
25070W        W41917  14.088   7.425  10.940  0.5762 -0.1059 -0.0812
25071W        W41918  13.914   2.044   2.291 -0.0641 -0.0433 -0.2778
25072W        W41919   1.245  12.564  12.542  0.1056  0.1749  0.1958
25073W        W41920   4.181  13.598   0.549 -0.0435  0.2621 -0.2021
25074W        W41921   7.097   8.514   4.051 -0.0552  0.2187 -0.0022
25075W        W41922  18.342   6.636  12.649  0.1695 -0.0956 -0.0824
25076W        W41923   1.997  14.725   3.989  0.0601 -0.1294 -0.0283
25077W        W41924   8.646   9.192   2.547 -0.3576  0.0571 -0.0091
25078W        W41925  11.659   3.296   1.145  0.0102 -0.0921  0.1675
25079W        W41926   7.961  15.444   2.791 -0.0002  0.2370  0.0774
25080W        W41927  13.529  15.360  12.645  0.1275  0.1702  0.0666
25081W        W41928  11.147  15.833   4.518  0.3609 -0.2812 -0.0807
25082W        W41929   3.195   7.781   4.421 -0.1491 -0.0460  0.0381
25083W        W41930  19.419  12.631  10.714 -0.1155  0.1622 -0.0142
25084W        W41931  14.990  12.594   1.295  0.0875 -0.0603  0.1413
25085W        W41932   0.590   5.733  12.641  0.0026  0.0490  0.1422
25086W        W41933   9.242   4.185   1.408 -0.0847 -0.3109 -0.2396
25087W        W41934  13.210  14.668   4.730  0.0385  0.4089  0.2034
25088W        W41935  10.551  18.470  11.107 -0.2478 -0.2111  0.1273
25089W        W41936   5.936   0.130  12.647  0.2787  0.1071  0.2095
25090W        W41937  12.359  15.527   3.106 -0.1287 -0.0061 -0.1970
25091W        W41938   8.866   9.753  13.216  0.1411 -0.1052  0.3950
25092W        W41939  18.128   0.699   3.063  0.3813 -0.2191 -0.2352
25093W        W41940   3.783  17.888  13.523 -0.3006 -0.1574 -0.1628
25094W        W41941  13.083  15.448  12.860  0.1948  0.0471 -0.1479
25095W        W41942  19.298  14.140   0.817 -0.3589 -0.1592  0.3947
25096W        W41943  15.720  13.674  10.760 -0.0092 -0.1117 -0.1279
25097W        W41944  12.723   4.834  12.571 -0.0380  0.0666  0.2904
25098W        W41945  16.904  19.498  13.504 -0.0140 -0.2619  0.0251
25099W        W41946  16.136  11.393  12.427  0.0293  0.5280  0.0932
25100W        W41947   1.863  13.715   2.922  0.0628  0.2690  0.0263
25101W        W41948  15.162  15.435  11.737 -0.1107 -0.2034  0.0841
25102W        W41949   2.023   6.860  10.684  0.4075  0.0017  0.2497
25103W        W41950   0.090   4.042  12.398  0.1547 -0.0793 -0.0183
25104W        W41951   1.795   6.523   0.016  0.0841  0.0378 -0.2902
25105W        W41952  17.953   1.013  11.544 -0.0890 -0.0353  0.1363
25106W        W41953   2.762   7.128   3.731  0.1265 -0.1598 -0.1856
25107W        W41954   8.265  12.888   2.486 -0.0882  0.0067 -0.3521
25108W        W41955  16.916  15.465   1.004 -0.1530 -0.2918  0.0772
25109W        W41956  19.319  10.913   3.924 -0.1729 -0.2539  0.0259
25110W        W41957   3.578  16.442  10.471 -0.1677  0.0418  0.2203
25111W        W41958   6.847  15.088   9.283  0.1658  0.1546 -0.0773
25112W        W41959   6.375  14.315   0.420  0.0122 -0.1204  0.2367
25113W        W41960  19.471   4.729   4.690 -0.0934 -0.2058  0.2969
25114W        W41961  12.816   7.456  12.706 -0.0870 -0.0057 -0.0391
25115W        W41962  14.418   8.225   5.508 -0.2708 -0.0472  0.0073
25116W        W41963  18.720  14.213   0.987  0.1398 -0.0068  0.0950
25117W        W41964  16.674   0.731   3.372 -0.1475  0.0849 -0.1904
25118W        W41965  18.636  12.102   1.681  0.1416 -0.2318  0.2907
25119W        W41966   8.819  18.344   1.648  0.0480 -0.1931 -0.0806
25120W        W41967   0.354  17.147  12.864  0.2371 -0.5273  0.3650
25121W        W41968  15.785   5.170  10.315 -0.0262 -0.2438  0.1715
25122W        W41969   1.577   9.131   3.285  0.2321  0.1226 -0.3209
25123W        W41970  12.113   1.430  10.520  0.0632  0.2925  0.1882
25124W        W41971   7.585   1.797   0.811 -0.0866 -0.0200 -0.1424
25125W        W41972   8.267   0.296   3.402  0.0366 -0.2159 -0.1935
25126W        W41973  19.160   0.471   1.093  0.3705  0.2314 -0.0957
25127W        W41974   4.628   8.304   0.677 -0.0910  0.2817  0.0208
25128W        W41975   3.100  16.179   3.001 -0.3515  0.1689  0.3301
25129W        W41976   3.236   4.766  13.571  0.1486 -0.1869 -0.0454
25130W        W41977  15.040   9.275  10.258 -0.0707  0.1363  0.2692
25131W        W41978  18.189   4.016   0.717 -0.0218 -0.0348  0.3966
25132W        W41979  13.042   9.054   4.701 -0.1400  0.0710  0.0902
25133W        W41980  10.978  13.000  13.536  0.1481  0.3152 -0.2646
25134W        W41981  13.898  16.582  11.267  0.2583  0.4408  0.0049
25135W        W41982  10.679  15.840  14.466  0.1196 -0.2014 -0.0742
25136W        W41983   5.898  10.741   3.973 -0.1098  0.1538 -0.0867
25137W        W41984   5.962   5.694   5.695 -0.0481  0.1860 -0.0951
25138W        W41985   9.133  17.247   2.600  0.2309 -0.2641  0.1312
25139W        W41986  13.240   5.991  11.494 -0.1199  0.1709 -0.0303
25140W        W41987  19.075   2.215   0.040 -0.2894 -0.0782 -0.0715
25141W        W41988   4.235   2.156  11.463  0.2042 -0.1961  0.0863
25142W        W41989  14.062  18.984   3.613  0.0669  0.0810  0.4433
25143W        W41990   6.477  10.065   0.359 -0.0424 -0.0552 -0.1862
25144W        W41991  10.098   4.423  13.664  0.1551 -0.0334  0.0670
25145W        W41992  11.455  17.762  12.756 -0.2363 -0.1442  0.2281
25146W        W41993  14.609   9.057   1.338  0.1230 -0.0451  0.1272
25147W        W41994  10.493  12.788   0.714 -0.1643 -0.2146 -0.1405
25148W        W41995   9.262  13.028   0.619  0.1399 -0.0190 -0.2227
25149W        W41996   8.866   6.322  11.019  0.0319  0.1371  0.1527
25150W        W41997   7.075  11.549   2.101  0.0557 -0.4933  0.1069
25151W        W41998  19.601  18.333   2.538  0.1878  0.3405 -0.1236
25152W        W41999  16.640  11.855   0.422 -0.2215  0.0127  0.2432
25153W        W42000  13.792   6.646   1.813  0.2118 -0.2502 -0.2691
25154W        W42001  11.819   8.130  10.628  0.2219 -0.0326 -0.0534
25155W        W42002   7.078  11.948  12.358 -0.0655  0.4445  0.0939
25156W        W42003  14.320   2.362  11.936 -0.0448 -0.1870  0.2767
25157W        W42004  12.648  19.104  12.118  0.0734 -0.0231  0.0322
25158W        W42005   5.434   5.146  14.604 -0.0585  0.2387 -0.0906
25159W        W42006  17.327   3.902  12.017  0.1347 -0.0512 -0.3228
25160W        W42007  14.530   1.723  13.760  0.0514  0.0223 -0.3124
25161W        W42008  13.351   2.771  10.218 -0.2075 -0.0500 -0.7305
25162W        W42009  19.085   1.988  11.431  0.0411 -0.2102 -0.3384
25163W        W42010  17.156  16.311  12.265 -0.4950  0.0313  0.2175
25164W        W42011   2.503  18.421  13.504  0.2823  0.2875  0.1582
25165W        W42012  15.819  12.509   9.922  0.1577  0.1753  0.1364
25166W        W42013  17.706  17.879   2.492 -0.1705  0.0839 -0.1398
25167W        W42014  16.867  16.100   0.954  0.3747 -0.1794 -0.1294
25168W        W42015  18.720  15.999  10.727 -0.1750 -0.0190 -0.0377
25169W        W42016  14.285   5.514   9.178 -0.0241 -0.0601  0.0209
25170W        W42017  16.770  17.338   4.729 -0.1268 -0.3724  0.1803
25171W        W42018  17.530  12.645  12.813 -0.3332  0.1551  0.0222
25172W        W42019   4.584  10.511  12.338 -0.2605 -0.0009  0.2016
25173W        W42020   2.945  11.943   2.789 -0.4351  0.0615 -0.0610
25174W        W42021   5.093   5.531   2.392 -0.2164 -0.2261 -0.2200
25175W        W42022  15.315  18.912   2.125 -0.0360 -0.1150 -0.3518
25176W        W42023   7.070   5.399  11.323 -0.3806  0.0444 -0.2303
25177W        W42024  16.569   8.762   0.741 -0.0211 -0.1031  0.0881
25178W        W42025   8.537  12.441   2.326  0.2186 -0.0735 -0.1366
25179W        W42026   0.480   5.097   3.239  0.1161 -0.3760 -0.1491
25180W        W42027   3.804  15.135   3.855  0.0670 -0.3468 -0.1044
25181W        W42028   8.800   3.247  11.553 -0.1639 -0.1181 -0.3455
25182W        W42029  16.684   3.493  10.323  0.0875 -0.0165 -0.1897
25183W        W42030  12.437   1.266  13.413 -0.3917  0.0886  0.2634
25184W        W42031   2.897   4.106   2.066 -0.1156  0.0598 -0.0442
25185W        W42032   3.447   3.072   0.748  0.1102  0.1043 -0.1808
25186W        W42033  15.862   8.677   0.970 -0.1021  0.2035 -0.0795
25187W        W42034   2.187  10.427  13.028 -0.1399 -0.0328  0.0124
25188W        W42035   0.727   9.530  10.982  0.1412 -0.0954  0.1850
25189W        W42036  13.785   2.567   1.630  0.2848  0.3107 -0.2901
25190W        W42037  11.563   1.673  12.399 -0.0224 -0.0129 -0.0040
25191W        W42038  16.065  17.213  11.729 -0.0461 -0.1310  0.0126
25192W        W42039  15.546  15.599  13.967  0.2955 -0.0727  0.1875
25193W        W42040  15.904  17.290  10.658 -0.0527 -0.3415  0.2622
25194W        W42041   8.293   6.664  14.144 -0.0529 -0.1287 -0.1031
25195W        W42042   2.965  13.649   2.280  0.1011  0.1288 -0.3845
25196W        W42043  12.468  10.097   4.409  0.0110 -0.0876 -0.0229
25197W        W42044  15.246   3.217  11.606 -0.2487 -0.0841  0.0706
25198W        W42045  17.820  17.961   1.931  0.1080  0.1765  0.1081
25199W        W42046  14.696   5.165   2.464 -0.0788 -0.0763 -0.1089
25200W        W42047  14.215   1.188   4.582  0.0931 -0.0868  0.2948
25201W        W42048   1.252   2.225   0.788 -0.3359 -0.2075 -0.3452
25202W        W42049   5.119   9.909   5.379  0.1049  0.0928 -0.4403
25203W        W42050  18.267   2.388  10.255  0.1728  0.0719 -0.0903
25204W        W42051   2.627  10.496  11.150  0.3319  0.1584  0.1012
25205W        W42052   1.968   8.704   0.580 -0.0124 -0.0127 -0.1179
25206W        W42053  13.486   1.570   3.063  0.4619  0.2123 -0.2744
25207W        W42054  17.480   1.099  14.351 -0.0969 -0.0282 -0.1006
25208W        W42055  14.390   1.736   0.622  0.0048 -0.2064 -0.0109
25209W        W42056  13.723  16.686  10.362 -0.0246  0.0256 -0.0373
25210W        W42057   8.894   8.256   4.453  0.1813 -0.0384  0.1585
25211W        W42058   5.763  14.853   4.817  0.0077  0.2293  0.1508
25212W        W42059   9.353   9.129   1.224  0.0784  0.0851  0.0520
25213W        W42060  13.803   6.862   4.891 -0.1269  0.1042  0.1233
25214W        W42061  17.039  11.279  12.275 -0.2785 -0.0405 -0.0046
25215W        W42062  15.027  13.185   4.832 -0.1159  0.0718 -0.2002
25216W        W42063   2.698   3.879   2.457 -0.0592 -0.0867 -0.3008
25217W        W42064   2.730   6.022   0.128  0.0725  0.0306  0.0425
25218W        W42065  17.026   1.995  11.708  0.1362  0.0443 -0.2337
25219W        W42066  11.760  11.186   2.382  0.0438  0.0690 -0.2165
25220W        W42067  18.596  11.935  11.280 -0.0622  0.0648 -0.0663
25221W        W42068  18.134   8.774  12.391  0.0576  0.1917 -0.1761
25222W        W42069  18.702   9.747   5.148 -0.1347 -0.0832 -0.2380
25223W        W42070  12.287   9.968   1.026  0.1350 -0.0327  0.2033
25224W        W42071  16.244   2.483  14.026 -0.1828 -0.1293 -0.0890
25225W        W42072   9.290  11.853  14.325  0.3021 -0.0796  0.1069
25226W        W42073   3.937   7.015   1.711 -0.2259  0.0354  0.0383
25227W        W42074  13.953   9.939  13.016 -0.0086  0.0181 -0.4640
25228W        W42075   3.995  17.445   0.677 -0.1041 -0.0764  0.1259
25229W        W42076  16.402   9.460   4.634 -0.1490  0.0446 -0.4286
25230W        W42077   4.619   2.951   1.663  0.0232  0.0313  0.1031
25231W        W42078  18.898  17.137   4.568  0.2454  0.2381  0.1450
25232W        W42079   0.428  15.575  13.903 -0.0366 -0.1387  0.0411
25233W        W42080  12.888   6.547  13.890  0.2403  0.3400 -0.1796
25234W        W42081   1.783  13.471   3.389  0.1014 -0.0980 -0.0362
25235W        W42082   9.681   5.075   1.432  0.0664 -0.0353  0.1036
25236W        W42083   0.777  14.369  14.478  0.2922  0.0149 -0.0242
25237W        W42084   5.072  11.907   2.483  0.0017 -0.0444  0.1611
25238W        W42085   8.288  17.026   4.218 -0.0795 -0.1071  0.1219
25239W        W42086   0.166   8.574   4.661  0.1933  0.0464  0.4924
25240W        W42087  12.274  19.077  14.349  0.1994  0.3024 -0.0445
25241W        W42088   7.647  10.077   3.117 -0.1988 -0.0418  0.1088
25242W        W42089   0.089  16.050  11.935  0.2338  0.2558 -0.2719
25243W        W42090   7.657   2.198  13.688 -0.0727  0.0014  0.1098
25244W        W42091   1.414  15.375   3.860 -0.3339 -0.0962 -0.0750
25245W        W42092   4.616   0.955  14.044  0.3444  0.1718  0.1108
25246W        W42093  18.897  10.615  11.886  0.1716 -0.0210 -0.2326
25247W        W42094  15.767   8.503   2.473  0.0333  0.0607 -0.4355
25248W        W42095   7.008  14.573  13.140 -0.2432  0.4082  0.0887
25249W        W42096  13.161  12.318   4.389 -0.0962  0.3357  0.1795
25250W        W42097   1.163  18.732   1.622 -0.1883 -0.1819  0.1613
25251W        W42098   4.083   8.802   3.758 -0.0204  0.0945 -0.1630
25252W        W42099   5.179   2.939   1.286  0.1736 -0.1059  0.2642
25253W        W42100  18.781   6.990  11.837  0.0216 -0.0781 -0.0051
25254W        W42101  16.123  11.516   1.850 -0.4389  0.2099  0.1315
25255W        W42102  11.916   5.295  13.697 -0.1609  0.5557  0.2395
25256W        W42103   7.322   5.710   2.094 -0.1182  0.2281 -0.2218
25257W        W42104   9.108   6.943   0.094  0.1434 -0.1472  0.2028
25258W        W42105   3.805  13.567   2.113 -0.0012  0.3557  0.0510
25259W        W42106   6.602   1.676  10.033  0.0167  0.0431  0.1503
25260W        W42107   4.465   9.681   1.923 -0.0968 -0.1064  0.0691
25261W        W42108   8.860   5.244   1.020  0.2181  0.4701  0.1981
25262W        W42109   4.884   4.412   1.708  0.0446 -0.0272 -0.2323
25263W        W42110   7.740  16.147   0.765 -0.0386  0.1478  0.0798
25264W        W42111  10.754   7.834   2.522  0.0907 -0.3566 -0.2550
25265W        W42112   8.338  10.522   2.842 -0.0746 -0.2759 -0.0165
25266W        W42113  10.347  18.915  11.305 -0.1974  0.1812  0.0611
25267W        W42114  11.752   0.449  10.690  0.1843  0.1363 -0.2456
25268W        W42115  12.262  17.075   0.991 -0.0881  0.3044 -0.2304
25269W        W42116  16.703  19.187   1.708 -0.0561  0.1585 -0.1986
25270W        W42117  10.105   3.022   0.067 -0.2302  0.0554  0.0933
25271W        W42118   6.156  17.765   1.455  0.1433 -0.1065 -0.7778
25272W        W42119   6.503  18.403   4.582  0.0161 -0.0337 -0.3773
25273W        W42120  12.858  10.845  13.699 -0.0983  0.0987  0.0923
25274W        W42121   0.455   9.003   0.334 -0.2284 -0.0087 -0.2325
25275W        W42122  16.637  16.759   3.849 -0.1078  0.1367  0.1914
25276W        W42123   2.157  19.404  11.242 -0.0865  0.0410 -0.2880
25277W        W42124   2.089   2.520  10.794  0.0400 -0.2261  0.0188
25278W        W42125   7.210  12.354  12.636 -0.1531 -0.1558  0.0897
25279W        W42126  11.487  16.956  11.499 -0.2288 -0.1661 -0.2506
25280W        W42127   3.659  13.880  14.392 -0.0286 -0.1311 -0.3513
25281W        W42128  13.266  15.956  11.977 -0.1599  0.1126 -0.1593
25282W        W42129  15.908   3.265   1.609 -0.2596  0.1742  0.1553
25283W        W42130   2.178   1.265  14.571 -0.1693  0.4045  0.0622
25284W        W42131  15.774  17.832  11.153 -0.3760  0.2478 -0.2309
25285W        W42132   2.318  15.687   1.117  0.0690 -0.2650 -0.0834
25286W        W42133   3.581  18.269   4.056 -0.0231  0.1639  0.0663
25287W        W42134   2.854   7.702   2.353  0.2104 -0.0128  0.0806
25288W        W42135  18.041   9.046  11.941  0.0572  0.1894 -0.1120
25289W        W42136  15.307  16.208  10.476  0.0205  0.0140  0.1376
25290W        W42137  18.811   3.334  13.146  0.1565  0.1392  0.3504
25291W        W42138  18.018   2.762  12.286 -0.0453 -0.0820  0.0716
25292W        W42139   6.617   5.351  14.017  0.1438 -0.1029 -0.0697
25293W        W42140  10.844   9.868  13.575 -0.2930  0.0916  0.0360
25294W        W42141   8.352   8.033   5.458  0.1160  0.2270  0.0567
25295W        W42142   6.623  18.793   1.408  0.1332 -0.0801 -0.5602
25296W        W42143   3.225  15.922  12.925 -0.2217 -0.0337  0.4388
25297W        W42144  13.769  18.800   1.282 -0.2752  0.0383 -0.0369
25298W        W42145   7.570   7.199  13.196  0.2087  0.2585  0.0925
25299W        W42146   3.345   6.861  10.538  0.0709  0.0398  0.0938
25300W        W42147  10.843   6.391  10.843 -0.1335 -0.0104 -0.0955
25301W        W42148   4.854  16.891   2.006 -0.0446 -0.2526 -0.1598
25302W        W42149   5.735  10.222   4.653 -0.1676 -0.0899 -0.2184
25303W        W42150   7.349  17.678  13.045 -0.1231  0.2308 -0.2213
25304W        W42151  16.062  13.157   9.745 -0.1171 -0.5385 -0.0286
25305W        W42152  18.590   8.623   2.970  0.2442 -0.8120 -0.1864
25306W        W42153   9.903   1.044   5.079 -0.0452 -0.2295  0.0984
25307W        W42154   7.071  18.137  11.875 -0.1754  0.1377 -0.0819
25308W        W42155   4.682   7.347  11.982  0.1328  0.2361 -0.2371
25309W        W42156  14.049  10.601  13.079 -0.0055 -0.0652 -0.0148
25310W        W42157  11.420  14.823  13.564  0.3374 -0.0026  0.0736
25311W        W42158   0.792   7.143  12.036  0.2572 -0.0321 -0.4206
25312W        W42159  15.411  16.540   5.082  0.0893 -0.1850  0.2700
25313W        W42160   5.287  16.864  10.024 -0.1921  0.1043  0.3592
25314W        W42161   8.218   5.349   2.908 -0.0754  0.1337  0.0111
25315W        W42162  12.579   6.380   1.067  0.0431  0.3336 -0.1177
25316W        W42163   9.108  12.468  11.493  0.0055 -0.0180  0.3338
25317W        W42164  17.187   1.080  11.102 -0.2111  0.1494  0.0708
25318W        W42165  15.341   2.869  11.257  0.2125  0.0827 -0.2963
25319W        W42166   7.685   2.062  14.275  0.0556  0.1486  0.2487
25320W        W42167   5.967   7.613   2.490  0.0681 -0.2154  0.1576
25321W        W42168   6.431   5.711  11.546  0.1180  0.0047  0.0734
25322W        W42169  12.867  16.050   0.940  0.0250 -0.0814 -0.0513
25323W        W42170  10.023  10.236   5.416  0.0201 -0.0534 -0.3357
25324W        W42171   7.006  11.995  10.552  0.0265  0.1861 -0.0604
25325W        W42172  14.748  18.882   1.348  0.1949 -0.0580 -0.0765
25326W        W42173  12.481  15.714  10.392  0.1241 -0.2884  0.0368
25327W        W42174  10.972  14.216  14.103 -0.1244  0.0348 -0.3747
25328W        W42175   2.490   9.164  11.568  0.0706 -0.3312 -0.1315
25329W        W42176   4.806  13.833   2.279 -0.1625  0.2999 -0.2829
25330W        W42177  10.966  16.920  11.922  0.0919 -0.1523  0.2352
25331W        W42178  14.553   0.171  13.505  0.0326 -0.0467 -0.1204
25332W        W42179   3.552   7.623   1.862  0.0418  0.0133 -0.0320
25333W        W42180   3.315  12.426   4.258  0.3834  0.2432  0.2620
25334W        W42181   5.270   0.418  10.922 -0.1403 -0.0612  0.0998
25335W        W42182  17.217   7.568   0.301  0.1275 -0.1491  0.1364
25336W        W42183   5.778   8.080  11.378  0.2420  0.3016  0.3118
25337W        W42184   6.899   7.956  12.226  0.2121  0.2947  0.0485
25338W        W42185   4.830   9.309   4.952 -0.0732  0.0009  0.3743
25339W        W42186   7.141   8.588   9.950 -0.0137 -0.2074 -0.4471
25340W        W42187   9.094   1.751   3.365 -0.1152 -0.1409 -0.0680
25341W        W42188  10.547  16.475   1.503  0.0682 -0.3933 -0.1465
25342W        W42189   2.108  17.504  10.196 -0.0306  0.0760 -0.0615
25343W        W42190   9.521   9.056   0.704  0.1165  0.0116  0.0227
25344W        W42191   5.168  17.571   0.474  0.1123  0.1353  0.0855
25345W        W42192  16.963   1.410   3.551  0.2106 -0.0935  0.0463
25346W        W42193   8.194  18.241  13.109  0.0037 -0.1867  0.1701
25347W        W42194  17.310  13.229   0.836  0.3310  0.1674  0.2103
25348W        W42195   7.087   3.197   3.815 -0.2469  0.0065  0.0753
25349W        W42196   2.407  15.605  11.507 -0.0092  0.0638 -0.0668
25350W        W42197   6.980   8.496  14.515  0.4107 -0.0823 -0.0224
25351W        W42198   8.777   7.494   0.479 -0.4680  0.1832  0.1578
25352W        W42199   9.540   1.139   2.182  0.0655 -0.1635 -0.5005
25353W        W42200  17.439  11.723   2.650 -0.0566 -0.3093  0.0069
25354W        W42201   7.541  10.586   2.288  0.0512 -0.0359  0.2307
25355W        W42202   6.095  10.333  14.448  0.0800 -0.1354  0.3295
25356W        W42203  18.116  13.103  10.998  0.1468  0.0157  0.3497
25357W        W42204   1.421   4.664  12.763  0.0077 -0.1613 -0.0469
25358W        W42205   2.573  14.794  14.537  0.0096 -0.1009 -0.1434
25359W        W42206   0.120   0.707   5.366 -0.0732  0.0328 -0.0406
25360W        W42207  13.879   8.999   1.785  0.0122 -0.1291 -0.4248
25361W        W42208   3.919  12.937   3.721 -0.0116  0.1745  0.0909
25362W        W42209  11.608   6.465  13.249 -0.0708 -0.3160  0.0427
25363W        W42210   9.216  15.099  10.212  0.0462  0.2170  0.2993
25364W        W42211  12.481   7.478  13.589  0.0670 -0.0551  0.0749
25365W        W42212   6.640   9.727   0.753  0.1354  0.1470  0.0598
25366W        W42213   3.376  11.031  11.431 -0.0206 -0.1333 -0.0433
25367W        W42214   0.729  16.121  10.763 -0.0485  0.0988  0.0587
25368W        W42215   8.080  11.693  13.056  0.2140 -0.0862 -0.0536
25369W        W42216   3.180   2.460   3.263  0.0752  0.3542 -0.0071
25370W        W42217   5.068  17.812   2.479 -0.0045  0.1686 -0.1054
25371W        W42218  16.798  17.431  10.380  0.2962  0.0096 -0.3906
25372W        W42219   5.918  19.086  14.178  0.1000  0.2350 -0.0518
25373W        W42220   9.622   9.561  12.465  0.2263  0.1774 -0.0470
25374W        W42221   6.263  11.593   4.456 -0.4211 -0.2290  0.1843
25375W        W42222  17.062  14.675   2.341 -0.0036 -0.2314 -0.0550
25376W        W42223   7.791   5.538   3.657 -0.1400 -0.0911  0.0906
25377W        W42224  13.575  13.126   2.764  0.0724 -0.2096 -0.1218
25378W        W42225  11.615   8.223  14.032  0.2478  0.0426  0.2635
25379W        W42226  10.934   2.632  12.823 -0.0010 -0.0299 -0.0017
25380W        W42227  11.337  18.988  13.344 -0.0273  0.1539  0.1592
25381W        W42228  16.370  13.509   4.561  0.2775  0.3811 -0.0267
25382W        W42229  11.366   0.258   0.683 -0.2691 -0.0280  0.2983
25383W        W42230  14.843  16.593  11.280 -0.1808 -0.0923 -0.1511
25384W        W42231  15.805   3.154  12.718 -0.2860  0.3640 -0.1811
25385W        W42232   4.147  17.974   2.719 -0.0743 -0.3266  0.1029
25386W        W42233  14.928  12.069  14.092  0.1260 -0.0770 -0.3445
25387W        W42234   8.409   0.584  10.094  0.0974 -0.1238  0.1349
25388W        W42235   9.123   7.250   4.768 -0.4648 -0.4385 -0.1299
25389W        W42236   6.179  12.116   3.005  0.1014  0.2945 -0.0925
25390W        W42237   8.627   2.095   1.687  0.2079 -0.0512  0.0228
25391W        W42238   3.574   7.854  11.209  0.1910  0.1834  0.0836
25392W        W42239  19.079   9.284  11.042  0.2599  0.0528 -0.2655
25393W        W42240  19.525   2.037  14.271 -0.1498  0.0521 -0.0028
25394W        W42241   2.725   4.164  10.842 -0.1862 -0.1843 -0.0159
25395W        W42242   0.728  17.942  11.778 -0.0319 -0.0710 -0.0016
25396W        W42243   8.585  12.811   3.415  0.0468 -0.1163 -0.2411
25397W        W42244   1.606   5.070  14.336 -0.0519  0.3082 -0.2478
25398W        W42245  12.959   8.324   1.073 -0.2184 -0.1009  0.0187
25399W        W42246  17.968   1.100   5.049  0.0751 -0.2633 -0.0820
25400W        W42247  15.505  19.593   0.571 -0.1667 -0.0838 -0.1314
25401W        W42248   7.325  18.062   3.151 -0.2728 -0.0635 -0.0347
25402W        W42249  14.542   5.461   3.301  0.2205  0.2540  0.1378
25403W        W42250   7.707  13.592  13.359 -0.0189  0.1569  0.0975
25404W        W42251  14.125   3.977   1.937 -0.1004 -0.1016  0.0899
25405W        W42252  13.403   5.264   0.711  0.1416  0.1542  0.1601
25406W        W42253   3.996  15.085   0.443 -0.1874  0.0906  0.1402
25407W        W42254  19.320   8.283   2.688 -0.2624 -0.5093 -0.2970
25408W        W42255   3.427  16.764  12.394  0.0820 -0.0509  0.0748
25409W        W42256   9.893   0.048  12.809  0.2512  0.0307  0.0471
25410W        W42257  11.173   8.559   1.960  0.0044 -0.0399  0.2613
25411W        W42258   8.609   1.235   3.160 -0.1704 -0.1420 -0.1147
25412W        W42259  15.943  18.392  13.782 -0.2514 -0.1597  0.0257
25413W        W42260   0.801  19.365   4.272  0.1536  0.0677 -0.2316
25414W        W42261  19.612  17.402   1.508 -0.2392  0.2058 -0.0276
25415W        W42262   4.925  18.409  12.077 -0.0497  0.0718 -0.1420
25416W        W42263  14.849  14.908   0.319  0.2279  0.3073  0.3817
25417W        W42264  15.222   5.662   2.797  0.0491  0.1883  0.0349
25418W        W42265  15.098   0.390   9.627 -0.1011  0.1240 -0.0754
25419W        W42266   1.794   9.344   3.753  0.1628 -0.0302  0.1017
25420W        W42267   1.363  14.633  13.203 -0.0387 -0.1349 -0.1597
25421W        W42268   7.469   5.230   2.265  0.4143  0.2651 -0.0663
25422W        W42269   8.827  14.580   1.808 -0.0222  0.3395  0.2670
25423W        W42270   2.878   2.417  11.433 -0.3169  0.0368  0.0889
25424W        W42271   1.037   5.355   3.397  0.0317 -0.0309 -0.0480
25425W        W42272  10.521   9.066   3.969  0.2095 -0.3549  0.1313
25426W        W42273   2.110  16.945   0.567  0.2051 -0.1969  0.0350
25427W        W42274  19.421   3.006  12.809 -0.0981 -0.1038 -0.0547
25428W        W42275  14.725  17.701  10.051 -0.0891 -0.1376  0.3515
25429W        W42276  13.126   0.944  10.392  0.2338 -0.0167 -0.0205
25430W        W42277  10.482  15.611   2.551  0.0871 -0.3797 -0.0867
25431W        W42278   5.267   8.742   3.140 -0.1321  0.1609 -0.3050
25432W        W42279  10.368  13.333   3.307 -0.1654 -0.2571  0.1090
25433W        W42280   5.972   8.641  11.371  0.1761  0.1046 -0.0717
25434W        W42281   0.954   4.487  14.157 -0.0241  0.1753 -0.2001
25435W        W42282  15.241  14.918  13.303  0.0169  0.1948  0.0984
25436W        W42283   0.266  11.221   4.166 -0.3410  0.0852 -0.0234
25437W        W42284  12.104  12.478  10.780 -0.0330  0.1341 -0.0393
25438W        W42285   2.377   1.569  14.204  0.2754  0.0488  0.0966
25439W        W42286   8.056  15.342  11.585 -0.1719  0.0405  0.0801
25440W        W42287   0.512   9.370   3.142 -0.1614 -0.1835 -0.0237
25441W        W42288   7.488  17.093   3.175  0.3044  0.0919  0.1709
25442W        W42289   4.970   3.954  13.422 -0.1586  0.0127  0.0343
25443W        W42290   3.575   4.670  12.546  0.2438 -0.1772 -0.0809
25444W        W42291   0.335  16.869  14.124 -0.3569 -0.1051 -0.2286
25445W        W42292   1.115  12.806  13.454 -0.1805 -0.0054 -0.3975
25446W        W42293   2.508  18.347  10.416  0.1816 -0.2969  0.1426
25447W        W42294   5.906   4.401   1.099 -0.1034  0.1672 -0.0351
25448W        W42295   6.018   0.917  13.583  0.1005  0.0574 -0.1197
25449W        W42296   2.895   9.820   2.949 -0.1505 -0.0472 -0.0438
25450W        W42297   0.108  14.485   2.390 -0.1923 -0.1487  0.0259
25451W        W42298   2.339   4.482   5.318 -0.0749 -0.1287  0.2554
25452W        W42299  17.262  17.761  11.302 -0.1108  0.2872  0.2464
25453W        W42300  11.434   8.274  11.975 -0.1168 -0.2000  0.2778
25454W        W42301   5.454  12.888   2.023 -0.0781 -0.2543 -0.3590
25455W        W42302  14.527   8.575   3.913 -0.2242 -0.0647 -0.0119
25456W        W42303   7.278  16.976  14.189 -0.0402  0.1328  0.0285
25457W        W42304  12.180  13.381  12.704  0.0493 -0.3039 -0.0828
25458W        W42305   7.191   9.024   1.687 -0.1465 -0.0525  0.1739
25459W        W42306  17.302  14.397  12.687 -0.0965  0.3467 -0.0989
25460W        W42307  10.261  17.575   0.086 -0.3272  0.0657 -0.2483
25461W        W42308  17.078   8.449  13.295 -0.0996  0.3568  0.0506
25462W        W42309   9.424   3.674   3.440  0.0299 -0.0169  0.0531
25463W        W42310   6.143   5.007   9.952 -0.0385 -0.3684  0.0329
25464W        W42311   9.167  16.730   1.808 -0.2551  0.1910 -0.0196
25465W        W42312  10.310  11.103  13.355  0.0257 -0.1914 -0.0330
25466W        W42313   5.178   9.175  13.232 -0.2384 -0.2218  0.0386
25467W        W42314  11.334  11.217   2.829 -0.0288 -0.0628 -0.0821
25468W        W42315  10.566  16.870  12.378  0.5622 -0.1754  0.0933
25469W        W42316   5.468   0.595  12.630  0.3558  0.1578 -0.1411
25470W        W42317  19.295  13.983  13.812 -0.1753  0.2463 -0.1829
25471W        W42318   8.038   9.895  12.606 -0.1435 -0.0868  0.0400
25472W        W42319  11.424  16.254   1.990  0.1055  0.1276  0.2591
25473W        W42320   3.979   5.369  14.525 -0.0787  0.3612 -0.0638
25474W        W42321  12.629   0.769   2.101  0.1724  0.2601  0.2444
25475W        W42322  11.450   4.266   9.366  0.0511 -0.4021  0.2369
25476W        W42323  17.568  17.820   1.178 -0.1363 -0.0790  0.3471
25477W        W42324  19.478   7.147  13.315 -0.1659 -0.0919 -0.4397
25478W        W42325   2.224   8.610   0.192 -0.0281 -0.1532 -0.1518
25479W        W42326   2.787  19.203   0.153 -0.0734  0.0880  0.2407
25480W        W42327  15.770   1.337  13.688 -0.0728 -0.2503  0.1708
25481W        W42328  15.766   6.619   2.129  0.0013 -0.0544 -0.1270
25482W        W42329  11.028   6.637   1.213  0.1597  0.3760  0.1293
25483W        W42330  13.492  19.251   3.702  0.0795 -0.0490 -0.1241
25484W        W42331   4.110   6.619   2.066  0.0817 -0.0534  0.1693
25485W        W42332   5.319  16.386  11.795  0.0102  0.1149  0.0328
25486W        W42333   5.692   8.730   0.315 -0.2478  0.1165  0.0510
25487W        W42334  12.867  15.259  10.795 -0.0546  0.0634 -0.1888
25488W        W42335   9.326   4.955   1.055 -0.1655 -0.2078  0.1569
25489W        W42336   3.905   3.678   4.484 -0.2492 -0.2197 -0.2932
25490W        W42337   4.415  15.083  13.391  0.0063  0.2630 -0.1248
25491W        W42338  18.708  16.098  10.095 -0.2860  0.0224  0.0559
25492W        W42339   5.852  13.558   2.672  0.0436 -0.1951 -0.2465
25493W        W42340   4.257  17.291   0.235  0.1925 -0.0439  0.0433
25494W        W42341  12.939   6.965   0.740 -0.0117  0.0839  0.1411
25495W        W42342   7.439   3.184   4.240 -0.1250 -0.2412 -0.2941
25496W        W42343   4.669   1.720   0.423  0.0132 -0.0849  0.1644
25497W        W42344  16.194  13.672  13.626 -0.1766 -0.1270 -0.0687
25498W        W42345   4.713   5.703  11.957  0.1294 -0.1689 -0.1797
25499W        W42346  17.419   2.473   3.249 -0.1868  0.3969 -0.1855
25500W        W42347   4.781  13.919  11.181 -0.0527 -0.1182  0.1881
25501W        W42348  16.068   8.341   5.201 -0.1864 -0.0009  0.0361
25502W        W42349   7.587  18.836   2.826  0.3007  0.0015  0.2972
25503W        W42350  11.444   5.623   3.244  0.0904  0.0990  0.1354
25504W        W42351  12.196  18.898  10.490 -0.2034 -0.0154 -0.0082
25505W        W42352   5.661   8.239   3.848  0.1391 -0.2135  0.3508
25506W        W42353   0.131   9.986  13.398  0.0973 -0.0376 -0.0674
25507W        W42354  18.820   5.655  11.899  0.2406 -0.1790  0.0429
25508W        W42355   8.139  17.717  12.905 -0.3062 -0.0530 -0.1803
25509W        W42356  10.661  10.616  10.200  0.3573  0.1426  0.1277
25510W        W42357  11.807  12.067  13.782 -0.1746 -0.0033  0.0623
25511W        W42358  18.406  11.051  12.410  0.1030  0.0141  0.1692
25512W        W42359  19.361   6.948   1.044  0.2078 -0.2855 -0.1570
25513W        W42360   7.344   7.510   3.841 -0.2056 -0.0369  0.2153
25514W        W42361  14.762  17.219   2.391 -0.0891  0.0205  0.0419
25515W        W42362   7.567  14.401   2.723  0.2830 -0.1919  0.3248
25516W        W42363  12.671  17.478  10.567 -0.0384  0.1706  0.2572
25517W        W42364  18.409  14.283  14.306  0.0894 -0.2438 -0.1305
25518W        W42365   3.791   5.877   0.045 -0.1026  0.4940  0.3648
25519W        W42366  13.641   9.474  11.760  0.0726  0.4593 -0.2291
25520W        W42367   5.559  17.727   0.197  0.1924 -0.1131 -0.2996
25521W        W42368  11.502   9.739   3.074 -0.0237 -0.1712 -0.1691
25522W        W42369  14.727  13.489  11.895 -0.3572 -0.1321  0.1097
25523W        W42370   3.953   7.101  14.370 -0.0358 -0.3958  0.1329
25524W        W42371  16.271  10.462   3.487 -0.0776  0.0916 -0.1071
25525W        W42372   9.527   9.109   2.616 -0.1082  0.0659 -0.1637
25526W        W42373  14.250  15.786   1.918  0.2825  0.2053  0.1750
25527W        W42374  13.653   4.704   0.105  0.0411 -0.1010 -0.1733
25528W        W42375   7.828  13.100   0.114 -0.3160 -0.0978  0.2732
25529W        W42376  18.152  12.117  13.794  0.0816  0.1278  0.0739
25530W        W42377   8.759  13.983  11.739 -0.3013  0.1447 -0.1545
25531W        W42378  11.780  17.647  13.292  0.1201 -0.0908 -0.1183
25532W        W42379  18.251   6.516   9.548 -0.1562  0.0957  0.1726
25533W        W42380  14.853  12.101  13.564  0.0347 -0.2389  0.4175
25534W        W42381  16.305   8.963   4.516  0.2183  0.2972  0.0590
25535W        W42382  19.070  11.532  13.036  0.1169  0.3569 -0.1527
25536W        W42383   8.815  17.391   4.524 -0.0263  0.1230 -0.1765
25537W        W42384  16.234  11.935   4.339 -0.0733  0.3823  0.3334
25538W        W42385  12.941   5.608  11.620  0.0255 -0.2071  0.0167
25539W        W42386   0.657   7.898   5.441 -0.0237  0.0253  0.1626
25540W        W42387   2.338  14.166  13.074 -0.0447 -0.1204  0.2623
25541W        W42388  17.289  15.972   3.908 -0.2120 -0.0800 -0.3001
25542W        W42389   4.272   5.074   2.633 -0.0436  0.0762 -0.1602
25543W        W42390  11.112   4.570  14.583  0.0584 -0.0130 -0.1670
25544W        W42391  16.553   7.040  14.475  0.0306 -0.0653 -0.5621
25545W        W42392  11.317   1.689  13.815  0.1888  0.1869  0.3236
25546W        W42393  14.885   1.869   0.621  0.1980  0.4453  0.2034
25547W        W42394  13.705   9.637   3.758  0.0197  0.0456 -0.0254
25548W        W42395   9.432  17.531  10.270  0.1135 -0.2971 -0.3237
25549W        W42396  14.233   8.551   3.392 -0.1887  0.1038 -0.1631
25550W        W42397   0.146   2.805   0.056 -0.1938 -0.2072 -0.0755
25551W        W42398   4.086   7.557   1.667  0.3723  0.1059 -0.4111
25552W        W42399   1.594  10.574  12.088  0.0391 -0.0325  0.1473
25553W        W42400   2.572  18.778   9.637 -0.2153 -0.0601  0.0308
25554W        W42401  11.132  15.875   3.992  0.2930  0.1270  0.1292
25555W        W42402   2.360  17.657  13.791  0.2829  0.0880  0.2879
25556W        W42403   0.811  13.349   3.481  0.1400  0.1852 -0.0941
25557W        W42404  16.448   8.293   4.818 -0.0121 -0.0487  0.1354
25558W        W42405  18.256  12.304   0.039 -0.0580 -0.4058 -0.1639
25559W        W42406  16.922  11.536   2.199  0.3119  0.1304  0.4741
25560W        W42407  13.378   6.769  13.012 -0.2157  0.1005  0.1114
25561W        W42408   3.245   1.639   1.431  0.0620 -0.0287  0.2541
25562W        W42409   2.566   8.641   0.575  0.4424 -0.0792 -0.1030
25563W        W42410   1.694   7.519   1.899  0.0669  0.0462  0.1317
25564W        W42411  18.212  11.933   1.477  0.0028 -0.2224  0.2748
25565W        W42412   6.890  15.969   5.070  0.2350 -0.1899 -0.0084
25566W        W42413   1.060  18.826   2.563 -0.0988 -0.1257  0.1683
25567W        W42414   1.144   1.278  13.676  0.2422 -0.1593 -0.0747
25568W        W42415  16.719  13.826  13.686 -0.2616 -0.0973  0.2722
25569W        W42416   3.677  17.899  11.831  0.0063  0.1593  0.0900
25570W        W42417  17.574  16.427  11.407  0.0116  0.0851 -0.1900
25571W        W42418  15.936   3.686   1.253 -0.0620  0.1830 -0.3814
25572W        W42419  14.163   1.893   3.378  0.0845 -0.3290  0.0245
25573W        W42420  13.457  12.416  10.299 -0.0342  0.0945  0.1392
25574W        W42421   6.351  12.290   3.836 -0.3021 -0.1111 -0.0325
25575W        W42422   8.914  16.951   1.049 -0.0977 -0.3370 -0.2899
25576W        W42423   3.423  19.197   2.464 -0.1864 -0.3217 -0.2762
25577W        W42424  16.504  17.299  11.526 -0.1115 -0.1619 -0.0718
25578W        W42425  15.665   4.814  13.218 -0.2176 -0.0199  0.1975
25579W        W42426   2.479  18.845   0.026  0.2606  0.3921 -0.0392
25580W        W42427   2.994  19.217   2.041  0.0345 -0.0909  0.1384
25581W        W42428  19.016   4.785   9.510 -0.1973 -0.1621  0.4156
25582W        W42429  14.370   2.659  11.468 -0.0075  0.3983 -0.3190
25583W        W42430   3.246  17.639   3.092  0.3218  0.0189  0.0000
25584W        W42431   8.510   7.859  13.668 -0.2298  0.1856  0.0254
25585W        W42432  12.962   7.012  11.279 -0.3139 -0.1366 -0.3606
25586W        W42433  14.329   4.359  10.716  0.0185 -0.1916  0.1883
25587W        W42434  10.461  12.197   5.861 -0.1008  0.0890 -0.1888
25588W        W42435  17.776  13.029   1.947 -0.1535  0.2869  0.0399
25589W        W42436  18.336   0.871  12.585  0.1661  0.4097 -0.2777
25590W        W42437  12.119   5.629  12.246 -0.0947  0.1870  0.0280
25591W        W42438   0.574  15.542  10.635  0.3322 -0.0767 -0.3282
25592W        W42439  14.574  13.284   4.932  0.0336 -0.2392 -0.1423
25593W        W42440  12.252   7.012  14.530  0.2059  0.2271 -0.2375
25594W        W42441  13.379  14.160   2.751 -0.1168 -0.1488 -0.0000
25595W        W42442   5.901  17.038   4.740  0.3499  0.0759 -0.0564
25596W        W42443  18.838  12.731  13.361  0.1558  0.2356 -0.0006
25597W        W42444   6.240   4.192  12.099  0.1347 -0.0477 -0.0658
25598W        W42445   4.883   4.326  13.018 -0.3828 -0.0324  0.0288
25599W        W42446   0.708  12.367  13.752 -0.1098  0.1736 -0.0143
25600W        W42447   1.214  16.454   1.548 -0.1642  0.2127  0.0464
25601W        W42448   2.301  14.327  11.682  0.0548 -0.0486  0.1658
25602W        W42449  11.876  11.436   4.408 -0.1174 -0.1319  0.0473
25603W        W42450   9.643   8.616  11.198  0.2047 -0.0307 -0.3064
25604W        W42451   8.282  19.058   2.212 -0.2902  0.2668  0.1925
25605W        W42452  12.689   8.458  13.809 -0.0050  0.1918  0.4719
25606W        W42453  16.709   7.988   1.943  0.0090  0.1732 -0.0171
25607W        W42454  11.959  12.313  11.521 -0.1325  0.1882  0.1710
25608W        W42455  14.998  11.124  10.497 -0.3089 -0.2246  0.2489
25609W        W42456   3.561   7.578   4.809  0.0990  0.0011  0.2445
25610W        W42457   6.907   0.033   1.393  0.0870  0.0565 -0.1301
25611W        W42458   5.648  19.379   3.165 -0.2491  0.3115  0.0308
25612W        W42459   1.360   8.503  13.006 -0.1518  0.2322  0.2233
25613W        W42460   6.072  11.415   2.352  0.2790  0.1497  0.0219
25614W        W42461   9.384   1.279  13.731 -0.1764  0.1749 -0.0566
25615W        W42462  11.412  16.190   1.407 -0.0757 -0.2756 -0.4137
25616W        W42463  11.962   3.058  10.548  0.0835 -0.1431  0.2939
25617W        W42464   4.507  16.172   4.730 -0.0230  0.2113 -0.3136
25618W        W42465  18.312   8.051  13.793  0.2836  0.1055 -0.0362
25619W        W42466   7.893   2.591   3.580  0.3084  0.0031  0.0658
25620W        W42467   5.550   4.196   9.581 -0.1833 -0.0871 -0.0213
25621W        W42468   2.998   6.904   1.837  0.0298 -0.1271 -0.1372
25622W        W42469  16.019  12.321   8.982 -0.1264 -0.2688  0.0056
25623W        W42470   8.763   9.474  13.640 -0.1339  0.2576  0.1673
25624W        W42471   6.320   9.697   5.476 -0.3845 -0.1220 -0.5036
25625W        W42472   8.820   4.836  12.298 -0.0939  0.2507 -0.0565
25626W        W42473  15.252  11.022  13.072 -0.2225  0.0070 -0.3501
25627W        W42474   9.124   4.569   1.741 -0.2222  0.2518 -0.1401
25628W        W42475   6.739  18.608  10.203 -0.1072  0.4229 -0.2491
25629W        W42476  16.885  13.122   2.807 -0.0310 -0.2886 -0.2310
25630W        W42477  12.643  15.760   2.258 -0.1664 -0.0029  0.0949
25631W        W42478  18.976  16.392   1.392 -0.1690 -0.0330 -0.0323
25632W        W42479  17.055  19.280  12.459  0.3357 -0.1006  0.0586
25633W        W42480  10.126   6.359  14.062  0.3145 -0.1954 -0.2934
25634W        W42481   8.719  14.680   2.640  0.0877  0.3018  0.2979
25635W        W42482   6.266   5.603  12.186 -0.0193 -0.0471 -0.0990
25636W        W42483  12.794  16.406   0.542 -0.3775 -0.0707  0.2059
25637W        W42484  10.755   2.744   2.875 -0.0090 -0.2124  0.0950
25638W        W42485  14.159   5.813  12.492  0.4604  0.1746 -0.1154
25639W        W42486  11.469  12.950   2.755  0.3293  0.2334 -0.0171
25640W        W42487  15.428   3.700   2.066  0.1140  0.0799 -0.0441
25641W        W42488  15.508  16.403  14.419 -0.0861  0.3387 -0.0440
25642W        W42489   8.626   8.151  13.253  0.0292  0.2794 -0.1028
25643W        W42490   3.692   8.248  12.133 -0.2793  0.0450 -0.1298
25644W        W42491   8.546  12.791  12.266 -0.6776  0.0354  0.2314
25645W        W42492   5.413   2.219   4.397  0.0650  0.2147 -0.0239
25646W        W42493  14.933   1.574  13.397  0.1233  0.0536 -0.0848
25647W        W42494  10.682   4.460   2.565 -0.2154  0.1009 -0.1588
25648W        W42495   3.230  12.370   2.771  0.3484 -0.1502  0.4715
25649W        W42496   3.361   9.674  10.705 -0.0377  0.3597 -0.0652
25650W        W42497  10.371   2.700   1.513 -0.0922  0.1182  0.0115
25651W        W42498  19.469   0.815   1.682 -0.0187 -0.2366  0.4015
25652W        W42499  11.949  13.560  10.812  0.0223  0.2442  0.1287
25653W        W42500  18.238  16.267   3.663  0.0641 -0.1526  0.0327
25654W        W42501   2.668   5.468   2.254 -0.1032  0.1635 -0.2550
25655W        W42502  14.892   6.087  12.886  0.4051  0.0572 -0.0089
25656W        W42503  18.345   2.348   0.122 -0.2937  0.0311 -0.0655
25657W        W42504   2.066  15.074   1.874 -0.3536  0.3700 -0.2933
25658W        W42505  12.577   5.555   4.111 -0.0472 -0.2341 -0.2370
25659W        W42506   7.762   5.098   0.018  0.3044 -0.0853 -0.1643
25660W        W42507   5.931   5.147   0.022 -0.0952  0.2015  0.2437
25661W        W42508   1.994  18.178   1.496 -0.0737 -0.0859  0.1684
25662W        W42509  13.347   8.997   4.325 -0.0785 -0.1181 -0.0044
25663W        W42510   6.211   8.762   3.205 -0.1195 -0.2381  0.4061
25664W        W42511  13.019   3.729  13.732  0.2782  0.1855  0.0593
25665W        W42512  12.786  19.523   3.455 -0.0773  0.0213 -0.1631
25666W        W42513  12.039  19.052   3.903 -0.0873  0.2546  0.2848
25667W        W42514  11.083   1.389  12.996  0.4865  0.1099  0.0691
25668W        W42515  13.941  15.137  14.506 -0.0075 -0.0825  0.0402
25669W        W42516   8.525   8.843   2.911  0.1756 -0.0728  0.0620
25670W        W42517   3.049   4.295  14.269 -0.0628 -0.1130 -0.0679
25671W        W42518  12.309   4.537   3.095 -0.0924 -0.1234 -0.1241
25672W        W42519   0.489  10.618  14.293 -0.1287 -0.1872 -0.1663
25673W        W42520  14.670   6.684   4.971 -0.0787 -0.1838 -0.0075
25674W        W42521   9.292   2.966   5.439  0.0315  0.2510 -0.3185
25675W        W42522  10.776  10.807   3.730  0.0660  0.2047 -0.1163
25676W        W42523  19.372  11.281   4.312  0.2526 -0.0875 -0.3557
25677W        W42524  14.189   4.736   4.511  0.2718 -0.2555  0.1630
25678W        W42525  18.910  11.574  11.387  0.0966  0.0230  0.0467
25679W        W42526   8.170  19.089   4.555 -0.3058 -0.1267  0.0562
25680W        W42527   4.758  18.251   0.969  0.2752  0.0417  0.0988
25681W        W42528  13.847   7.930  10.323  0.0917 -0.1258  0.0550
25682W        W42529  17.894  19.256  14.039  0.0211 -0.1615  0.3768
25683W        W42530  14.575  17.424   4.288  0.0713 -0.1847 -0.0430
25684W        W42531   3.040   0.655   1.570 -0.1143  0.2618 -0.0617
25685W        W42532  13.386   1.504   1.171 -0.3407 -0.3099  0.1102
25686W        W42533   9.387  10.884  12.798 -0.0973  0.2384  0.0138
25687W        W42534  12.443   8.434   5.138 -0.3353 -0.1058  0.1229
25688W        W42535   6.532  16.598   0.946 -0.0029 -0.0641 -0.0498
25689W        W42536  14.398  10.204   1.749  0.3513  0.0762  0.2076
25690W        W42537  16.512  19.285  12.397  0.0209 -0.2604  0.0422
25691W        W42538  14.521   4.272  12.674  0.1038  0.1466 -0.1967
25692W        W42539   3.719  13.955  11.400  0.0555 -0.0044  0.1269
25693W        W42540   6.712  14.106   9.827 -0.2709 -0.0223 -0.0293
25694W        W42541   0.022  14.012  13.444  0.0826 -0.2592  0.2270
25695W        W42542   6.027   9.835  11.844 -0.0009 -0.2490 -0.1838
25696W        W42543  16.743   7.894   2.495  0.0302  0.0772 -0.4020
25697W        W42544  11.706   0.702   3.303  0.0353 -0.0585  0.1138
25698W        W42545  12.050   1.606   0.053 -0.0073 -0.0898 -0.2017
25699W        W42546   9.458  10.450   1.332 -0.0799 -0.4080 -0.3765
25700W        W42547   0.236   8.975  12.114 -0.0782  0.0132  0.1111
25701W        W42548  17.244  18.051  13.881 -0.3909  0.0513  0.1008
25702W        W42549   2.373   9.735  11.657 -0.0552 -0.0811  0.0234
25703W        W42550  18.268   3.157  14.036 -0.0593  0.1264 -0.2648
25704W        W42551  16.915   4.043  13.186 -0.0361  0.0510  0.0704
25705W        W42552  17.943   5.458  10.302  0.2126  0.0851  0.3193
25706W        W42553  15.233  15.766  12.175  0.0566 -0.0323 -0.0447
25707W        W42554   0.794   2.313  14.175 -0.1636 -0.3028  0.1355
25708W        W42555   9.514  17.250  11.676 -0.2758 -0.0527 -0.0330
25709W        W42556  13.552   8.179  12.156  0.1353 -0.2800 -0.1857
25710W        W42557  12.147   8.500  10.856  0.3520  0.1122 -0.2344
25711W        W42558  16.505  14.253  10.463  0.1706 -0.0504 -0.2735
25712W        W42559   6.383   7.135  13.334  0.1371 -0.0763  0.0790
25713W        W42560   2.797   1.464  13.486  0.0896  0.2562 -0.1164
25714W        W42561  16.921   4.788   0.863 -0.5311 -0.0638  0.4355
25715W        W42562   5.849   1.590  11.411 -0.1535 -0.0793 -0.2265
25716W        W42563   6.213  17.836  10.210 -0.0726 -0.1097 -0.1552
25717W        W42564  11.085  15.081  13.874 -0.0069 -0.2411 -0.0300
25718W        W42565  17.783  14.685   0.504  0.3786 -0.1457 -0.1238
25719W        W42566   3.866   0.262   2.148 -0.1119 -0.0239 -0.1086
25720W        W42567  14.602   2.786  13.751  0.2772 -0.2504  0.1838
25721W        W42568   5.987   7.611   0.360  0.0310 -0.2310 -0.1747
25722W        W42569   3.266   6.405   4.266 -0.2075  0.3800 -0.2039
25723W        W42570  12.792   4.198  13.852 -0.1367 -0.1509 -0.1252
25724W        W42571   3.436  16.507  12.842  0.0223 -0.0996 -0.2609
25725W        W42572   8.249  11.418   3.694  0.0356  0.2536  0.0624
25726W        W42573  11.155  12.861   4.974 -0.0052 -0.2751  0.2242
25727W        W42574   5.172  15.798   3.951 -0.0989 -0.0295  0.2213
25728W        W42575   0.857  11.165  13.611 -0.0126  0.0434  0.1494
25729W        W42576  13.120  12.391  13.715  0.0960 -0.3351 -0.4838
25730W        W42577  14.671   1.335  10.388  0.0578 -0.0502 -0.0042
25731W        W42578  10.552   3.718  11.206  0.2293  0.2655 -0.0302
25732W        W42579  13.702   5.040  12.738 -0.0964  0.1699  0.1249
25733W        W42580  11.599  17.336   1.781  0.3475  0.1994  0.1283
25734W        W42581  13.710  17.723  12.263  0.3485  0.1213  0.0224
25735W        W42582   6.337   7.345   1.090  0.1817  0.0621  0.2539
25736W        W42583  17.073   0.925  11.932 -0.2962 -0.4333 -0.1279
25737W        W42584  12.273  19.570   4.443  0.0750  0.0659 -0.3381
25738W        W42585   1.700   8.238   4.240 -0.0374  0.1111 -0.2576
25739W        W42586  11.951  17.751  12.674 -0.1792 -0.0278 -0.0421
25740W        W42587   7.072  14.192   1.931 -0.0008 -0.0198 -0.1065
25741W        W42588   6.791  19.430   5.268 -0.1929  0.0704 -0.1477
25742W        W42589   0.723   1.029  12.418  0.0912 -0.1206  0.0129
25743W        W42590   2.115   8.151  12.129 -0.0461 -0.0826 -0.0825
25744W        W42591   6.152   0.110   1.765  0.2731 -0.2194  0.2439
25745W        W42592  15.080  13.104   1.026  0.2927  0.1710 -0.2220
25746W        W42593   0.021   5.223  13.401  0.0707  0.1013  0.0577
25747W        W42594  10.105  18.237   0.493  0.0129 -0.2571 -0.3573
25748W        W42595  11.658   2.338  11.558  0.0539  0.4071  0.2140
25749W        W42596  17.672  16.076  13.057 -0.2784 -0.2279 -0.0940
25750W        W42597   8.299   2.423   4.109  0.1939 -0.2846  0.0313
25751W        W42598   4.413   0.496  10.795  0.4383 -0.1280  0.0469
25752W        W42599  11.228  11.466   1.184  0.0396 -0.0243  0.3008
25753W        W42600  11.081   3.099  10.503  0.1896 -0.2740 -0.1013
25754W        W42601  18.925  10.389  14.112  0.2601  0.0981 -0.2497
25755W        W42602   4.523  15.247   4.260 -0.0486 -0.1675 -0.0127
25756W        W42603   8.242   8.906  11.686 -0.3719  0.1613 -0.0093
25757W        W42604   6.941   3.860  13.324 -0.2673  0.2171  0.1816
25758W        W42605  16.450  15.454  13.881  0.1187 -0.0051 -0.0624
25759W        W42606   5.555   9.703   3.815  0.0487 -0.0792  0.1017
25760W        W42607  17.193  11.788   3.968 -0.0327  0.2452  0.0630
25761W        W42608  13.086   2.888   2.464 -0.0401 -0.0849 -0.2904
25762W        W42609   6.887  12.579  13.090  0.0887  0.1414 -0.0717
25763W        W42610  16.981  16.664   2.102 -0.0891  0.0083  0.1233
25764W        W42611  10.036  16.892   3.842 -0.2615 -0.2616 -0.0616
25765W        W42612   3.255   0.033  13.320 -0.0328  0.0579  0.1187
25766W        W42613  17.761  11.626  10.659 -0.2063  0.3420  0.2049
25767W        W42614   4.340   4.641   3.769  0.1464  0.1641 -0.0870
25768W        W42615   9.399   5.991   4.272  0.1785 -0.0443  0.4575
25769W        W42616  14.152  15.901   3.393  0.5159 -0.1011 -0.0070
25770W        W42617   6.389  16.350   1.439 -0.1170 -0.0372  0.0867
25771W        W42618  19.426   8.865  12.879 -0.2404 -0.2576  0.1533
25772W        W42619  14.127  17.917  12.167 -0.0087 -0.2622 -0.1836
25773W        W42620   1.285  13.415  11.995  0.2240 -0.0941  0.1112
25774W        W42621  10.120  17.025  11.222 -0.0547 -0.0604  0.2114
25775W        W42622  18.064   4.079  11.562  0.1542 -0.2527 -0.0960
25776W        W42623  17.456   0.870   5.190 -0.0491  0.2023  0.1237
25777W        W42624   8.493   1.846  13.356 -0.0295 -0.0210 -0.1922
25778W        W42625  16.156   7.237  11.334 -0.1843 -0.0308 -0.1140
25779W        W42626  16.308  14.047  12.676 -0.3225 -0.1654 -0.2603
25780W        W42627   5.979  17.373   0.368  0.0193  0.4076  0.1391
25781W        W42628  12.936   1.228   2.121 -0.0744 -0.3059 -0.1559
25782W        W42629   0.457  12.233  12.343 -0.0257  0.1962  0.1489
25783W        W42630   0.401   3.315   0.254  0.0731  0.0174  0.1233
25784W        W42631  18.438   9.488  12.086  0.4189 -0.2739 -0.0189
25785W        W42632  11.378   8.100   2.893 -0.2684  0.3218  0.1747
25786W        W42633  11.080  18.563  10.631 -0.0515 -0.1933  0.0656
25787W        W42634   3.576  10.829   2.608  0.3382 -0.3403  0.1397
25788W        W42635  18.566  18.538   2.858 -0.0817 -0.0544 -0.0740
25789W        W42636   8.771  10.475  14.476  0.0439 -0.0599 -0.1307
25790W        W42637   8.385   2.578   2.602  0.0470 -0.3754 -0.2401
25791W        W42638   7.768  19.264   0.500 -0.1261 -0.0403 -0.1694
25792W        W42639   1.716  15.076   0.700 -0.0829 -0.0575 -0.2009
25793W        W42640  11.074  19.544  12.915  0.3520 -0.0523  0.0588
25794W        W42641  10.531   4.159  13.489 -0.0509  0.1375  0.5108
25795W        W42642  17.969   0.757  10.810 -0.1730 -0.5001 -0.0609
25796W        W42643   0.728   4.692  12.288  0.2620 -0.3789  0.0541
25797W        W42644  16.853   3.409   1.265 -0.1756 -0.0266 -0.1146
25798W        W42645  12.412   6.787   3.385 -0.0324 -0.3571 -0.4497
25799W        W42646  10.081  13.435   2.867  0.2588  0.0325 -0.1115
25800W        W42647  17.443   5.635  10.105 -0.3568 -0.0917 -0.0101
25801W        W42648  12.498  12.599   3.089 -0.0127  0.1961  0.0717
25802W        W42649  18.305  14.131   2.001 -0.3871 -0.2221  0.4910
25803W        W42650  18.571  12.557  10.322  0.1175 -0.0192  0.1429
25804W        W42651   9.718   5.166   2.883  0.0323 -0.3591  0.0999
25805W        W42652  12.173  16.060  13.598 -0.2217 -0.1146 -0.3356
25806W        W42653  11.688   8.882  11.013 -0.1173 -0.2424 -0.1619
25807W        W42654  13.619   7.371  11.097 -0.2205  0.2015 -0.0492
25808W        W42655   2.526  11.463   3.441 -0.0564  0.0672 -0.0956
25809W        W42656  18.247  11.876   2.447 -0.1230  0.3311 -0.0513
25810W        W42657  16.641   3.817  12.114  0.1206  0.1966  0.1751
25811W        W42658   8.407   1.421   2.678  0.2208  0.1526 -0.1480
25812W        W42659   3.135  18.517   4.022 -0.1258  0.0923  0.0533
25813W        W42660   1.690  18.570  13.975  0.2100  0.0517 -0.2498
25814W        W42661   0.153   8.749   0.645 -0.4831  0.2205 -0.2265
25815W        W42662   0.940  12.975   2.543 -0.1864 -0.0223  0.0961
25816W        W42663  10.790  16.754   1.151  0.0768  0.0580  0.0067
25817W        W42664   9.522  14.099  11.200  0.1245 -0.1755 -0.2259
25818W        W42665   6.652  11.632   8.982  0.2483 -0.0240  0.1628
25819W        W42666  19.457   7.202   3.498  0.0314 -0.2294  0.4894
25820W        W42667   7.211   0.257   2.017  0.0739  0.3473 -0.1166
25821W        W42668   5.905  18.180   3.970  0.2691  0.3002 -0.2885
25822W        W42669  17.529   1.654   1.066 -0.0322  0.2608 -0.1454
25823W        W42670  14.147  16.619   4.499 -0.2487  0.0370  0.2070
25824W        W42671   5.423  13.635  10.956 -0.0650  0.3659  0.0088
25825W        W42672  10.751   1.919   3.850  0.0682 -0.2548  0.0788
25826W        W42673  10.063  13.468   1.311  0.4315 -0.0849 -0.4444
25827W        W42674  11.804   4.869   0.461 -0.0896 -0.1931  0.0545
25828W        W42675  13.342  14.216   2.236  0.0049  0.1531  0.0008
25829W        W42676  18.913  16.459   3.288 -0.0900 -0.0545 -0.2107
25830W        W42677   4.185  18.544   9.715  0.1216 -0.0580  0.1287
25831W        W42678   8.527   9.760  10.424 -0.6495 -0.0885  0.1579
25832W        W42679   4.326   8.059   1.696 -0.0048 -0.0717  0.0422
25833W        W42680  18.434  16.678  14.348 -0.2697  0.0083  0.1338
25834W        W42681   3.296   8.137   4.789 -0.3051 -0.0666  0.1740
25835W        W42682   3.010  11.480  14.116 -0.3606  0.1503 -0.3594
25836W        W42683  12.687   2.727  14.022 -0.1386 -0.2338 -0.3454
25837W        W42684  17.752  15.162  10.448  0.5711  0.0904 -0.1923
25838W        W42685  19.413   4.709  11.216 -0.1467  0.1198  0.2246
25839W        W42686   4.696  14.840   0.846 -0.2046 -0.0519 -0.2173
25840W        W42687   2.996   8.780   4.499  0.1541  0.0558 -0.1581
25841W        W42688   3.280  10.092  11.079  0.1738 -0.0530  0.0342
25842W        W42689  10.636  14.273  13.573 -0.0699 -0.0666 -0.2628
25843W        W42690  15.176  16.969   2.673 -0.3490  0.0082  0.2256
25844W        W42691   1.194   1.780   0.996 -0.1645 -0.3236 -0.1719
25845W        W42692   6.216  11.372  12.267 -0.0130 -0.0244 -0.1383
25846W        W42693  16.185  16.134   2.099 -0.2290 -0.1619  0.0376
25847W        W42694   9.646   7.551  13.186 -0.0895 -0.0420  0.0090
25848W        W42695   4.308   6.649  14.332  0.2145 -0.1769 -0.0772
25849W        W42696   3.842   6.391  13.693  0.3370 -0.2309 -0.0962
25850W        W42697   9.294  18.511   0.425  0.0187  0.2577 -0.0921
25851W        W42698   1.809   4.483  12.528  0.2567 -0.0046  0.0436
25852W        W42699   2.903  17.718  11.376  0.2148 -0.2638  0.0780
25853W        W42700   3.829   4.944   1.176  0.1656  0.2007 -0.1660
25854W        W42701  19.614   7.737   2.718  0.0558  0.0585 -0.2667
25855W        W42702  15.369  11.697   3.467 -0.1149 -0.3348 -0.1012
25856W        W42703   4.032  17.076   1.715 -0.1794  0.0282 -0.2810
25857W        W42704   1.288  16.031   1.089  0.0277  0.1331  0.2951
25858W        W42705   1.165   6.387   4.243  0.4815 -0.1886 -0.0017
25859W        W42706  17.436   2.175   4.401 -0.4069  0.3830 -0.0122
25860W        W42707   1.402   3.051  11.994  0.1208 -0.0748 -0.0720
25861W        W42708   9.194   3.179  11.864 -0.4512 -0.0379  0.0864
25862W        W42709   1.314  16.159  10.157  0.0305  0.0367  0.1418
25863W        W42710  12.962  19.323  12.476 -0.4749  0.1526 -0.2005
25864W        W42711   5.010   8.501   9.269  0.0503  0.4199 -0.1884
25865W        W42712  17.175   8.939   4.184  0.1200  0.0197 -0.0782
25866W        W42713   3.307   6.908   4.349  0.1408  0.1068  0.1146
25867W        W42714  15.951  16.305   1.133 -0.1469  0.1531 -0.2520
25868W        W42715   3.153  18.344   1.192 -0.0013  0.1927  0.2612
25869W        W42716  17.039   5.963   1.728 -0.4314 -0.1950 -0.0309
25870W        W42717  19.122  12.205   1.937 -0.1501  0.0165  0.0339
25871W        W42718  19.191   1.949  13.264  0.0397  0.1338  0.0240
25872W        W42719  18.744  13.096   3.719 -0.1373 -0.0309 -0.2175
25873W        W42720   8.863   8.336  10.156 -0.4502 -0.1821  0.0686
25874W        W42721  18.907  16.380  14.178  0.1130  0.0660  0.1156
25875W        W42722  12.805  11.633   3.315  0.3468  0.1163  0.3224
25876W        W42723   3.028  15.928   3.436  0.0883 -0.3329 -0.0015
25877W        W42724   6.214   4.336   1.530  0.2257  0.0538 -0.0924
25878W        W42725   5.036   0.634  13.855  0.4475  0.1175  0.0189
25879W        W42726   4.653  16.357   1.336 -0.1519  0.0144 -0.0092
25880W        W42727  15.884   6.072  10.526 -0.1933  0.4765  0.1681
25881W        W42728   9.506   9.261  12.062 -0.2305  0.1786 -0.0215
25882W        W42729  11.789   8.224   3.743 -0.1244 -0.2626  0.1553
25883W        W42730  12.444   7.698   3.548 -0.3840  0.2671  0.1714
25884W        W42731  16.763   0.374   0.052 -0.0217  0.3635 -0.1603
25885W        W42732   6.001  13.645   5.222 -0.2792  0.0376  0.0720
25886W        W42733  17.378   0.252   0.863  0.0835  0.1390 -0.2207
25887W        W42734   9.946   9.989  10.306 -0.0231  0.1191 -0.3396
25888W        W42735   3.083   9.670  12.538  0.0716 -0.2943 -0.4836
25889W        W42736   0.470   2.241  10.674  0.0353  0.1189  0.1758
25890W        W42737   4.992   0.947   3.373 -0.1560 -0.0797  0.2450
25891W        W42738  14.456   5.251  11.189  0.0290 -0.2384 -0.2072
25892W        W42739  16.018  10.101  11.038 -0.4520 -0.1920 -0.4451
25893W        W42740   3.840  13.611  12.770 -0.0018 -0.0171  0.2465
25894W        W42741   3.360  12.599   3.186 -0.3234  0.0977 -0.0960
25895W        W42742  17.931   6.182  12.504 -0.0935 -0.1736 -0.2862
25896W        W42743   5.451  10.325   2.715 -0.0925  0.0209 -0.0030
25897W        W42744   2.868  11.604   5.477  0.0520  0.0744  0.1993
25898W        W42745   1.784  12.725   5.902  0.2750 -0.1346 -0.0409
25899W        W42746  16.820   4.873  13.862  0.0494  0.1071  0.1177
25900W        W42747   6.500   8.351   2.167  0.1282 -0.0438 -0.1123
25901W        W42748   8.227  11.035   0.017  0.1652  0.0123  0.0266
25902W        W42749  15.681  14.753  12.387 -0.1498 -0.1359 -0.2195
25903W        W42750  12.943   5.586  12.737  0.3417  0.1412  0.1230
25904W        W42751   9.042   0.615   4.469  0.1226 -0.2480 -0.0537
25905W        W42752  16.931   3.897   4.240  0.0481  0.2742 -0.3248
25906W        W42753  16.120  10.519   0.886  0.1453 -0.0003  0.0372
25907W        W42754   4.494  13.006  14.192  0.0142  0.1364  0.0274
25908W        W42755   4.127   5.801  14.286 -0.1350  0.0753  0.0298
25909W        W42756   5.445   1.960  12.734 -0.1590  0.1134  0.0153
25910W        W42757  10.918   5.946   0.323 -0.1498  0.3440  0.3087
25911W        W42758   4.612   5.322  13.102  0.3767 -0.0454  0.2373
25912W        W42759   6.815   6.297   1.056  0.0567  0.0234 -0.1204
25913W        W42760  15.093  11.353   2.715  0.0567 -0.1824 -0.0156
25914W        W42761   5.747  18.205   0.253 -0.0188 -0.0222  0.0574
25915W        W42762   8.625   6.594  10.611  0.1944  0.1512 -0.0282
25916W        W42763   7.288   1.923   0.448  0.1682  0.3651 -0.4275
25917W        W42764   1.626   6.185   2.581 -0.0553 -0.0091 -0.1592
25918W        W42765  11.632  17.273  14.122  0.0183  0.0342  0.1941
25919W        W42766   9.214  11.279   3.636 -0.1127 -0.1993 -0.0746
25920W        W42767   1.473  17.110  13.048 -0.1798 -0.2587 -0.0747
25921W        W42768   0.327   9.609   4.563 -0.0313  0.1167  0.0915
25922W        W42769  14.438  15.242  14.580  0.0949 -0.3944 -0.0429
25923W        W42770  16.840   5.260  10.506 -0.3105  0.1962  0.0259
25924W        W42771  18.257  14.974   1.409 -0.0258 -0.1750  0.0532
25925W        W42772   2.850  17.752  10.812  0.0796 -0.2852 -0.0080
25926W        W42773  11.695  18.230   1.837  0.0774 -0.0889 -0.4967
25927W        W42774   8.261   0.974  11.323 -0.0827 -0.0465  0.1559
25928W        W42775  12.955  19.412  11.061  0.2285  0.1797  0.3248
25929W        W42776  13.384   4.317  11.231 -0.2612 -0.0657 -0.1478
25930W        W42777  13.611   5.450  12.041  0.0368 -0.0886  0.2941
25931W        W42778   5.104   8.341   2.267  0.0645  0.0204  0.2787
25932W        W42779  16.381  12.897   3.198  0.2435 -0.4156 -0.0325
25933W        W42780   4.167   6.421  11.016 -0.0064 -0.1659  0.0856
25934W        W42781  14.594  12.396   2.100 -0.3546 -0.0321  0.2002
25935W        W42782   9.509  14.509   2.635  0.1367  0.1857 -0.2221
25936W        W42783  15.046   5.754   0.087 -0.0576  0.0289  0.0087
25937W        W42784  14.520   9.191   4.579 -0.0203 -0.2579  0.2855
25938W        W42785  12.602   4.585  10.766  0.3491 -0.0234 -0.0239
25939W        W42786  19.114   6.372  13.183  0.3346  0.2733 -0.0221
25940W        W42787   7.583   2.177   0.166  0.1081 -0.1280  0.0027
25941W        W42788  19.576  17.752   4.596 -0.0521  0.0177  0.1742
25942W        W42789  11.152   0.453   2.577  0.0024 -0.1848  0.0063
25943W        W42790  14.674   3.456  10.948 -0.1379  0.1410 -0.2172
25944W        W42791   1.518   9.664  14.302  0.0715  0.3054 -0.0068
25945W        W42792  15.577   7.174  14.520 -0.0186  0.1526  0.3212
25946W        W42793  16.381   9.604  13.945  0.0341 -0.1442 -0.0362
25947W        W42794   1.984   9.349   2.287  0.2182  0.3048 -0.2325
25948W        W42795   5.400   7.288  11.507 -0.1352 -0.2006 -0.1012
25949W        W42796   8.390  17.000   2.082  0.4688 -0.0222 -0.1418
25950W        W42797   8.836   4.902   4.235 -0.0134  0.0146  0.1241
25951W        W42798   0.966   7.492  11.737 -0.0235 -0.0627 -0.1886
25952W        W42799  14.747  17.981   0.060 -0.1437 -0.2676  0.3778
25953W        W42800  18.391  12.501  12.159 -0.2058 -0.1534 -0.1447
25954W        W42801  11.894   6.197   1.457 -0.0548  0.2708  0.0602
25955W        W42802   2.072  13.296  12.518  0.2134 -0.0086  0.0336
25956W        W42803   1.484  18.743  13.285 -0.0015 -0.0354 -0.1078
25957W        W42804  16.438   9.588  10.516 -0.2380  0.0915 -0.2002
25958W        W42805  15.454   7.901   3.168 -0.1455 -0.1483 -0.0552
25959W        W42806  12.191   9.583   0.623  0.1478  0.1015  0.4595
25960W        W42807  15.445   8.503   3.000  0.2102 -0.1214  0.0182
25961W        W42808  19.231   0.289   3.479  0.0332  0.1576 -0.2069
25962W        W42809  12.720   3.736   0.162 -0.1948 -0.0798 -0.0884
25963W        W42810  12.488  13.502   1.928 -0.0137  0.1826 -0.3149
25964W        W42811   2.030   6.781  13.119 -0.0756  0.1096  0.2264
25965W        W42812   3.873  11.649   2.193  0.0846 -0.2794 -0.1906
25966W        W42813  17.127  10.310   1.592 -0.2951 -0.0981  0.3087
25967W        W42814   2.854  11.876  10.978  0.4303 -0.1619 -0.4467
25968W        W42815  12.311  10.770   2.777 -0.0167 -0.1376  0.3054
25969W        W42816   6.151   7.928   1.715  0.0864 -0.1707  0.1167
25970W        W42817  14.177  13.403  10.139  0.0598 -0.1313 -0.1391
25971W        W42818  15.931  16.574  14.587  0.0915 -0.1102 -0.0619
25972W        W42819  17.728  16.355  13.547  0.2833 -0.3495  0.1188
25973W        W42820  17.720  12.611  11.125  0.0036  0.2582  0.8153
25974W        W42821   8.465   8.523   0.445 -0.2236 -0.0304 -0.1811
25975W        W42822   9.985  17.952  13.039 -0.1232 -0.1089  0.3633
25976W        W42823   7.128  18.251  13.751 -0.0607  0.3527  0.0918
25977W        W42824  18.013  17.307   0.401 -0.1146 -0.3087 -0.6240
25978W        W42825   5.234  18.202   3.397  0.2180  0.1301  0.0176
25979W        W42826  15.245  14.779  11.982 -0.1925 -0.1149  0.2606
25980W        W42827  10.117   3.931   0.639  0.0154 -0.1267 -0.6317
25981W        W42828   2.451  14.024   4.505  0.0803 -0.1215 -0.3022
25982W        W42829  16.272  18.879  12.494  0.1988  0.0584  0.0967
25983W        W42830   9.664  11.796  11.460  0.3051 -0.2095  0.3209
25984W        W42831   4.116   7.877   1.310 -0.2165 -0.0090  0.2060
25985W        W42832   5.484   7.561   5.188  0.1095 -0.0068 -0.0992
25986W        W42833   5.754   4.238   3.353 -0.0328  0.1271  0.0929
25987W        W42834   2.686   2.578   4.284 -0.0710 -0.0462 -0.2580
25988W        W42835   1.123   3.938   4.573  0.3313 -0.0782 -0.3812
25989W        W42836   6.933   1.619  12.613 -0.6558  0.2684 -0.2379
25990W        W42837   7.160  18.248  10.767  0.0383 -0.4253  0.0268
25991W        W42838   9.348   1.852  11.713 -0.0745  0.0424 -0.1229
25992W        W42839  16.215   7.891   1.808  0.1009 -0.2973  0.0410
25993W        W42840  18.136   6.460  12.177  0.0555  0.1627 -0.3365
25994W        W42841   8.918   8.314  14.211  0.0933 -0.3706 -0.1171
25995W        W42842   4.281   6.646  13.475 -0.1853 -0.0729 -0.0021
25996W        W42843  18.559   2.704   1.441 -0.0248  0.0156  0.1463
25997W        W42844  15.800  12.486   3.000 -0.0919 -0.0533  0.4881
25998W        W42845   9.085   2.061   0.749  0.0320  0.4671  0.1725
25999W        W42846  19.153   0.387  10.888  0.1527 -0.0360 -0.0289
26000W        W42847   9.724  13.783   3.623  0.1374  0.4740 -0.1233
26001W        W42848  14.978   7.307   3.614  0.2864 -0.2051 -0.0653
26002W        W42849  14.084  10.801   0.428 -0.3326  0.0059 -0.2509
26003W        W42850  14.387   5.519   2.267 -0.2294 -0.0394  0.5979
26004W        W42851   0.701   3.572   4.008  0.2232  0.2098 -0.2245
26005W        W42852  15.458  11.445   9.997  0.0695 -0.1537  0.2229
26006W        W42853   9.732  11.215  13.823 -0.1227  0.2692 -0.0608
26007W        W42854  15.162   2.710   0.217  0.3356 -0.2632 -0.0237
26008W        W42855   7.810   1.706  11.663  0.0623 -0.1362 -0.0153
26009W        W42856  15.371   4.590  12.935 -0.0437  0.2090  0.2968
26010W        W42857  13.185   3.541  10.911  0.0576  0.0353 -0.0179
26011W        W42858   4.740  18.011  13.859 -0.2326  0.1960  0.1142
26012W        W42859  19.128  14.259  11.846 -0.1495  0.0289  0.3905
26013W        W42860  12.578  17.105   4.165  0.0186 -0.1188  0.3455
26014W        W42861  17.614  17.085   0.104  0.2377 -0.0689 -0.0776
26015W        W42862   9.231  11.004   1.872  0.1284  0.1648  0.2136
26016W        W42863   2.849  11.131  13.838 -0.0384  0.2923  0.2217
26017W        W42864  16.881  16.987  11.825 -0.0283 -0.1704 -0.2441
26018W        W42865  11.809   4.558   1.744  0.1498 -0.3318 -0.1925
26019W        W42866   4.530  17.738  11.252 -0.0510  0.2848  0.2212
26020W        W42867   1.609   3.303   2.848  0.1864 -0.1763 -0.4239
26021W        W42868  15.654   2.688  12.524 -0.2082 -0.1593  0.3707
26022W        W42869  17.700   7.440   3.149  0.1270  0.0341 -0.0602
26023W        W42870   9.640   2.889  11.838  0.2340  0.1170  0.1035
26024W        W42871  12.221  18.146  12.120 -0.1518  0.0407 -0.1054
26025W        W42872  10.640  16.642   4.703 -0.0227  0.0347 -0.1777
26026W        W42873  13.868  19.555  10.907  0.0133 -0.2148  0.1619
26027W        W42874   6.174   9.921   2.183 -0.2109 -0.0375  0.1507
26028W        W42875   9.531   4.365   2.705 -0.0465  0.2355  0.1365
26029W        W42876  12.309  16.897  12.210 -0.1710  0.4446 -0.0262
26030W        W42877   8.812  13.885   2.995 -0.0848 -0.0621  0.1468
26031W        W42878  13.307   3.935   9.910  0.1483 -0.1037 -0.1294
26032W        W42879  17.887  18.833   3.642  0.3548 -0.3566 -0.0551
26033W        W42880   4.435   7.748  12.202 -0.1432  0.0481 -0.1023
26034W        W42881  16.731  12.418  14.274 -0.1433  0.0809 -0.0169
26035W        W42882   9.553   4.084   1.754 -0.0544  0.0298  0.1561
26036W        W42883  10.163  12.571   1.418  0.1354 -0.0102 -0.0128
26037W        W42884   9.689   6.724   1.755 -0.1141  0.0585  0.0166
26038W        W42885   7.540   6.027   4.520  0.2258 -0.0180 -0.2001
26039W        W42886   8.925  13.783  10.665  0.1390 -0.0534 -0.3279
26040W        W42887   6.523  12.255  10.584  0.2422  0.0208 -0.0634
26041W        W42888  11.842  13.472  14.206 -0.0236  0.1241  0.0828
26042W        W42889   1.068   9.074  12.195  0.0718  0.0392  0.1585
26043W        W42890  10.342   2.113  14.536 -0.4642 -0.0236 -0.3435
26044W        W42891   9.642  10.026  12.782  0.2243 -0.1093  0.1374
26045W        W42892   5.898   8.747   4.419  0.3321 -0.1463 -0.1509
26046W        W42893   7.322   8.126   0.017  0.3271 -0.0476  0.1888
26047W        W42894  19.073  16.631   4.672 -0.0258  0.0193  0.1031
26048W        W42895  15.698   6.170   4.442 -0.1697  0.1843  0.1389
26049W        W42896  17.767  11.912   2.324  0.4055 -0.2210 -0.0646
26050W        W42897  17.174  18.269   3.886 -0.1066  0.1924  0.0087
26051W        W42898  12.091   9.570   2.471 -0.1997 -0.2842  0.3313
26052W        W42899   1.643   5.509   4.418  0.0502  0.1940 -0.1193
26053W        W42900  11.579   1.415   3.906  0.1347 -0.1781 -0.0296
26054W        W42901   8.558   2.787   4.894  0.0337  0.4419  0.1580
26055W        W42902  13.450   2.276  10.599  0.0759 -0.1212 -0.1636
26056W        W42903   6.777   4.979  10.943  0.3384  0.0506 -0.4125
26057W        W42904  14.462   2.872   2.167 -0.0164  0.2461 -0.0706
26058W        W42905  19.565   9.142  12.448  0.3309 -0.1788 -0.0017
26059W        W42906  11.247  17.727   0.385  0.1211 -0.1653 -0.1482
26060W        W42907  19.079  16.251   5.085  0.0790  0.0708  0.1158
26061W        W42908  13.661  14.721   4.589 -0.0015 -0.0113  0.0843
26062W        W42909   5.668  18.079   9.772  0.3901  0.2272  0.1068
26063W        W42910   3.049  19.129  10.368 -0.2039 -0.1456 -0.0322
26064W        W42911  10.217  14.669   2.016  0.0225  0.1250  0.1511
26065W        W42912  14.801  17.701   3.272  0.1909 -0.0514 -0.0020
26066W        W42913  18.578   6.611  14.262  0.1730  0.1694  0.2251
26067W        W42914  10.870   1.393  14.257  0.2618 -0.3993  0.2196
26068W        W42915  16.488   2.884   0.865 -0.0121 -0.0539 -0.1657
26069W        W42916   8.444  11.573   2.687 -0.1270  0.2985  0.2575
26070W        W42917  14.047  16.948  11.742  0.3031 -0.1431 -0.0568
26071W        W42918  17.126   8.273   2.103 -0.2823  0.2265 -0.0950
26072W        W42919  12.824  15.946  12.829 -0.0374  0.0900 -0.0044
26073W        W42920  11.915  18.586   1.340  0.5167 -0.3004  0.0730
26074W        W42921  14.886  17.777   1.591  0.2729 -0.1401 -0.3468
26075W        W42922   2.980  18.536  10.372 -0.0604 -0.3435 -0.1682
26076W        W42923   3.196   4.089  11.566 -0.0804 -0.3436  0.1617
26077W        W42924   5.437   0.035  13.128  0.0194 -0.0446 -0.0801
26078W        W42925   2.853  12.825   0.875  0.1221 -0.0296 -0.3294
26079W        W42926   9.288  13.014  12.818 -0.0360 -0.1614  0.3179
26080W        W42927   9.622  18.479   1.289 -0.0883  0.2614  0.0727
26081W        W42928   6.470  16.272  10.528  0.2374  0.0245  0.0308
26082W        W42929  10.205  14.456  11.713  0.1557 -0.2692 -0.0623
26083W        W42930  15.531   9.735   2.286  0.0160  0.3022 -0.2241
26084W        W42931  14.049   4.767  11.394  0.0526 -0.2664  0.1167
26085W        W42932   1.971  12.882  11.986  0.0400 -0.1193 -0.0321
26086W        W42933   1.972  11.640   4.000 -0.2247 -0.1085 -0.0049
26087W        W42934   3.461   2.022  11.851  0.0383 -0.1006 -0.2071
26088W        W42935  19.279  10.800   1.813  0.2825  0.0824 -0.3563
26089W        W42936  12.386   3.616  13.082 -0.2789 -0.2940  0.0461
26090W        W42937  16.474  18.034   0.707  0.1953 -0.1010 -0.1350
26091W        W42938   1.515  17.622  10.911 -0.2432 -0.2021  0.1449
26092W        W42939   4.100   3.171  13.633 -0.3374  0.0581  0.1126
26093W        W42940   1.058  19.350   2.233 -0.2962 -0.2691  0.0543
26094W        W42941   8.686   0.068   3.173 -0.0380  0.1740  0.3187
26095W        W42942  17.519   7.424  14.023 -0.1825 -0.1325 -0.5133
26096W        W42943   7.882   4.067   2.324  0.0436 -0.3169 -0.2009
26097W        W42944  18.548   9.161   2.218  0.3720 -0.3078  0.1530
26098W        W42945   6.444   6.055   0.503  0.0009 -0.1991 -0.2646
26099W        W42946  17.643   7.123   4.053 -0.1508 -0.2666  0.0631
26100W        W42947  10.189   7.953  11.577  0.2506 -0.0656  0.2789
26101W        W42948   6.687   7.047   1.981  0.2102  0.1386  0.3845
26102W        W42949   9.149  10.643   0.993 -0.0457 -0.0453  0.0643
26103W        W42950  10.078  13.021   2.521  0.2145  0.1093  0.0352
26104W        W42951  18.429  14.313   3.877 -0.2874  0.3270 -0.1741
26105W        W42952  12.001  12.032   3.428 -0.1784  0.0847 -0.2801
26106W        W42953  13.288   0.914   3.690  0.1290  0.1850 -0.0939
26107W        W42954   5.723  10.254   0.911  0.0597 -0.0581 -0.2099
26108W        W42955  11.376   8.175   3.431  0.3372  0.0120 -0.2145
26109W        W42956  10.896   0.980   3.334 -0.1346 -0.1149 -0.1972
26110W        W42957  16.786   0.719  11.243 -0.3173  0.1440  0.1223
26111W        W42958  15.511  15.470   1.325  0.0694  0.1570 -0.0360
26112W        W42959   5.356   8.769   2.073  0.0792 -0.0102  0.1417
26113W        W42960  13.075   4.580   0.319 -0.0715 -0.1783 -0.0137
26114W        W42961   2.686   5.219  11.266  0.2429  0.2329 -0.2523
26115W        W42962  12.558  15.448   2.644  0.1189 -0.2553 -0.1637
26116W        W42963   6.391  19.014   2.523  0.1809  0.0363 -0.1500
26117W        W42964   9.070   5.071  13.597 -0.0529  0.0456 -0.1022
26118W        W42965   3.812   1.209  13.136 -0.0081  0.0532 -0.1144
26119W        W42966   4.092   7.523   0.044 -0.0895 -0.0512 -0.2260
26120W        W42967   8.925  11.096  13.433 -0.3500 -0.2225 -0.1066
26121W        W42968  12.268  12.957   4.366  0.3208 -0.1459 -0.0378
26122W        W42969   5.772   4.680   4.945 -0.1887 -0.0891 -0.1824
26123W        W42970  19.436  16.340   2.651  0.2335 -0.0397 -0.1545
26124W        W42971   8.533  18.700  12.216 -0.3227 -0.0679  0.4072
26125W        W42972  17.253  12.104  10.297  0.0079 -0.0441  0.0426
26126W        W42973   0.173   1.384   4.187  0.1974 -0.1704 -0.1352
26127W        W42974   6.899  12.938   0.334 -0.0730  0.1400 -0.1690
26128W        W42975   6.084  17.111  13.512  0.0075  0.0762  0.4100
26129W        W42976   8.716   9.282  12.111  0.3553  0.0315  0.0804
26130W        W42977   4.622  17.268  13.088 -0.0755 -0.1288  0.2575
26131W        W42978  12.033   4.501   0.781  0.2360 -0.4230 -0.0032
26132W        W42979  18.565   7.818   2.073 -0.1217  0.2450 -0.2241
26133W        W42980   8.764  17.493   1.854  0.3450 -0.2808 -0.1192
26134W        W42981  11.624  14.888   1.997  0.0454  0.3292  0.4667
26135W        W42982  18.244   1.547   1.122  0.0290  0.2205 -0.0128
26136W        W42983  16.527  14.701  13.842  0.1024 -0.2213 -0.1627
26137W        W42984   9.341   8.651   2.556 -0.1069 -0.1601 -0.0109
26138W        W42985   7.129  14.999   2.378  0.1226 -0.2057  0.2531
26139W        W42986  16.652   7.576  10.564 -0.1621  0.2366  0.0258
26140W        W42987   9.113   8.566   1.452 -0.0137  0.0919  0.1874
26141W        W42988   7.284   4.742  10.906  0.1819 -0.1051 -0.0550
26142W        W42989   8.908  10.703   0.429 -0.0060  0.0892  0.2000
26143W        W42990  11.526  13.609  12.671 -0.0783 -0.1659 -0.4220
26144W        W42991   1.249   5.452   4.720 -0.1638 -0.0342  0.2607
26145W        W42992  14.400   8.735  14.210  0.2873 -0.0497 -0.2831
26146W        W42993  14.540  19.441   2.187  0.3817  0.4844 -0.0643
26147W        W42994   0.580   3.145   3.546  0.3675 -0.2926 -0.1278
26148W        W42995   2.821  13.874   4.136 -0.1761 -0.3261  0.0746
26149W        W42996   4.922  13.449  10.969 -0.0106 -0.0869 -0.0817
26150W        W42997  12.383  10.570   4.740 -0.2019 -0.2296  0.0706
26151W        W42998  13.830   9.824   1.086 -0.1571 -0.2065  0.5348
26152W        W42999  11.208  13.368  13.016 -0.1052  0.1279  0.3405
26153W        W43000  17.444  10.837  12.352 -0.0262 -0.3704  0.0349
26154W        W43001   9.348  14.009   0.135  0.0815  0.1693 -0.0406
26155W        W43002  17.344  15.794   2.186 -0.0651  0.1113 -0.2822
26156W        W43003  15.640  15.985   4.442 -0.1077  0.2970  0.1620
26157W        W43004  11.190   6.425  13.981 -0.0756 -0.2828 -0.0529
26158W        W43005  15.894  12.952   2.768 -0.1393 -0.1248  0.0164
26159W        W43006  18.367   4.270   3.501  0.2048 -0.2245  0.0152
26160W        W43007   5.877  18.944  11.967 -0.2537  0.1025 -0.3543
26161W        W43008   4.073  17.221  10.783 -0.0506  0.0927 -0.5524
26162W        W43009   8.239   1.482  12.533 -0.0205 -0.2450  0.2247
26163W        W43010   7.916  12.302  14.156 -0.0346  0.2018  0.2258
26164W        W43011  15.740  12.402   1.911 -0.0845  0.2261 -0.3721
26165W        W43012   6.310   7.646   5.616  0.0899 -0.1558 -0.2145
26166W        W43013   5.754  16.184  11.153  0.1514 -0.3173 -0.3390
26167W        W43014   3.421   3.396   1.633 -0.1302  0.1387 -0.1128
26168W        W43015   6.187  14.855   1.131 -0.2474 -0.0934  0.1135
26169W        W43016   3.799  16.933   0.806  0.1169  0.0950 -0.2707
26170W        W43017   9.454   8.306   1.808  0.0396  0.0201 -0.1253
26171W        W43018  11.955  16.290   2.724  0.0474  0.0639 -0.0397
26172W        W43019   1.430  18.734   4.083  0.0476  0.1942  0.1736
26173W        W43020   1.944  16.869  11.837 -0.1490 -0.1936  0.1024
26174W        W43021   8.060  10.396   9.178  0.0978  0.0471 -0.0188
26175W        W43022   5.718   5.445  12.677  0.0004 -0.2800 -0.2632
26176W        W43023   0.418  14.551   0.776 -0.4425  0.0427 -0.0915
26177W        W43024   0.364  18.700   1.205 -0.2081 -0.0734 -0.4331
26178W        W43025  15.124  18.613   2.556  0.1876 -0.2969 -0.0154
26179W        W43026  11.394  11.100  10.348  0.2191 -0.0459  0.0226
26180W        W43027  13.315   2.582  11.903  0.2651  0.2121 -0.0591
26181W        W43028  19.300   6.503   0.172 -0.0574 -0.0721  0.0751
26182W        W43029  12.776  18.852  10.602 -0.2318  0.4124 -0.0366
26183W        W43030  10.155   5.160  12.859  0.0121 -0.1974 -0.1237
26184W        W43031   6.822  18.111   4.399  0.0239  0.4098  0.1133
26185W        W43032  10.339   1.438   2.714  0.2846 -0.2266  0.0034
26186W        W43033   9.217   7.243  13.065  0.0963 -0.2947  0.0913
26187W        W43034   6.944  17.631  12.139 -0.0893 -0.1467  0.1242
26188W        W43035  12.900  13.542  12.231 -0.0204  0.1603  0.2178
26189W        W43036   7.369  12.743  13.390  0.0211  0.1993 -0.0359
26190W        W43037  11.563  13.386   4.749  0.0770  0.0022  0.2413
26191W        W43038   2.036   1.633   2.922 -0.2086 -0.2122  0.0588
26192W        W43039   1.270  17.178   0.149  0.0790 -0.0704 -0.0184
26193W        W43040  13.893   0.693   5.255  0.0165 -0.1898  0.1342
26194W        W43041  15.933  17.191   3.076 -0.2514 -0.1189  0.2300
26195W        W43042  15.716  10.861  13.847  0.0988  0.4083 -0.1112
26196W        W43043  18.901  15.491  12.939 -0.3672  0.0431  0.2043
26197W        W43044  15.375   1.497   3.330  0.1263  0.2509 -0.1157
26198W        W43045   4.242  18.007   9.725  0.0560 -0.2590  0.0293
26199W        W43046   0.464  18.595  13.633  0.3077  0.1609  0.3002
26200W        W43047   2.182  12.039  13.275 -0.2729  0.3402  0.2927
26201W        W43048  13.330  17.159   0.366 -0.0067 -0.4303 -0.2912
26202W        W43049   2.483  10.650   2.399  0.2772  0.2255 -0.1580
26203W        W43050  19.048  14.121  14.397  0.0813  0.1839 -0.1085
26204W        W43051  10.913   2.824  14.329  0.1620 -0.0147  0.1051
26205W        W43052   2.050   3.049  10.659  0.1973 -0.0045 -0.0140
26206W        W43053  19.171   6.883  10.487  0.1778  0.1345  0.0241
26207W        W43054   3.729   2.729  13.111  0.0556  0.3668  0.2614
26208W        W43055   4.821  11.471  11.403  0.0650 -0.0601  0.0581
26209W        W43056  10.694  13.309   3.869 -0.0186  0.2038 -0.1492
26210W        W43057   3.886   8.855  14.069 -0.2134  0.1658 -0.0897
26211W        W43058   7.408   4.467   1.112 -0.2653 -0.0138 -0.0311
26212W        W43059  19.298   9.330  12.808 -0.2169  0.2030  0.0624
26213W        W43060   5.108   5.483  13.220  0.1347  0.2559 -0.3170
26214W        W43061   5.511  12.002   1.064 -0.2014  0.2177  0.3360
26215W        W43062   0.541   3.274  12.221  0.1896 -0.3820  0.0093
26216W        W43063  12.468  14.921   3.630 -0.3441 -0.0969  0.6472
26217W        W43064   6.749  14.685  12.620 -0.2398 -0.0567 -0.1155
26218W        W43065  13.624   3.738   5.266 -0.0593  0.1464 -0.0205
26219W        W43066   5.946  19.203   4.828  0.0764  0.2339  0.1381
26220W        W43067  11.494   2.758   4.382  0.0682  0.3346 -0.2728
26221W        W43068  18.186  17.682   1.787  0.2784  0.1965  0.0654
26222W        W43069  12.276  12.403  12.242 -0.1494  0.0509  0.0676
26223W        W43070  13.089  11.876  14.580  0.0105  0.3788  0.0153
26224W        W43071  16.766   7.059   4.714  0.2979 -0.0234 -0.0786
26225W        W43072  13.685   3.794   3.484  0.3380 -0.0940  0.1758
26226W        W43073  16.601   2.440   5.382  0.1934  0.0672 -0.1032
26227W        W43074  15.535  15.264   0.595 -0.1652  0.0096  0.1487
26228W        W43075  12.366   3.212  11.557 -0.3018  0.1371 -0.0976
26229W        W43076  10.515   0.481  11.381 -0.0784 -0.3056 -0.1292
26230W        W43077  10.127   2.534  13.193  0.0242 -0.2455 -0.1898
26231W        W43078   2.261  15.142   4.484 -0.0904  0.3792 -0.3637
26232W        W43079  18.111  18.945   1.965  0.1520 -0.1346  0.2840
26233W        W43080  17.569  17.429  11.016  0.1159 -0.0268 -0.0403
26234W        W43081   3.285  16.288   2.563 -0.3563 -0.2385 -0.2278
26235W        W43082  18.490  12.253  10.884  0.0436 -0.1364 -0.0348
26236W        W43083   4.866  19.401   1.525 -0.2269  0.0652  0.0017
26237W        W43084  16.337   6.620  12.746  0.2197  0.2168 -0.0340
26238W        W43085   9.407  15.576   4.507  0.3470 -0.1979  0.0509
26239W        W43086   2.023  19.199  13.512  0.2049  0.0547 -0.1574
26240W        W43087   2.979  15.029   1.601  0.4972  0.1308 -0.1009
26241W        W43088   8.383  18.443   1.208  0.0374  0.2215 -0.1504
26242W        W43089  18.653  15.140  14.424  0.2202  0.1643 -0.0404
26243W        W43090  10.732  16.277   3.345 -0.0842 -0.0969 -0.0591
26244W        W43091  16.800   6.879   2.401 -0.2381  0.0954 -0.1821
26245W        W43092  12.487   2.294   0.501 -0.0258 -0.1795  0.2281
26246W        W43093  12.871  15.671   4.009 -0.1969 -0.0966  0.2584
26247W        W43094  16.084   6.623   4.980  0.0747 -0.1268  0.0221
26248W        W43095   6.369  11.150   3.779  0.0754 -0.1761  0.1205
26249W        W43096   2.464  17.811   4.546 -0.1015  0.0906 -0.1279
26250W        W43097   1.341  17.240   1.623  0.1698 -0.0964  0.4957
26251W        W43098   2.290   8.551  10.896 -0.2777  0.3244  0.3974
26252W        W43099  10.438   0.641   4.072 -0.0527  0.0278  0.0294
26253W        W43100  15.452   7.260  10.424  0.4788  0.1865  0.1350
26254W        W43101  19.194  15.724   8.997 -0.0623 -0.0580  0.2757
26255W        W43102   2.471  14.976  14.081 -0.1010  0.2310 -0.1954
26256W        W43103  16.928   2.181  11.230  0.0414 -0.0744  0.1256
26257W        W43104   1.265  12.560   5.660  0.1721 -0.1938 -0.1801
26258W        W43105   5.604   0.689  11.186  0.1050 -0.1663  0.3074
26259W        W43106  14.376   9.457   1.175 -0.3675 -0.1241 -0.1415
26260W        W43107  15.259   0.344  12.887 -0.3187  0.1455 -0.1592
26261W        W43108   6.341   5.846   9.974 -0.0236 -0.0259  0.3282
26262W        W43109  10.089  11.032  12.042  0.0987 -0.0470 -0.4871
26263W        W43110  19.098  12.611  11.615  0.0682 -0.0584  0.2717
26264W        W43111   6.766  17.032  14.297 -0.0518  0.2701  0.0769
26265W        W43112   3.354   7.938  10.337 -0.0016 -0.0838  0.1640
26266W        W43113   6.145   4.866   4.539  0.0803 -0.0386  0.2799
26267W        W43114   7.012  12.193   1.002 -0.0883  0.2416  0.2530
26268W        W43115  10.681   4.597  12.604 -0.1760 -0.0254 -0.3028
26269W        W43116   6.714   4.695  13.215 -0.1778 -0.3172 -0.2056
26270W        W43117   3.014  13.897  12.120 -0.1061  0.0886  0.3024
26271W        W43118   6.856   7.317  12.927  0.0599 -0.1180 -0.1832
26272W        W43119   7.883   9.349   1.987 -0.0870 -0.1814  0.0405
26273W        W43120   0.219  18.152  11.848  0.0390  0.1448  0.0257
26274W        W43121   0.786   3.028  13.676  0.0472  0.0598  0.1706
26275W        W43122  13.796  10.539   3.688 -0.1143  0.3108  0.0144
26276W        W43123  16.555   0.523   3.805  0.2572 -0.2597  0.2817
26277W        W43124  10.932   3.823  14.151 -0.1690  0.0215 -0.0005
26278W        W43125  18.608   9.224   5.890  0.1106  0.0051  0.0662
26279W        W43126  18.765  17.788   2.025 -0.0245  0.1387  0.0440
26280W        W43127   9.477  10.384   3.558  0.0372  0.0616  0.3877
26281W        W43128  17.989  19.474   1.110  0.2846  0.1472 -0.0250
26282W        W43129  10.020  14.089  12.018  0.2323 -0.3492  0.1744
26283W        W43130   6.762   1.024   2.400 -0.0814 -0.2834 -0.1831
26284W        W43131  10.938  18.079   2.507 -0.0876  0.0193  0.1602
26285W        W43132  14.376   5.064   1.010  0.2979 -0.0094  0.0469
26286W        W43133   4.159  19.557   2.423 -0.4616  0.0495 -0.0224
26287W        W43134  14.134  18.222  13.971 -0.0729  0.2050 -0.0330
26288W        W43135  19.021   5.809   3.759  0.2930  0.0118  0.0958
26289W        W43136  19.445   0.856  11.952  0.0390  0.0720 -0.0248
26290W        W43137  16.700   5.228   5.323  0.0716 -0.1441  0.2011
26291W        W43138  15.713   6.209   2.700 -0.0638 -0.0210 -0.2635
26292W        W43139   6.636   5.916   3.416 -0.1219 -0.0928 -0.3484
26293W        W43140   2.465  14.145  12.606  0.2386  0.2403  0.2423
26294W        W43141  14.809  11.969   9.927 -0.0184  0.2635 -0.1219
26295W        W43142  17.823   4.968  11.059 -0.0757 -0.1914 -0.1625
26296W        W43143  14.200   4.358   2.215 -0.0342  0.2318 -0.2697
26297W        W43144  16.087   3.499   3.356  0.1502 -0.1639  0.0700
26298W        W43145   3.593  12.578  11.915  0.0583  0.2111  0.2984
26299W        W43146   4.650   6.123   4.945 -0.0046  0.1931  0.1321
26300W        W43147   8.251   4.227   4.876  0.0370 -0.1682  0.3208
26301W        W43148   4.114  12.737   5.316 -0.0297 -0.1087  0.4448
26302W        W43149  12.380  13.379   3.584 -0.1128  0.2958  0.1426
26303W        W43150   9.802   2.313   4.415  0.1020  0.0684 -0.1853
26304W        W43151   8.190   8.623   3.167  0.1806 -0.0752 -0.1466
26305W        W43152   3.235  11.323   5.682  0.0232 -0.3081  0.2226
26306W        W43153  10.320  10.894   4.858  0.1180  0.0802 -0.0214
26307W        W43154  12.188  16.649  14.408  0.1118  0.0178  0.1109
26308W        W43155   1.014   2.067   1.925 -0.0022  0.0329 -0.2953
26309W        W43156   8.017   0.133   0.764 -0.2848  0.2742 -0.8234
26310W        W43157  16.335  13.180  14.264  0.2107  0.1870 -0.1115
26311W        W43158   3.675   7.169   0.842 -0.2034  0.2901 -0.0341
26312W        W43159  15.143  16.264   1.389  0.3982 -0.1793  0.0726
26313W        W43160   7.295   8.105   3.687  0.1270  0.2262 -0.0137
26314W        W43161   3.486  16.988  14.092  0.2086 -0.1453 -0.1812
26315W        W43162   5.891  17.404  11.857 -0.0478  0.2471  0.0599
26316W        W43163  18.573   2.792   0.897  0.2637  0.2230 -0.2640
26317W        W43164   1.735   8.742  13.349  0.0062  0.0120 -0.1820
26318W        W43165   1.202   3.366  12.930  0.0326  0.0229  0.0053
26319W        W43166  12.851   0.198   0.281  0.1547  0.1524  0.2891
26320W        W43167   4.087  16.640   2.525  0.2276 -0.2982 -0.1461
26321W        W43168   5.584  19.242   9.627  0.2126 -0.1246 -0.1511
26322W        W43169  17.713   4.758  12.372 -0.0192 -0.1537  0.0028
26323W        W43170   7.835  14.663  14.339 -0.0637  0.1238 -0.0821
26324W        W43171   2.584   5.112   0.870 -0.1410 -0.1735  0.2165
26325W        W43172  15.101  17.645   2.852 -0.1016 -0.2702 -0.1512
26326W        W43173  10.543  11.331   3.734 -0.0113  0.4165 -0.1991
26327W        W43174   3.528   3.286   3.108  0.0096  0.3886 -0.0908
26328W        W43175   6.099  15.838  11.651  0.2838 -0.1559  0.0634
26329W        W43176  10.852  15.193  11.177  0.1399 -0.4847 -0.1338
26330W        W43177   8.319   5.779   5.056  0.1097 -0.0776  0.1177
26331W        W43178   2.307  15.679   2.885 -0.2033  0.2265 -0.0567
26332W        W43179   2.092  14.710  10.979 -0.0888  0.1119 -0.0702
26333W        W43180   7.521   8.796   3.351  0.0647 -0.2257 -0.0161
26334W        W43181  10.719  12.772   3.936  0.0066 -0.0508 -0.3149
26335W        W43182  14.873   5.004  13.474 -0.0887  0.0882  0.0050
26336W        W43183  15.290   9.536  14.443  0.0884  0.3148  0.0419
26337W        W43184  19.448  10.276  13.652 -0.0882  0.0730 -0.4029
26338W        W43185  14.256  17.519  10.911 -0.3320  0.5520  0.4366
26339W        W43186  13.258  11.732  10.831 -0.0222  0.3299  0.0301
26340W        W43187   3.254  17.171  13.718  0.5815  0.2167 -0.0615
26341W        W43188   9.759   7.850  12.353  0.3282  0.3655 -0.0450
26342W        W43189   8.286   7.220   2.025 -0.0351  0.1461  0.4963
26343W        W43190  17.660  18.242   1.484 -0.3115 -0.1113 -0.2399
26344W        W43191  11.890  19.290   4.368  0.5147 -0.2877 -0.0110
26345W        W43192  13.601   4.414  11.679  0.0252  0.1394 -0.2560
26346W        W43193   5.583   7.932  12.730  0.1696 -0.0877  0.1105
26347W        W43194  10.893  19.041   9.827  0.2453 -0.1128  0.3205
26348W        W43195  17.322  14.379  11.930 -0.0624  0.0142 -0.2382
26349W        W43196   2.438   4.811  13.657  0.1611  0.0528  0.0494
26350W        W43197  16.841   8.674   3.280 -0.0356 -0.1081  0.0306
26351W        W43198   9.707  18.440   4.021 -0.1330  0.0808 -0.0447
26352W        W43199  15.884  12.631  10.531  0.0831 -0.0303 -0.1322
26353W        W43200   0.016  12.361  14.041  0.1540 -0.2098 -0.1955
26354W        W43201  13.487  14.038   0.365 -0.2553 -0.1801 -0.0033
26355W        W43202  15.141  13.535   3.952 -0.0551  0.1432  0.2137
26356W        W43203   1.878   8.531   1.077  0.0072 -0.2774  0.2546
26357W        W43204  10.173  15.555   1.761 -0.0897 -0.1782  0.0553
26358W        W43205  16.726   6.734  12.225 -0.2649  0.0168 -0.3965
26359W        W43206   7.694  14.671   0.266  0.0816 -0.0145  0.2856
26360W        W43207  12.033  16.568   3.211  0.1144 -0.0272  0.0889
26361W        W43208   7.832   8.237   9.291 -0.1191 -0.2563  0.1145
26362W        W43209   6.599  16.977  12.011 -0.1795 -0.6218 -0.0047
26363W        W43210   0.377  19.216   0.546 -0.1720  0.0881  0.1075
26364W        W43211   8.389  14.177   3.240 -0.1134 -0.0575  0.1381
26365W        W43212  17.891  19.401   4.311  0.0628 -0.0992 -0.2276
26366W        W43213   4.297   4.226   4.163 -0.0360  0.2101 -0.0175
26367W        W43214  16.745  10.415   3.236 -0.0510 -0.1640  0.3096
26368W        W43215   3.146  15.350  13.531 -0.0836 -0.3390 -0.2053
26369W        W43216   4.864   9.431   1.055  0.0430  0.1999  0.2679
26370W        W43217   9.658  11.103  14.300  0.2192  0.0849  0.1738
26371W        W43218   2.143   1.424   3.899  0.0376 -0.2097  0.0704
26372W        W43219  11.663   6.087   5.646  0.3553 -0.1380  0.4312
26373W        W43220  13.424   3.707   2.318 -0.2765  0.0372 -0.1447
26374W        W43221   0.203  17.177   2.837  0.2303  0.0151  0.2439
26375W        W43222   3.788   7.698  12.941  0.0867 -0.1824 -0.1159
26376W        W43223   5.762   4.107   1.449 -0.0455 -0.1769  0.0832
26377W        W43224  18.935  17.713  10.189 -0.1179  0.1185  0.2342
26378W        W43225   4.373   9.816   0.738 -0.5145 -0.0233 -0.2930
26379W        W43226   0.272  19.114   2.843 -0.0565 -0.0983  0.3765
26380W        W43227   2.028  15.503   9.680  0.1850 -0.0701 -0.0724
26381W        W43228   3.936  17.414   3.118  0.0611 -0.1775 -0.1141
26382W        W43229   2.724   6.352   0.894 -0.1243  0.0043  0.0674
26383W        W43230   5.038   0.577   1.628  0.2729  0.0335 -0.2075
26384W        W43231   2.474  14.038   3.809 -0.0822 -0.2218 -0.0345
26385W        W43232   6.735   5.798   4.334  0.1820 -0.3011  0.3253
26386W        W43233  17.278   5.735  12.741  0.3209 -0.0514 -0.0721
26387W        W43234  14.323   8.576   2.491  0.0112 -0.2420  0.2957
26388W        W43235  14.331  18.570  11.752 -0.2151 -0.0300  0.0943
26389W        W43236   7.026   3.576  11.263 -0.0432  0.2406 -0.0054
26390W        W43237   1.136   2.542   3.876  0.2914  0.3649  0.1743
26391W        W43238   8.614   4.048  14.265  0.5809  0.1442 -0.4540
26392W        W43239  17.433  16.056   0.254 -0.0736  0.3924  0.3710
26393W        W43240   3.207  15.864  13.430  0.0763  0.0993 -0.1657
26394W        W43241   7.346   8.634  12.006 -0.2658 -0.0673  0.0704
26395W        W43242   4.998   8.018  14.046  0.2342 -0.1692  0.3049
26396W        W43243  10.671   3.650  10.730  0.0173  0.1013  0.0542
26397W        W43244   8.155   4.030   3.414  0.2492 -0.0300  0.2068
26398W        W43245   7.922   9.500   1.286 -0.2000 -0.2314  0.2286
26399W        W43246   3.345   3.065  13.021  0.1029 -0.0900 -0.2840
26400W        W43247   2.883   4.609   2.826  0.4803  0.0090 -0.1582
26401W        W43248   7.169  10.320  11.285 -0.2325  0.2996  0.0496
26402W        W43249   9.537   8.026   2.703  0.0312 -0.1502 -0.1953
26403W        W43250  14.349  16.868   3.251 -0.1154 -0.1981 -0.2031
26404W        W43251  18.328   5.784  14.202 -0.2350 -0.0440 -0.1775
26405W        W43252  19.612  15.823   2.730 -0.2995 -0.1159 -0.0948
26406W        W43253  18.482  11.705   3.734  0.2286  0.0377 -0.1359
26407W        W43254  16.829  12.673   0.112 -0.5558  0.0343 -0.1214
26408W        W43255  19.247  14.535   9.752 -0.0039 -0.2057 -0.1182
26409W        W43256  12.911  12.300   4.883 -0.1321 -0.0203  0.0183
26410W        W43257  19.233  19.159   4.140 -0.0560 -0.1738 -0.2646
26411W        W43258   0.269   2.981  11.444  0.1877  0.2285  0.1662
26412W        W43259  13.471   6.516  13.991  0.5563 -0.2341 -0.2711
26413W        W43260  12.579  12.079   2.099  0.0561  0.0977 -0.5095
26414W        W43261  17.257  17.546  13.936 -0.0638 -0.0954 -0.2513
26415W        W43262   0.567  10.900  12.522  0.0165  0.3979  0.0974
26416W        W43263  19.117   5.232  12.030  0.0400 -0.0580 -0.1927
26417W        W43264  12.975   2.989  11.432 -0.1214 -0.1274  0.1360
26418W        W43265  15.270  16.143  14.108  0.1516  0.0262 -0.1549
26419W        W43266  13.021  10.666  12.583  0.1201 -0.1676 -0.0691
26420W        W43267  16.775  16.276  13.635 -0.4932  0.1697 -0.0733
26421W        W43268  15.041   5.123  10.489 -0.2058 -0.1177 -0.1223
26422W        W43269  14.746  13.616   3.078 -0.0860 -0.4130 -0.0971
26423W        W43270   2.764   4.565  12.867 -0.0786  0.0707  0.2637
26424W        W43271  15.703  10.813  11.795 -0.2153 -0.4889  0.3718
26425W        W43272   8.988  18.610  10.452  0.1918 -0.2193 -0.4606
26426W        W43273  15.723  12.192   0.568 -0.2323  0.0748  0.0878
26427W        W43274   3.064   9.307  10.447  0.2515 -0.0308 -0.1701
26428W        W43275   4.405  12.333  13.447 -0.1575  0.0550  0.3189
26429W        W43276   8.245  10.328  12.956  0.0318  0.4308 -0.0538
26430W        W43277  19.614  10.190   5.184  0.0477 -0.1016  0.0755
26431W        W43278  11.239   7.497   2.836  0.0455 -0.2381  0.2489
26432W        W43279  17.358   8.403   3.862 -0.0262  0.0035 -0.0405
26433W        W43280   6.485   5.313   5.044  0.4043  0.1712 -0.2299
26434W        W43281   7.831   1.689   5.310 -0.4563 -0.1280  0.0479
26435W        W43282   6.772  10.996   0.668  0.1195 -0.1219  0.0568
26436W        W43283   9.068   5.146  11.250 -0.2269 -0.1885 -0.3527
26437W        W43284  11.332  15.912   0.966  0.0944  0.1110  0.0178
26438W        W43285   8.698  10.918   4.465  0.4395  0.1642  0.0283
26439W        W43286  10.820  15.283   0.614  0.3318  0.1831 -0.0858
26440W        W43287   7.465  16.397  14.233 -0.3489 -0.2154 -0.0641
26441W        W43288  14.641   7.442   1.633 -0.1763 -0.5682 -0.2374
26442W        W43289  12.249   4.326   1.966 -0.0469 -0.0107 -0.1856
26443W        W43290  19.404   7.344   4.134 -0.4001 -0.2567 -0.0814
26444W        W43291  13.402  13.374  11.536 -0.2720 -0.1272  0.1017
26445W        W43292  16.365  15.046  11.102  0.3338  0.2630 -0.3044
26446W        W43293   9.888  17.728   1.114  0.0951 -0.0858 -0.1832
26447W        W43294   3.366  11.794  12.662 -0.1798  0.0088 -0.1034
26448W        W43295  16.434  12.522  10.482 -0.2003  0.0727  0.1882
26449W        W43296  13.134   0.073   2.323 -0.2101 -0.0894 -0.1546
26450W        W43297   3.008   2.074   2.569  0.1170 -0.2078  0.2736
26451W        W43298   5.901   3.398   3.101  0.1015 -0.1443  0.0631
26452W        W43299   3.793   9.056   4.571  0.4231  0.2778 -0.2177
26453W        W43300  13.560   5.354   4.453 -0.0260  0.0169 -0.2474
26454W        W43301   1.119   3.216   2.746 -0.0179  0.1173 -0.0100
26455W        W43302   3.062  16.835   4.089  0.1413  0.0101 -0.2213
26456W        W43303   9.863   8.841  13.160 -0.1252 -0.2469 -0.4476
26457W        W43304   4.321   1.662   1.409  0.1657  0.0949  0.3487
26458W        W43305   1.801  18.858   3.670 -0.5736  0.1941  0.0453
26459W        W43306   5.398   6.071  11.744 -0.2479 -0.3081  0.2289
26460W        W43307  16.986  16.143   1.961 -0.1578  0.1311 -0.0896
26461W        W43308  13.544   2.238   2.065 -0.0448  0.1393  0.0985
26462W        W43309  16.656   5.644  12.072  0.1202 -0.1138  0.1276
26463W        W43310   3.930  14.590   0.188  0.1261 -0.4602  0.0082
26464W        W43311  17.890  12.324   1.450  0.0476 -0.2442  0.1593
26465W        W43312  13.375  11.568   1.131 -0.1318  0.2826 -0.1678
26466W        W43313  16.087  11.181   2.186 -0.3945 -0.2150  0.0116
26467W        W43314   7.109   3.618   1.895 -0.2002  0.0805  0.1181
26468W        W43315  16.329   7.036   1.856 -0.1178 -0.1337  0.0663
26469W        W43316  12.892  19.591  12.045 -0.1829 -0.2728 -0.1201
26470W        W43317   1.506  14.860   3.967  0.1429  0.0303 -0.0689
26471W        W43318   7.739   4.637   0.617 -0.0531 -0.1836  0.0414
26472W        W43319   2.062   9.569  12.082  0.0360  0.0594  0.2184
26473W        W43320  11.110  12.779   1.200  0.0076 -0.0849  0.5361
26474W        W43321   9.163   4.529   4.460 -0.0127  0.1306  0.0480
26475W        W43322   1.104   6.601   1.689 -0.1363 -0.3199  0.0880
26476W        W43323  16.921  16.208   4.796 -0.0006 -0.1871  0.3090
26477W        W43324  14.081   9.159   3.144 -0.1891  0.1791  0.3958
26478W        W43325  14.441   9.055  12.976  0.1009  0.1070  0.1104
26479W        W43326  12.796   1.560   4.964 -0.2302  0.1163 -0.0481
26480W        W43327   3.725  17.919  12.342  0.2399  0.1805 -0.2198
26481W        W43328   0.113  11.415  10.360  0.0092  0.3727  0.5805
26482W        W43329  15.019  15.457   9.234 -0.1447  0.1039  0.1874
26483W        W43330  12.270  13.167  13.969  0.2815  0.2638  0.1583
26484W        W43331  15.073   0.433  10.543  0.2896 -0.0728  0.1797
26485W        W43332  11.700  14.168   0.539  0.0268  0.0454 -0.3760
26486W        W43333   7.176  13.944   0.242 -0.3230  0.0218  0.0118
26487W        W43334  17.145  11.163   3.795 -0.2113  0.1337 -0.1536
26488W        W43335   0.747   6.443  13.838 -0.0815 -0.2430 -0.1426
26489W        W43336  19.499  14.211  10.682  0.1706  0.0634 -0.0566
26490W        W43337   6.449  10.732   1.513 -0.1469  0.3097 -0.4595
26491W        W43338  12.694  18.412  10.884  0.0793 -0.3775  0.3943
26492W        W43339   6.630  14.936   2.610  0.0037 -0.1706  0.0848
26493W        W43340  18.153  11.528  11.948  0.0967 -0.2407 -0.2536
26494W        W43341   2.775   7.058  11.896  0.2232 -0.1459 -0.2453
26495W        W43342   7.803   2.657  10.952 -0.1430  0.1187  0.1753
26496W        W43343  14.348   5.066   3.848 -0.2312  0.3017 -0.4183
26497W        W43344  11.860  15.943   0.691  0.0097  0.0310  0.0427
26498W        W43345   8.687   6.870   1.892  0.0671 -0.1615 -0.1009
26499W        W43346   5.683  15.361  13.797  0.1997 -0.0953 -0.1651
26500W        W43347  11.767  13.139   1.262  0.0412  0.2313  0.1536
26501W        W43348   0.423   3.140   1.896  0.0998  0.4563  0.0481
26502W        W43349  19.107   9.955   2.156  0.0881  0.2695  0.0419
26503W        W43350  16.141   0.341   3.283 -0.1274  0.0468 -0.0689
26504W        W43351  12.792  16.784   9.569  0.4875  0.0912  0.2160
26505W        W43352   1.340   3.441   0.939  0.1268  0.3304  0.2333
26506W        W43353   8.122  14.189  12.832  0.2656  0.1801  0.2767
26507W        W43354  15.507   4.734  12.468 -0.2578  0.3837 -0.0130
26508W        W43355   6.455   1.109   2.773 -0.1601 -0.1010 -0.2473
26509W        W43356   6.910  19.561   0.143  0.0055  0.2064 -0.2550
26510W        W43357  14.548  10.536   2.960 -0.0141  0.3527  0.1270
26511W        W43358   9.997  17.737   1.645  0.0645 -0.1729 -0.2374
26512W        W43359   5.416  14.348  11.864  0.0954  0.0503 -0.0053
26513W        W43360  16.393  15.025  10.198 -0.1101 -0.0033  0.2046
26514W        W43361  13.794   6.265   0.108  0.0668 -0.0841 -0.2147
26515W        W43362   6.577  12.297   3.299 -0.1163  0.1202  0.1333
26516W        W43363   2.432   0.840  10.630 -0.0667 -0.2196  0.2138
26517W        W43364   8.155   7.682  12.591 -0.0989  0.1225  0.0699
26518W        W43365   0.299   5.939   3.134 -0.0829 -0.1014  0.1731
26519W        W43366   1.195  11.951   2.508  0.1521 -0.1356 -0.0673
26520W        W43367   0.081   1.957  13.662  0.0706 -0.0964 -0.0458
26521W        W43368  11.989   4.605   2.697  0.3614 -0.2608  0.3357
26522W        W43369   9.068  16.238   1.895  0.0816  0.0089 -0.3014
26523W        W43370  17.580   4.892   4.303 -0.1258  0.3102  0.1315
26524W        W43371   7.299  12.598   1.292  0.3743  0.2124 -0.2511
26525W        W43372  18.435  10.828   2.452  0.0210 -0.1011  0.2407
26526W        W43373   2.864   6.877   1.200  0.0152  0.2781 -0.0734
26527W        W43374  11.175  10.562   1.574  0.4334 -0.4161  0.0987
26528W        W43375   1.326   3.549  13.394  0.3329 -0.0906 -0.1335
26529W        W43376  14.392  11.832  12.227 -0.0118  0.1098  0.0651
26530W        W43377   8.456   1.960   4.289  0.0051  0.0124  0.1567
26531W        W43378   5.170   2.918   0.224  0.1195 -0.0109  0.0016
26532W        W43379  17.713   3.069   1.812  0.1936 -0.2433 -0.4643
26533W        W43380   3.378   7.063   2.614  0.1472  0.2839  0.1522
26534W        W43381  12.118  17.503   0.726  0.1106  0.2208  0.6347
26535W        W43382  10.987  18.438   0.281 -0.5238 -0.2835 -0.2337
26536W        W43383  17.117  19.328   3.215  0.0086  0.1809 -0.1011
26537W        W43384   8.224   4.785  11.154  0.1013 -0.2084  0.0848
26538W        W43385   0.902  10.493   4.156 -0.0022  0.2389 -0.4570
26539W        W43386   0.755   3.721   2.766 -0.0446 -0.1636 -0.0050
26540W        W43387   9.342  11.439  13.504  0.1212 -0.1885  0.1727
26541W        W43388  16.101   7.447   2.077 -0.0406 -0.1348  0.1257
26542W        W43389   1.607   8.606   3.403 -0.1747 -0.1130 -0.1718
26543W        W43390  18.726  14.339   4.307  0.0318  0.0919 -0.0041
26544W        W43391  15.623   0.542   9.648  0.2478  0.0043  0.0946
26545W        W43392   5.885  19.334  11.238 -0.1654 -0.2741 -0.3516
26546W        W43393   5.167   0.540   4.811  0.2331  0.0970  0.1827
26547W        W43394  16.609  17.031   1.980  0.0985  0.1775 -0.2429
26548W        W43395   7.808  16.849  14.228  0.2036 -0.0353 -0.0391
26549W        W43396   4.145  15.430  11.617  0.0572  0.1114  0.1579
26550W        W43397   6.593  15.915  10.851  0.1653 -0.1332  0.1965
26551W        W43398  11.604   0.148  12.184 -0.1425  0.2482  0.0136
26552W        W43399  15.387   6.186   1.993  0.2881  0.0259  0.1059
26553W        W43400  17.861   5.006  14.055  0.0812  0.1059 -0.1636
26554W        W43401   5.536  10.067   3.465 -0.1319 -0.0176 -0.0051
26555W        W43402  17.867   7.049   3.491  0.3249  0.2819 -0.0862
26556W        W43403  14.961  11.285  13.429  0.2735  0.2858 -0.1550
26557W        W43404   8.773   8.312  12.379  0.1939  0.0369  0.0108
26558W        W43405   1.699  10.440   0.026  0.2081 -0.2331  0.0031
26559W        W43406   0.482   0.228   1.409  0.0859 -0.4095  0.0542
26560W        W43407   7.360  17.781  10.934 -0.0832  0.1168 -0.3123
26561W        W43408  12.811   9.235  11.315  0.2372  0.2859 -0.0303
26562W        W43409  17.239  13.765  10.075  0.2830 -0.1881  0.0053
26563W        W43410  11.116  11.653  13.908  0.1204  0.0396  0.3000
26564W        W43411   3.969  18.403   0.958  0.2388 -0.4546  0.0557
26565W        W43412  10.772   4.990   0.766 -0.0820  0.1398 -0.1459
26566W        W43413   8.600   0.038  12.284  0.1499  0.0809  0.1435
26567W        W43414   9.662  16.258  11.829  0.3348  0.3570  0.2806
26568W        W43415  10.029  12.224  11.330 -0.1112 -0.1187 -0.0360
26569W        W43416   3.622   3.039  13.500 -0.3233  0.0081 -0.1835
26570W        W43417   9.023   7.475   2.423 -0.2210 -0.2476  0.1710
26571W        W43418  13.776   2.998  13.601 -0.1046 -0.2582 -0.2563
26572W        W43419  12.080  15.610  11.217 -0.1102  0.1306  0.0423
26573W        W43420  10.021   9.994   4.868 -0.1051 -0.1882  0.3014
26574W        W43421  10.616   8.112  12.504  0.0284  0.0807 -0.0123
26575W        W43422  13.917   9.481   0.098 -0.0801 -0.3832 -0.3660
26576W        W43423  17.674  11.375   1.058  0.0292 -0.1817 -0.1425
26577W        W43424   2.629  14.341  11.174  0.1485  0.1179  0.1306
26578W        W43425   7.496  19.576  13.221  0.0593 -0.4103 -0.0511
26579W        W43426   8.886  12.751   4.663 -0.0588  0.0599  0.0997
26580W        W43427  15.760   9.377   5.377 -0.2117 -0.3529  0.3388
26581W        W43428  19.473   7.569  10.287 -0.0873 -0.0025  0.0751
26582W        W43429   9.552   3.595  10.225 -0.1614  0.1763  0.1589
26583W        W43430   1.360   2.848   1.605 -0.2250  0.0080  0.1455
26584W        W43431   1.770  10.311   5.197 -0.0808 -0.0697 -0.4244
26585W        W43432   6.784  12.067   0.090 -0.1362  0.0367  0.3704
26586W        W43433  18.721   8.295   0.817 -0.0642  0.0404 -0.1864
26587W        W43434  15.049  13.079   4.220 -0.2003  0.2333  0.0826
26588W        W43435  17.480  17.954   4.844 -0.0025  0.0631  0.3140
26589W        W43436   2.646   2.922  11.277 -0.1315  0.0589  0.1197
26590W        W43437  16.057   5.110  12.936  0.0564  0.0434  0.1518
26591W        W43438  10.446  16.979  13.842 -0.5665 -0.4438 -0.1170
26592W        W43439  17.834  19.487   1.600  0.0833 -0.0997  0.2989
26593W        W43440  17.296   3.351   2.641 -0.3797 -0.0785 -0.2646
26594W        W43441   8.942   5.793   2.380  0.0712 -0.1093 -0.0826
26595W        W43442  17.733  11.822   4.524 -0.0561 -0.1524  0.0925
26596W        W43443   8.172   7.150   1.165  0.0056 -0.3279 -0.2997
26597W        W43444   3.731   5.318  12.344  0.0480  0.0286  0.0348
26598W        W43445   0.252   7.535  10.540 -0.0460  0.3075 -0.0595
26599W        W43446  13.373  14.626   2.968 -0.1737 -0.0039 -0.4396
26600W        W43447  19.286  11.245  10.529 -0.3511  0.0464  0.0872
26601W        W43448   7.050  10.704  13.886  0.0558  0.2453  0.1133
26602W        W43449   9.668  17.815   3.246 -0.1194  0.0434 -0.1000
26603W        W43450   5.922   0.080  14.065  0.0950  0.2275 -0.4221
26604W        W43451   3.173   9.563   0.697  0.1251  0.3702 -0.1335
26605W        W43452   6.853   5.811   1.936 -0.2909 -0.0659  0.2047
26606W        W43453  16.316   3.135  11.441 -0.0798  0.1777  0.1974
26607W        W43454   1.269   3.571   5.025 -0.0339  0.2445  0.1017
26608W        W43455   5.791   8.614   3.471 -0.1721 -0.3886 -0.1843
26609W        W43456   5.442  14.021   4.067  0.0397 -0.0178  0.1121
26610W        W43457   3.958   0.322  12.049 -0.4027  0.1343 -0.3028
26611W        W43458  12.438  11.542  13.359 -0.2229 -0.3047  0.2092
26612W        W43459   7.335  13.321   0.729  0.0103 -0.2415 -0.0063
26613W        W43460  11.248  15.867   2.341 -0.0818  0.0135  0.0635
26614W        W43461   7.934   2.306   5.139  0.1689  0.0091 -0.0698
26615W        W43462  15.224  16.118   4.197 -0.3984 -0.0325 -0.0829
26616W        W43463   3.480   0.398  11.941 -0.1215 -0.3051  0.0143
26617W        W43464  16.997  13.746   1.328  0.1637 -0.0262 -0.2527
26618W        W43465   1.523   2.537  11.775 -0.0511 -0.0816  0.1037
26619W        W43466   7.608   5.554   0.278  0.2248  0.0162  0.2195
26620W        W43467  13.701  15.601   1.104 -0.3968 -0.0313 -0.1864
26621W        W43468   7.533  14.535  13.312  0.2672 -0.2359  0.1397
26622W        W43469   0.880  10.324  11.324 -0.0257  0.0832 -0.2295
26623W        W43470  18.744  17.850  12.530  0.2701  0.1744  0.2992
26624W        W43471   5.412   4.475   1.664 -0.3392 -0.1714 -0.0087
26625W        W43472  16.030   8.393   3.046  0.3841  0.0029  0.0263
26626W        W43473   2.674   4.072  12.953 -0.2581 -0.1655  0.1189
26627W        W43474  19.000   5.053  10.273  0.1485 -0.0870 -0.1398
26628W        W43475   1.170   6.282   1.133 -0.2263 -0.0848  0.0288
26629W        W43476  15.121  17.414  11.256  0.2019 -0.3365  0.0960
26630W        W43477   6.628   7.061   4.600 -0.0676 -0.0893  0.0195
26631W        W43478   3.819   0.475  11.568  0.1669 -0.1737  0.1637
26632W        W43479   3.134  10.863  10.624  0.1362  0.1516  0.0156
26633W        W43480   1.721  11.900  10.976 -0.1139 -0.0931  0.2786
26634W        W43481  12.756   6.262   0.382  0.0548 -0.1499  0.1556
26635W        W43482   2.862  17.059   1.577 -0.1575  0.0642 -0.0554
26636W        W43483  16.015  11.440   0.987  0.1854  0.0336  0.1122
26637W        W43484  10.155  17.873  10.461 -0.0258  0.1026 -0.1135
26638W        W43485   4.044  10.065   3.911  0.2943 -0.2493  0.0848
26639W        W43486  17.159  12.061   0.481  0.0266 -0.1452  0.3126
26640W        W43487   6.509   2.391   3.263  0.0879  0.2864 -0.0983
26641W        W43488   9.649  13.278  11.566 -0.3208  0.3876 -0.2150
26642W        W43489   2.559   3.653   0.873  0.0647 -0.3982  0.1140
26643W        W43490   3.267   9.113   4.713 -0.0451  0.2685 -0.0641
26644W        W43491   3.811  12.997  11.948 -0.3486  0.1459 -0.0936
26645W        W43492  10.769   4.169  11.372  0.3075  0.5342 -0.0739
26646W        W43493  18.139   1.303   0.654 -0.2851 -0.2313 -0.0366
26647W        W43494   8.628  14.084   4.623  0.1734  0.1198  0.1623
26648W        W43495   9.468   7.150  11.077  0.0878 -0.1174 -0.0233
26649W        W43496   5.427   8.794  13.074  0.0381 -0.1041 -0.2621
26650W        W43497   4.151  13.964  14.003  0.1389 -0.0555  0.0242
26651W        W43498  10.830   9.636   2.689 -0.0130  0.0289  0.1489
26652W        W43499  13.577  13.426   1.038 -0.1460 -0.0485  0.0881
26653W        W43500  14.112  12.037   1.459  0.1527 -0.2108 -0.0376
26654W        W43501   5.897   6.910   3.543 -0.1004  0.1176 -0.3468
26655W        W43502  16.047   2.609  12.828  0.1316 -0.1659 -0.0777
26656W        W43503   9.819   6.981  12.488  0.2004 -0.1514  0.1665
26657W        W43504  17.779   3.556   0.175  0.1417  0.4805 -0.0854
26658W        W43505  10.567   5.528  14.154 -0.3076  0.0244 -0.0647
26659W        W43506  14.104  16.780  14.471 -0.0183  0.1972  0.0403
26660W        W43507  14.876  15.816   0.665 -0.0509  0.0300 -0.2387
26661W        W43508   3.233   8.881   3.752  0.1969 -0.0733  0.1310
26662W        W43509   5.004   7.284  12.934  0.1899  0.3038  0.0520
26663W        W43510  18.354   8.368   3.390  0.0269 -0.0986  0.0374
26664W        W43511   1.338  16.752  10.830  0.1769  0.2388 -0.3526
26665W        W43512  15.246   9.694  13.494 -0.1201 -0.0535 -0.1347
26666W        W43513  15.759  15.635   9.876 -0.0005  0.0733 -0.1770
26667W        W43514  13.943   0.137   2.601 -0.2672 -0.1731  0.1169
26668W        W43515   0.082   1.684   5.059 -0.5254 -0.3076  0.2592
26669W        W43516  11.484   2.172  12.297  0.0190  0.0335  0.0394
26670W        W43517  13.900  13.742  10.745  0.1497 -0.0899  0.1319
26671W        W43518   1.664   3.459  12.656  0.2721  0.2677 -0.2344
26672W        W43519   9.539   7.660   3.231 -0.1188  0.1507  0.2456
26673W        W43520   4.256  16.664   2.090 -0.1796  0.0707  0.0738
26674W        W43521   1.964  16.222  13.453  0.3112  0.0055 -0.1789
26675W        W43522   7.066  10.817  10.433  0.2897 -0.0016  0.3502
26676W        W43523   4.775   1.488  13.214 -0.1630 -0.0590 -0.1276
26677W        W43524   2.332   7.725   4.952 -0.0605  0.3940 -0.0235
26678W        W43525  13.762   2.343   1.177 -0.0480 -0.0711  0.1889
26679W        W43526   8.130   1.635   4.453  0.2250  0.0282 -0.3784
26680W        W43527  15.600  12.701   1.504  0.2201 -0.0494  0.0138
26681W        W43528   8.928   8.364   0.623  0.2204  0.0714 -0.3252
26682W        W43529  19.068  14.884  11.376  0.3627  0.0450  0.0099
26683W        W43530   7.804   4.565   2.965  0.2480 -0.1035  0.3116
26684W        W43531  10.691  19.166  13.022  0.0372  0.0451  0.0461
26685W        W43532  10.064   5.739  11.758  0.0801 -0.0360  0.0245
26686W        W43533  15.881  15.539  14.432 -0.0973  0.0624 -0.1404
26687W        W43534   3.994   7.689  11.429 -0.1597  0.1097 -0.1036
26688W        W43535   0.240  14.683  13.349  0.1917 -0.0457  0.0812
26689W        W43536   9.574   2.290   3.783  0.0775  0.0918 -0.0415
26690W        W43537  18.335   1.619   1.746  0.0496  0.0567  0.0783
26691W        W43538   6.216  15.406   2.801  0.0370  0.1960  0.1901
26692W        W43539  15.481  11.272   3.040 -0.1113  0.0857 -0.0926
26693W        W43540  17.984   2.823   3.722  0.3302  0.0362  0.1022
26694W        W43541   5.407  10.765  12.093 -0.0359 -0.1884  0.0210
26695W        W43542   9.555  18.909   0.172 -0.4557  0.1076 -0.0846
26696W        W43543  11.797  12.346   1.054 -0.2250  0.0382 -0.0258
26697W        W43544  14.651  14.809   3.799  0.1047 -0.0181  0.1612
26698W        W43545  17.592  14.913   2.030  0.3208  0.2384 -0.0429
26699W        W43546  12.984   4.713  11.060 -0.2163 -0.1241  0.1802
26700W        W43547   1.099  10.587   0.806 -0.1320  0.1038 -0.2266
26701W        W43548  11.902  10.299   5.435 -0.0412  0.0852  0.0815
26702W        W43549   5.653  17.444   3.170  0.1110 -0.2608  0.0387
26703W        W43550   6.231  13.965  14.149  0.0551  0.0132  0.0086
26704W        W43551   4.396   6.960   4.657  0.1272 -0.1098 -0.0473
26705W        W43552   7.000   5.093  13.022  0.1804 -0.2205 -0.0363
26706W        W43553  11.665   6.469  12.119  0.1009 -0.0517  0.0999
26707W        W43554   7.780   4.464  13.357 -0.1320 -0.3452 -0.1074
26708W        W43555   4.213  12.452   3.866  0.0141  0.2062  0.3232
26709W        W43556   8.382   2.055  14.447  0.0620  0.1336  0.2698
26710W        W43557  18.902   9.452  13.869 -0.0348 -0.2533  0.2377
26711W        W43558  15.946  16.450   2.896  0.1119  0.0270  0.4418
26712W        W43559  18.952   2.832  11.387  0.2542  0.0310  0.2466
26713W        W43560  15.089   3.891   4.035  0.0550 -0.1183 -0.1688
26714W        W43561   4.598   4.625   2.846 -0.0792  0.1366 -0.2927
26715W        W43562  13.828  15.050   2.414 -0.0657 -0.2507  0.0890
26716W        W43563   7.382  18.686  10.475  0.0215  0.0326  0.0856
26717W        W43564   5.000   8.682  13.367 -0.1029 -0.1280  0.2083
26718W        W43565   3.393   4.306  12.261  0.1624  0.0713 -0.0597
26719W        W43566  16.740  13.734   3.242 -0.0489  0.1180  0.1405
26720W        W43567  11.531  16.957   3.096  0.2663 -0.4514 -0.1898
26721W        W43568  18.630   2.461   5.127 -0.2483  0.1936  0.1639
26722W        W43569  15.649   6.005   9.173  0.0486 -0.1632 -0.0514
26723W        W43570  14.838   5.233  12.255 -0.0299  0.4218  0.2177
26724W        W43571   7.579  15.510  14.603 -0.1927  0.0209 -0.2225
26725W        W43572   9.354  18.003  11.054  0.1021 -0.2560  0.1337
26726W        W43573  11.732  10.749   2.808  0.4017  0.0891 -0.1126
26727W        W43574   4.660  15.938  11.218 -0.1197  0.0681 -0.3270
26728W        W43575   8.472   9.886  13.761  0.1210  0.0611 -0.1407
26729W        W43576  15.016  11.022  12.527 -0.0733  0.0038  0.0172
26730W        W43577  11.545   2.256   3.397 -0.0766  0.3112  0.0224
26731W        W43578  19.575   2.972   1.392  0.1003  0.3059  0.1869
26732W        W43579   3.853  12.004   3.629 -0.0402  0.0165  0.0812
26733W        W43580  12.134  11.334   5.528 -0.0903 -0.1719 -0.1112
26734W        W43581   2.370  12.436  11.910  0.1568  0.1785  0.1551
26735W        W43582   7.569   1.645  14.002  0.4012 -0.0267 -0.2963
26736W        W43583   5.931   6.789  12.805  0.0678 -0.2403  0.1433
26737W        W43584  16.247  10.707  11.299  0.0254 -0.1820 -0.0933
26738W        W43585  19.471   6.175  11.912  0.0994  0.0556 -0.3082
26739W        W43586  10.341   4.027  10.375  0.2623  0.0868 -0.2108
26740W        W43587  16.532  10.515  13.674 -0.3395 -0.1856  0.0116
26741W        W43588  14.529  11.207   4.704 -0.0725  0.0418  0.0585
26742W        W43589   6.702   2.097  12.486  0.3271 -0.1768 -0.1125
26743W        W43590  12.152   9.074   2.488 -0.1366  0.0017 -0.0888
26744W        W43591  11.248   1.685  14.319  0.0295  0.1434  0.1521
26745W        W43592   9.887   4.779   3.640 -0.0014 -0.2530  0.2287
26746W        W43593  16.374  16.543   1.326 -0.2891  0.0791 -0.0074
26747W        W43594  15.131   8.857   1.460 -0.1596 -0.2022  0.1425
26748W        W43595   3.032  13.349  14.395  0.2611 -0.0613  0.0311
26749W        W43596  10.705  18.751   4.573  0.1892 -0.2500  0.0167
26750W        W43597   0.010  14.735   0.020  0.5127  0.2325  0.0133
26751W        W43598   8.188  14.904   3.725  0.0114  0.0858 -0.2684
26752W        W43599   5.068   6.839  10.718 -0.0831 -0.1186  0.2167
26753W        W43600   0.473   0.302  13.032  0.4523  0.1548  0.0744
26754W        W43601  11.790  18.270  11.950  0.1891  0.0200  0.0377
26755W        W43602   2.697   2.669   1.100 -0.0720 -0.2158 -0.2492
26756W        W43603  18.276   6.979  10.330 -0.1518  0.2833  0.3062
26757W        W43604  10.409   6.374  12.905 -0.0326  0.1265  0.1360
26758W        W43605  16.888  16.665   0.387  0.0341 -0.1687 -0.2026
26759W        W43606   8.606  13.027  13.710 -0.1560 -0.0976 -0.0592
26760W        W43607   8.338   0.003   1.208 -0.0758  0.3593  0.0163
26761W        W43608  17.984  13.024  14.506 -0.0535 -0.1905  0.0845
26762W        W43609   2.020  10.956   5.488 -0.0763  0.0804  0.2224
26763W        W43610  17.773  12.666  13.229  0.0416  0.2528 -0.1330
26764W        W43611  18.507  17.641  11.636 -0.1041 -0.1635  0.0205
26765W        W43612  13.002   9.395   0.221 -0.2882 -0.3271  0.0667
26766W        W43613   2.614   7.889   1.000  0.0685 -0.0981 -0.1429
26767W        W43614   0.851   1.640   3.649  0.0895 -0.0755  0.0592
26768W        W43615  16.051  18.823   9.172 -0.0650  0.0131  0.2114
26769W        W43616   7.446   6.541  13.583 -0.2518  0.0490 -0.0615
26770W        W43617  10.878  18.397   4.889 -0.0094  0.1030  0.1219
26771W        W43618   0.028   1.717  11.971 -0.2696 -0.1257 -0.0353
26772W        W43619   0.389   8.521  11.430  0.1350 -0.2309 -0.2337
26773W        W43620   5.682  19.341  13.830 -0.3112  0.0384 -0.1260
26774W        W43621   7.256   4.438   9.779  0.0547  0.1534 -0.0924
26775W        W43622   3.205   1.983   3.031  0.2663  0.1893  0.0371
26776W        W43623  11.437   2.965   1.604 -0.1917  0.1529 -0.5894
26777W        W43624  10.249  13.407  13.761 -0.3906 -0.0445  0.1524
26778W        W43625   3.711   9.525   5.633 -0.1000  0.2455 -0.0724
26779W        W43626   1.565   5.222   2.552 -0.1672  0.1338 -0.1361
26780W        W43627  14.642   0.821  14.275 -0.1117  0.1082 -0.0617
26781W        W43628  17.930   0.720   5.359  0.3201 -0.0882  0.1570
26782W        W43629  14.258  14.241  11.573  0.1400  0.1788  0.1273
26783W        W43630  18.152  10.898   4.733  0.1172 -0.1116  0.1293
26784W        W43631  18.010   8.751   0.369  0.0288 -0.0444 -0.2636
26785W        W43632  10.317  18.699  14.334 -0.2996 -0.1767  0.4137
26786W        W43633   7.179  11.807   3.098  0.1712 -0.0491 -0.0559
26787W        W43634  14.517   6.410  11.661 -0.0069 -0.0802 -0.0228
26788W        W43635  12.969  12.657  10.622 -0.2815  0.1986 -0.0719
26789W        W43636  17.891   6.971   2.149  0.0872  0.1822 -0.1863
26790W        W43637  11.693   4.686  13.657  0.0433 -0.1139  0.0634
26791W        W43638   1.374   5.023   0.308  0.1327 -0.1404  0.2190
26792W        W43639   1.252  19.325  12.882  0.2101  0.0350 -0.0235
26793W        W43640  15.451  17.455   2.504  0.0148  0.5059  0.1991
26794W        W43641  14.012  10.117   3.489 -0.2137  0.1059  0.0982
26795W        W43642  11.718   9.315   4.714 -0.1044  0.2155 -0.0263
26796W        W43643  12.153   5.061  12.295  0.0604 -0.2792 -0.1935
26797W        W43644   8.475  14.799   2.238 -0.2729 -0.0990  0.2178
26798W        W43645  11.044  13.746  14.058  0.0972 -0.0156 -0.1119
26799W        W43646  10.673  14.639   1.296  0.2419  0.0179  0.0783
26800W        W43647   1.987  16.401  12.603 -0.2710  0.0593 -0.1416
26801W        W43648   2.836  15.501  11.212  0.0768  0.3497 -0.0835
26802W        W43649  11.855   4.051   8.946  0.0895 -0.1683  0.2412
26803W        W43650   1.109  17.434  10.359  0.0231  0.1531 -0.0009
26804W        W43651  17.188  17.262  14.494 -0.0468  0.0770  0.4008
26805W        W43652  11.601   7.011   4.351 -0.2259  0.0247 -0.1727
26806W        W43653  15.117   8.223  11.814 -0.0216 -0.0949 -0.0960
26807W        W43654  13.021  18.748   2.809  0.1106 -0.1278 -0.2523
26808W        W43655  12.834   4.575   3.085 -0.0884  0.0842 -0.1713
26809W        W43656  14.949   9.758   3.536  0.0812 -0.1967 -0.0871
26810W        W43657  10.344   6.974  12.606 -0.1588  0.0041  0.2157
26811W        W43658  14.013   0.656   2.330  0.2186  0.1930  0.0631
26812W        W43659   4.735   6.343  14.144 -0.2755  0.0444 -0.3630
26813W        W43660   8.682   3.056  12.383 -0.0685  0.3165 -0.0318
26814W        W43661   1.235  15.132   2.806  0.3246  0.1988  0.0085
26815W        W43662  16.371   4.418  10.340 -0.0457 -0.2079  0.1427
26816W        W43663  13.526   5.410  11.493 -0.0397 -0.0568  0.0513
26817W        W43664   1.260  13.537   0.562  0.0894  0.2164  0.3899
26818W        W43665   4.676  19.050  11.506  0.0305  0.0647 -0.1558
26819W        W43666   4.344  13.828  11.951  0.0939  0.0949 -0.0209
26820W        W43667   7.132   7.553  12.476  0.2849 -0.0068 -0.1640
26821W        W43668   2.677  10.640  10.417  0.1193  0.3426  0.0528
26822W        W43669   6.296   1.609   4.336 -0.0266 -0.1979 -0.0783
26823W        W43670  17.734   5.940   4.279  0.0296 -0.0893 -0.1040
26824W        W43671   2.074   5.874  11.165  0.3190  0.0006 -0.0530
26825W        W43672  12.227  17.505   4.131  0.0734 -0.2771 -0.0704
26826W        W43673   2.855  11.013   5.718 -0.0915 -0.3353 -0.3171
26827W        W43674  17.889  17.870  13.658  0.0215 -0.0266 -0.0593
26828W        W43675  13.903   3.655   2.250 -0.3305  0.2456 -0.0505
26829W        W43676   5.167   9.563   0.309 -0.2946 -0.1315  0.3736
26830W        W43677   6.483   6.474  12.046 -0.1804  0.1454 -0.1561
26831W        W43678   7.044  18.676   1.860  0.0183  0.3654  0.0736
26832W        W43679   8.569   9.543   1.256  0.0136 -0.1798 -0.0837
26833W        W43680  11.625  17.745   1.461 -0.2760  0.1858  0.0082
26834W        W43681   5.953  19.256  12.365 -0.0955 -0.0364 -0.2181
26835W        W43682  13.048   9.491  10.987 -0.4615  0.1001  0.0022
26836W        W43683  11.966  17.589  13.822 -0.0449  0.0319  0.0869
26837W        W43684  17.180  13.015   0.034  0.0024  0.2729 -0.1367
26838W        W43685   2.887   8.860   0.899 -0.1576 -0.3126 -0.0739
26839W        W43686   6.627   9.316   5.632  0.0599  0.1365 -0.1860
26840W        W43687   9.907  15.502   4.631  0.0156 -0.1251 -0.0343
26841W        W43688   7.491   3.432  11.161  0.2361  0.2382 -0.0027
26842W        W43689  13.274   9.819   1.203  0.0365 -0.0383 -0.0788
26843W        W43690  18.353  13.695  13.312 -0.3225 -0.2656 -0.0820
26844W        W43691   4.678  13.488   3.229  0.3874  0.0272  0.4279
26845W        W43692  18.878  10.673  13.054  0.1069  0.1763 -0.0638
26846W        W43693  14.713   1.469  11.933 -0.3440 -0.1215 -0.1084
26847W        W43694   0.223  14.272  13.061  0.1345  0.2360 -0.3039
26848W        W43695   8.766   0.612  12.370 -0.0336  0.2621 -0.1205
26849W        W43696   6.453   8.901  14.071  0.0363 -0.0519 -0.3716
26850W        W43697  14.409  16.433  13.600 -0.2133  0.2592 -0.0156
26851W        W43698   3.447  14.978   3.419 -0.1545 -0.2655 -0.2689
26852W        W43699   6.655  17.057  10.021 -0.2732  0.3010 -0.2130
26853W        W43700  17.620  13.744  14.243  0.1054 -0.0831  0.1987
26854W        W43701  15.537   1.386   1.079  0.1331  0.0022 -0.0963
26855W        W43702  10.351   9.443   1.780  0.0052 -0.2818 -0.2665
26856W        W43703   4.400   3.468  10.839  0.0655  0.0216 -0.1764
26857W        W43704  11.276   4.793   3.862  0.0969  0.0903  0.2337
26858W        W43705   9.388  10.952   3.269 -0.2290 -0.2984 -0.1287
26859W        W43706   0.363   8.001   0.332  0.4008  0.1914 -0.0165
26860W        W43707  15.866  16.177  11.792  0.2220 -0.2089  0.1109
26861W        W43708  10.912   9.978   2.223 -0.2563  0.0180 -0.1306
26862W        W43709  13.386  15.945  13.781 -0.4005  0.0516  0.2974
26863W        W43710  12.178   7.970   9.574 -0.2902 -0.3538  0.0193
26864W        W43711  14.276   3.903   2.488  0.0092 -0.1087 -0.2418
26865W        W43712   2.242  17.071   1.231  0.1310  0.0548  0.4964
26866W        W43713  10.775   1.010   0.519 -0.3010 -0.1590 -0.0485
26867W        W43714  12.693   9.807   0.116  0.1567  0.2827 -0.2001
26868W        W43715  11.439   7.004  13.855 -0.1270 -0.2434  0.0487
26869W        W43716  16.011  18.521  14.364  0.1609  0.1838  0.2795
26870W        W43717  18.940   9.014  12.762  0.1934  0.0754 -0.2190
26871W        W43718  10.253  19.412  13.168  0.1579 -0.3370 -0.0046
26872W        W43719  10.800  15.989   5.210 -0.0499 -0.3340  0.0510
26873W        W43720   3.664  10.958  13.751  0.0269 -0.2129  0.2336
26874W        W43721   2.704  18.192  11.272 -0.2063 -0.1445  0.0675
26875W        W43722   2.402   0.170  11.792  0.0973  0.1533 -0.1778
26876W        W43723  18.064  18.032   1.357 -0.0726 -0.0686  0.0785
26877W        W43724   9.585   0.338  12.521  0.0526 -0.1943  0.1730
26878W        W43725  13.519  16.766  11.619  0.2394 -0.2805  0.0174
26879W        W43726  18.818   0.293  10.514  0.1188 -0.0445  0.1911
26880W        W43727   6.441  18.353   1.002 -0.0120 -0.1547 -0.0847
26881W        W43728   2.504   2.772  10.323 -0.3164 -0.0045  0.3488
26882W        W43729  10.471   2.748  11.322 -0.1381  0.0326  0.0617
26883W        W43730  18.057   5.011   4.523  0.2419 -0.0564  0.2206
26884W        W43731   1.794   4.576   0.236 -0.3868 -0.1070 -0.1111
26885W        W43732  18.440  14.815  10.396  0.2313  0.1673 -0.0535
26886W        W43733  16.833   5.536   1.783  0.2751  0.0027  0.2319
26887W        W43734  11.793  17.376  11.500 -0.2104 -0.1568 -0.2680
26888W        W43735   3.547   6.058  12.940  0.2319  0.1786  0.1863
26889W        W43736  10.380  11.200  12.814  0.0594  0.3892  0.1897
26890W        W43737   6.291  11.964  10.102 -0.0847 -0.2008 -0.3044
26891W        W43738  14.937  17.744  13.179  0.0149 -0.1698 -0.0970
26892W        W43739  11.950   3.993   0.975 -0.0343  0.0012  0.2013
26893W        W43740   2.904  12.368  13.731  0.0427 -0.1365 -0.3012
26894W        W43741  15.975   4.141   0.606  0.3792  0.0563 -0.0439
26895W        W43742  12.235  16.578   9.806 -0.1894  0.2517  0.0384
26896W        W43743   2.646  16.441   2.440 -0.3277 -0.0114  0.0926
26897W        W43744  13.646  17.725  13.956  0.1004  0.0699  0.2039
26898W        W43745  16.174  15.514   3.435 -0.2251  0.0444  0.0932
26899W        W43746  10.612   7.723   0.133  0.3950 -0.4965  0.3009
26900W        W43747  11.408   1.845   1.902 -0.0226  0.0685  0.2091
26901W        W43748   1.932   6.516   0.477  0.0255 -0.5882 -0.1002
26902W        W43749   6.434  15.657   1.045  0.0051  0.3002 -0.1601
26903W        W43750  12.467   8.414  14.243  0.0024  0.1447  0.0286
26904W        W43751   7.516  13.231   2.306  0.0634  0.1428 -0.1233
26905W        W43752  14.127   8.611   5.202 -0.0867 -0.1069 -0.0368
26906W        W43753   0.872   6.050   4.053 -0.0435  0.1864 -0.0324
26907W        W43754   4.314  19.260  14.401  0.0105 -0.2800 -0.0029
26908W        W43755  16.136  17.541  12.456  0.3732  0.3021 -0.2063
26909W        W43756  11.895  15.889   3.701 -0.3044  0.2730 -0.0238
26910W        W43757   3.869   9.276  13.713  0.0517 -0.2653 -0.1668
26911W        W43758  16.205   2.302  13.558 -0.0755  0.1990 -0.0475
26912W        W43759  10.510   1.257   1.303  0.1123 -0.0815 -0.2016
26913W        W43760  19.101   0.282   2.862  0.0531 -0.2315  0.0193
26914W        W43761  12.819   0.932  12.698 -0.0448  0.2442  0.0608
26915W        W43762  17.339   7.840  13.885  0.2545 -0.1142  0.2280
26916W        W43763   6.937   0.458  12.569  0.1315 -0.1781 -0.0524
26917W        W43764   9.051   2.374  13.954  0.2679  0.1019  0.1187
26918W        W43765  10.502  19.453   3.725  0.1720  0.1816  0.0725
26919W        W43766  17.675  13.187   3.602 -0.0753 -0.5551  0.1796
26920W        W43767   5.309   0.778   1.017 -0.0079 -0.2579  0.0618
26921W        W43768  11.498   6.130   4.729 -0.3847 -0.0449  0.3096
26922W        W43769  13.717  14.345  13.877 -0.1003 -0.2058 -0.2225
26923W        W43770   0.077  18.755   0.728 -0.0491 -0.0605  0.3203
26924W        W43771  19.366  17.672  10.671  0.0413  0.1940  0.0585
26925W        W43772   7.711  12.831  13.817 -0.0926  0.1417  0.0344
26926W        W43773   2.277   9.734   3.524 -0.3577  0.2709 -0.1020
26927W        W43774   8.779   1.220  13.878  0.0649 -0.2406 -0.1972
26928W        W43775   6.671  11.541   3.931  0.0785 -0.2600 -0.1152
26929W        W43776  14.785   2.014   4.587 -0.0337  0.0761  0.0456
26930W        W43777  14.815   0.175  12.122  0.2636 -0.0342 -0.1274
26931W        W43778   4.754   8.578  10.245  0.0319  0.1689  0.0043
26932W        W43779  13.213   4.392   3.385  0.0930 -0.1237 -0.2227
26933W        W43780  10.099  19.199   1.454  0.1691  0.1603 -0.1217
26934W        W43781  15.953  12.060   3.324  0.1609  0.2906 -0.1284
26935W        W43782  18.189   8.755  11.412 -0.2009  0.3550 -0.0785
26936W        W43783   0.977   0.091   0.141  0.1399  0.2016  0.2067
26937W        W43784  17.761   9.874  12.524  0.0451  0.0967  0.2760
26938W        W43785   4.137  17.882   2.077 -0.0408 -0.0544 -0.1051
26939W        W43786  10.109   5.759  11.243 -0.0746  0.2744  0.3242
26940W        W43787  13.874  18.162   3.566 -0.0608  0.1985 -0.1733
26941W        W43788   7.420   1.793  10.217  0.0408  0.0316  0.2818
26942W        W43789  16.088   3.527  11.181  0.2670  0.0239 -0.1580
26943W        W43790   4.939   9.675  13.808 -0.1951  0.0023  0.0758
26944W        W43791  18.432  15.616  13.035  0.0169 -0.4519 -0.0478
26945W        W43792   4.688  15.868   1.761  0.2118  0.1087  0.2638
26946W        W43793  14.031  11.775  12.545 -0.3386  0.0515 -0.0687
26947W        W43794  16.982   6.577   4.114  0.1091 -0.0458 -0.1704
26948W        W43795   4.133   8.514  13.792  0.4237 -0.0948  0.0281
26949W        W43796   9.548  14.374   3.811  0.5324  0.1013 -0.0227
26950W        W43797  13.253  19.211   4.261 -0.1720  0.2190 -0.3577
26951W        W43798   0.106  17.913   9.845 -0.0678  0.1201  0.3337
26952W        W43799  10.668  19.169  13.561  0.0026 -0.2782 -0.0658
26953W        W43800   9.650   5.831  13.513  0.0043  0.1991 -0.0680
26954W        W43801  11.173  17.302   4.550 -0.2900  0.0610  0.0481
26955W        W43802   3.155  19.067  13.454 -0.3334  0.0398 -0.2784
26956W        W43803  12.676   6.044  12.826 -0.1220  0.1105  0.0810
26957W        W43804   7.978   7.236  10.788  0.1258  0.0711 -0.1612
26958W        W43805   3.009  12.568  12.331  0.0329  0.4047 -0.2774
26959W        W43806  18.955   8.816   3.917 -0.3479  0.1199  0.0113
26960W        W43807  12.666   0.401   3.480 -0.2501  0.0955  0.3863
26961W        W43808  11.744  18.944   9.301  0.0110 -0.2414 -0.0617
26962W        W43809   7.172  17.746   2.704  0.3049 -0.0436  0.1833
26963W        W43810  17.636   0.536   3.801  0.0010 -0.0786 -0.1342
26964W        W43811  13.387  15.775  11.477  0.2441 -0.1761 -0.0400
26965W        W43812   6.977   9.540   2.503  0.2734 -0.0799 -0.2705
26966W        W43813  13.816  17.889   3.073 -0.2865  0.2600  0.2842
26967W        W43814   6.695  18.843   4.750  0.1839  0.2122  0.0033
26968W        W43815  12.752   2.983  13.402  0.0287 -0.0539 -0.1019
26969W        W43816  18.827   0.355   3.828  0.0090  0.0076 -0.0809
26970W        W43817  14.597  13.443  13.285 -0.5396 -0.0746  0.0262
26971W        W43818   4.518   9.149   5.376  0.3724  0.2430  0.0800
26972W        W43819  12.161   3.840   2.252 -0.3522  0.2957 -0.0761
26973W        W43820  19.524   4.959   0.039  0.0354  0.2205 -0.0499
26974W        W43821   7.089  11.798   4.053 -0.3113  0.0133 -0.0191
26975W        W43822  16.363   8.448  11.750 -0.3107  0.0884  0.1873
26976W        W43823   8.378  13.726  12.886 -0.2706  0.0849 -0.1896
26977W        W43824   4.371   8.227  11.145  0.2283 -0.2947 -0.4997
26978W        W43825   5.641  14.011  10.608  0.1516  0.0616 -0.0796
26979W        W43826  14.884  11.813   0.432  0.1090  0.4565  0.0734
26980W        W43827   7.761  16.277  10.209  0.0904 -0.1687 -0.0623
26981W        W43828   8.550  12.032  10.879 -0.2629 -0.0683  0.0342
26982W        W43829  10.608  16.263  12.783 -0.1233 -0.1243 -0.0322
26983W        W43830  14.616   3.904   1.439 -0.3154  0.1397 -0.0611
26984W        W43831   8.323   7.651  10.993  0.0203  0.2232 -0.1829
26985W        W43832   3.182  14.960  12.529 -0.2439  0.1430  0.0418
26986W        W43833  14.412  14.498   3.394 -0.0324 -0.0263  0.4604
26987W        W43834  13.834  19.219  13.958  0.0817  0.1605  0.1358
26988W        W43835  16.075  14.571  14.021  0.1646 -0.1399  0.1027
26989W        W43836  12.189   4.841  13.856  0.1855 -0.2180  0.0045
26990W        W43837  15.102  15.897  12.648 -0.0608 -0.3105  0.1482
26991W        W43838  13.171   4.753  14.008  0.1052  0.1112 -0.3579
26992W        W43839   2.428  16.202   1.616  0.2130  0.0222 -0.2944
26993W        W43840  14.455  14.225  12.599  0.0167 -0.1347 -0.0603
26994W        W43841   6.964   8.964  11.011 -0.0275  0.2194  0.1127
26995W        W43842   8.665  18.933  11.772  0.2519 -0.1014 -0.1645
26996W        W43843   8.924   1.966   4.554  0.1339 -0.1349 -0.1403
26997W        W43844  16.482   3.471  12.468 -0.1484 -0.1551 -0.0273
26998W        W43845  17.295  10.388   2.826 -0.2570 -0.1083 -0.0286
26999W        W43846  11.632   9.021   0.070  0.1183  0.0362  0.0892
27000W        W43847   2.497  13.723  13.336 -0.2938 -0.1006  0.0453
27001W        W43848   3.418   4.384  11.246 -0.1232 -0.2575 -0.0947
27002W        W43849  11.842  10.001   2.280 -0.1097 -0.3081 -0.5034
27003W        W43850  12.367  17.730  13.193  0.1448 -0.1189  0.0983
27004W        W43851  18.120   3.193   3.393 -0.0646 -0.0215  0.2107
27005W        W43852  19.606  13.129  12.039  0.0500 -0.1475 -0.2111
27006W        W43853   0.832  17.272   4.814  0.0657  0.1124 -0.0476
27007W        W43854  14.350   7.145   3.606  0.2419 -0.0300  0.3465
27008W        W43855   5.334  16.291   2.645  0.4423  0.2519 -0.0870
27009W        W43856  14.862  14.724   3.335 -0.1205 -0.0110  0.0292
27010W        W43857  13.151  16.908   2.014  0.1729  0.0528  0.1105
27011W        W43858   4.625   0.560  11.293  0.1023  0.0468  0.1279
27012W        W43859  16.830  10.743   3.786 -0.1303 -0.0021  0.1137
27013W        W43860   4.706  13.187  10.656  0.3613  0.0241  0.0753
27014W        W43861   9.503  14.149  12.029  0.4971 -0.2491  0.0201
27015W        W43862  12.872  13.753  13.224 -0.2494  0.1972 -0.0115
27016W        W43863  18.863   0.551   2.493  0.0300 -0.2178  0.0647
27017W        W43864  14.526   5.116   4.368  0.0330  0.1911  0.0084
27018W        W43865   1.448   3.871  12.928  0.0184 -0.0774 -0.2833
27019W        W43866   6.617  11.830   1.273  0.0269  0.3439 -0.1424
27020W        W43867  15.486   9.234  13.549  0.0683  0.0224  0.1498
27021W        W43868  17.478   1.227  13.150  0.3191  0.2199  0.1115
27022W        W43869  14.005  12.904   9.762  0.2727  0.4232  0.2030
27023W        W43870   0.713   6.386   3.727 -0.2505  0.1310  0.0673
27024W        W43871   9.259  18.586   5.040  0.3395 -0.2621 -0.0453
27025W        W43872  14.573   9.370  10.043 -0.2385 -0.1138 -0.0480
27026W        W43873  11.059   2.237  13.651  0.3228 -0.1159 -0.0579
27027W        W43874   9.354   2.498   4.156  0.2279 -0.0086  0.0164
27028W        W43875  10.573   7.941   1.155 -0.1820 -0.0766 -0.1314
27029W        W43876  19.307  11.704   4.015 -0.0332 -0.0226 -0.1173
27030W        W43877  19.405   4.795  13.665 -0.0345 -0.1061 -0.0480
27031W        W43878   4.135  17.828  13.859  0.3628  0.0566 -0.0644
27032W        W43879  15.189   0.830   1.596  0.0566  0.2134  0.0058
27033W        W43880   5.310  15.698   2.801  0.0823  0.0794  0.0415
27034W        W43881  15.346  10.330  11.146  0.1799 -0.0308  0.1944
27035W        W43882   1.580  19.366  11.416  0.2714 -0.1692  0.0905
27036W        W43883  15.675   2.735   3.797  0.1467  0.0897  0.0347
27037W        W43884   8.840   6.775  14.348 -0.2207  0.1256  0.3082
27038W        W43885   7.054   9.047  13.142 -0.1199 -0.3423  0.1074
27039W        W43886   3.924   2.040  10.344 -0.1040 -0.2583  0.2480
27040W        W43887  19.257  17.787   9.785 -0.0325 -0.1227  0.2248
27041W        W43888  11.088  11.473   9.669  0.0051 -0.0817  0.0053
27042W        W43889  14.637  12.018  10.381 -0.0569  0.2707  0.2415
27043W        W43890   0.466  15.414   3.393 -0.1376  0.0525  0.1724
27044W        W43891   6.368  18.822  12.036 -0.0305 -0.2160  0.3637
27045W        W43892   7.814  19.517   4.457 -0.2784 -0.1946  0.2333
27046W        W43893   1.885  17.670  14.188 -0.1916 -0.1743 -0.0066
27047W        W43894  16.311   7.642  13.893  0.0994 -0.2628 -0.0077
27048W        W43895   8.755   0.261  13.221 -0.1211 -0.3652 -0.0053
27049W        W43896  15.204  18.123   1.934  0.1340  0.0208  0.0384
27050W        W43897  16.539   2.535   1.991  0.1741  0.1421  0.1772
27051W        W43898   4.327  12.327   4.324 -0.1573  0.0035 -0.1512
27052W        W43899   5.764   1.212   0.338 -0.1792 -0.1049  0.0365
27053W        W43900  14.498  16.593   2.085  0.0920  0.0304 -0.1911
27054W        W43901   2.817   4.063   0.673  0.0510 -0.1054  0.1496
27055W        W43902   9.769  11.896  12.190  0.0333 -0.1376 -0.2680
27056W        W43903   2.745   1.873  10.742 -0.0573  0.0542 -0.0085
27057W        W43904   5.888  15.563   0.330  0.1999 -0.1198 -0.0035
27058W        W43905  11.422   2.187   2.278  0.3400  0.1475  0.1562
27059W        W43906   0.405  10.959   0.317 -0.1101  0.0216 -0.1630
27060W        W43907   4.836  18.964  13.375  0.1072 -0.1145  0.1045
27061W        W43908   4.788   4.968   4.441 -0.0861 -0.1654  0.0274
27062W        W43909   6.632  12.029  12.010  0.0082 -0.0876 -0.1444
27063W        W43910  18.623  18.991  12.216  0.0640  0.0863  0.2057
27064W        W43911  16.787  18.148  12.646  0.0411 -0.4602 -0.0009
27065W        W43912  11.016  14.970   4.736 -0.1934  0.0375 -0.1168
27066W        W43913  17.868  17.397  12.135 -0.0752  0.0288  0.1402
27067W        W43914   0.951   4.462   2.316 -0.0241 -0.0543  0.0290
27068W        W43915   2.801  18.507  11.684  0.0176 -0.0744  0.1795
27069W        W43916   0.035   6.650   2.286 -0.1530 -0.1471 -0.2581
27070W        W43917   0.697   2.667   3.713  0.2522 -0.3200  0.2451
27071W        W43918  13.504  19.335   1.522 -0.1495 -0.0807  0.0956
27072W        W43919  15.722   8.045   0.965 -0.0096  0.0370 -0.1439
27073W        W43920  19.088  18.402  11.879  0.1757  0.1790 -0.4380
27074W        W43921  19.558  12.326  13.110  0.2420 -0.0633  0.0974
27075W        W43922   8.270   3.231   0.279  0.0655  0.0593  0.3619
27076W        W43923  19.115  14.918  12.723  0.2297  0.3319  0.3056
27077W        W43924   8.796  18.577   0.533 -0.2055 -0.2283  0.0237
27078W        W43925   6.978   1.569  12.036  0.0267 -0.5608 -0.0448
27079W        W43926   9.875   8.471   9.456  0.0413 -0.2317 -0.3056
27080W        W43927   3.635   0.599   3.927 -0.2287  0.1229  0.0174
27081W        W43928   3.956   3.137   3.303 -0.1691  0.2663 -0.0095
27082W        W43929  19.010  18.800  10.442 -0.4017  0.2545 -0.3996
27083W        W43930   9.962   4.334   3.782 -0.4065  0.2354 -0.0539
27084W        W43931  12.826   9.883   0.567  0.1689 -0.0806  0.1360
27085W        W43932  10.937  14.959  14.355  0.2803  0.0523 -0.1353
27086W        W43933   9.269   2.551  13.534  0.3238  0.0321 -0.1233
27087W        W43934   5.913  13.441   3.249 -0.3615  0.2392 -0.1547
27088W        W43935  12.111  12.012   1.223  0.2339  0.1337  0.3528
27089W        W43936   4.933   8.350  14.513 -0.0320  0.0308  0.0153
27090W        W43937  18.129  12.024   1.940 -0.1531  0.2412 -0.0300
27091W        W43938   2.667   5.180   9.376 -0.3125  0.1119  0.1387
27092W        W43939   9.229  10.870  14.362  0.2085  0.1276 -0.1102
27093W        W43940   7.515  17.947   3.911 -0.0906 -0.0467 -0.0924
27094W        W43941   2.529   8.844  12.128 -0.0279 -0.2671 -0.4013
27095W        W43942   4.377  15.387   3.742  0.2059  0.1684  0.1830
27096W        W43943  12.516  12.836   3.524 -0.1484 -0.0438 -0.1653
27097W        W43944   8.209  10.772   0.881 -0.1435  0.3254 -0.0565
27098W        W43945   2.330  10.584   3.817 -0.0978  0.1166 -0.1181
27099W        W43946   8.642   0.362   4.335  0.4364 -0.2083  0.1142
27100W        W43947  18.076   7.864   3.214 -0.2008  0.3307 -0.1754
27101W        W43948  11.198   5.219   4.098 -0.0136  0.0875  0.2973
27102W        W43949  14.436  16.204   3.730  0.2380  0.0533  0.2442
27103W        W43950  14.132  11.121   0.808 -0.1083 -0.0036 -0.0694
27104W        W43951  12.731  19.331   2.064 -0.5083 -0.1530  0.1985
27105W        W43952  14.536  12.675  12.299 -0.2877 -0.1312  0.2544
27106W        W43953   5.226   2.148   1.731 -0.0293 -0.0413  0.0523
27107W        W43954   8.055   8.026   2.481 -0.0536  0.1299 -0.1875
27108W        W43955   4.989  16.393   1.872  0.0834  0.0447 -0.0332
27109W        W43956  10.472  16.565   3.782  0.2314  0.1017  0.2016
27110W        W43957   5.255   5.719   2.789 -0.2785  0.2717  0.1450
27111W        W43958  11.153  15.966  13.215  0.0484 -0.0163  0.4766
27112W        W43959   9.567  11.351   0.439 -0.2350 -0.2584 -0.0134
27113W        W43960   8.312   1.687   1.361  0.2166  0.0342 -0.4120
27114W        W43961   5.375  19.631  12.569  0.2230  0.0268  0.1407
27115W        W43962   5.384  19.479   1.322 -0.2643  0.1521 -0.4370
27116W        W43963  11.000  12.328  10.804 -0.0640  0.1000 -0.1319
27117W        W43964   6.716  12.877   3.285  0.0892  0.1296  0.0716
27118W        W43965   9.325   2.531   0.792  0.1029  0.2803  0.0556
27119W        W43966   8.422   8.541   2.053  0.3962 -0.0398  0.2860
27120W        W43967   3.737   9.652  12.835  0.1338 -0.0965  0.2775
27121W        W43968  15.217  15.546   2.188 -0.2177 -0.1366  0.1648
27122W        W43969   5.583  13.568   0.750 -0.2530 -0.0780 -0.0639
27123W        W43970  16.208   0.975  11.085  0.3698 -0.1640 -0.2875
27124W        W43971  17.344  12.959  13.366 -0.0020  0.1288 -0.2195
27125W        W43972   9.538   6.608   4.371 -0.2966 -0.0953 -0.0130
27126W        W43973   3.427  11.017   3.091  0.0868  0.0821  0.1498
27127W        W43974  17.133  10.463   2.392 -0.0856  0.2081  0.0437
27128W        W43975   8.656  11.926  13.575  0.3182 -0.1659  0.0414
27129W        W43976  12.321   0.512   3.174  0.0665  0.1803  0.0319
27130W        W43977   8.679   6.023   5.285 -0.1078  0.4159 -0.0026
27131W        W43978   5.567   6.646  12.442 -0.1347  0.0165 -0.0592
27132W        W43979  19.007  19.580  10.059 -0.3563 -0.0197 -0.1714
27133W        W43980   5.176   6.409   1.693  0.1047 -0.2213  0.0090
27134W        W43981  10.305   2.234   4.460  0.1455 -0.0813  0.3608
27135W        W43982  14.442  13.827  14.121 -0.1957 -0.2547 -0.0482
27136W        W43983  18.219  11.534   4.189 -0.3451  0.1349 -0.0324
27137W        W43984   6.239   4.737   1.970 -0.0400  0.0305  0.0742
27138W        W43985  17.122   8.913  13.104 -0.1395 -0.2935 -0.2282
27139W        W43986  13.346   0.320  13.225  0.0197 -0.1689  0.1022
27140W        W43987   4.455  19.171   2.893 -0.2809 -0.0297  0.0952
27141W        W43988   8.592   4.629  12.718  0.0030  0.2437  0.2846
27142W        W43989   7.543   9.808   4.995 -0.1287 -0.2148  0.0279
27143W        W43990  14.331  14.002   0.493  0.0791  0.0006  0.1001
27144W        W43991   6.759  14.754  11.589 -0.1820  0.3756  0.0534
27145W        W43992   8.264   9.974   3.056 -0.0903 -0.0685 -0.2668
27146W        W43993  10.865  16.508  12.356  0.1868 -0.0375 -0.0933
27147W        W43994   2.080   5.002   0.535 -0.0161 -0.0232  0.0256
27148W        W43995   0.784  16.456   1.252  0.1408  0.0938 -0.1056
27149W        W43996   4.462  14.230   2.697  0.0195  0.2562  0.0301
27150W        W43997  12.870  15.713  11.500  0.1939 -0.3089  0.0160
27151W        W43998   7.149  14.150   4.648  0.2819  0.1236 -0.0022
27152W        W43999   9.926  12.980  11.918  0.2332 -0.2315  0.0248
27153W        W44000   8.901  15.277  12.295  0.1785 -0.0317 -0.1013
27154W        W44001  17.268  15.590  11.282  0.0105  0.1442 -0.1375
27155W        W44002   5.630   7.789  11.763 -0.1247  0.1381 -0.4189
27156W        W44003   1.820  12.394  11.937  0.0629  0.0923  0.0933
27157W        W44004  18.364   9.515  10.368 -0.1955  0.1330 -0.4900
27158W        W44005  10.218  15.758  14.498 -0.0841 -0.0109  0.0732
27159W        W44006   9.831  11.667   4.162  0.3418 -0.1241 -0.3210
27160W        W44007  10.134   8.502   3.143  0.0565 -0.0949  0.0748
27161W        W44008  12.150   0.932   5.002  0.0947  0.0745  0.0798
27162W        W44009   3.669  11.901  12.239  0.1560 -0.1215 -0.0828
27163W        W44010   8.214  17.925  14.550  0.1308  0.2529 -0.0535
27164W        W44011   3.721   3.396  13.124 -0.0566  0.0410  0.2002
27165W        W44012  14.138   4.615  12.853  0.2516 -0.1483 -0.0645
27166W        W44013  18.454  16.439   2.771 -0.3159  0.1018  0.1152
27167W        W44014   6.565  18.759   8.913 -0.1151 -0.3210 -0.0163
27168W        W44015   7.092  19.158   3.027  0.1607 -0.0833  0.0446
27169W        W44016   7.075  18.603  12.442 -0.0541 -0.0751  0.0015
27170W        W44017   8.975  11.034  12.850  0.3521  0.0956 -0.1764
27171W        W44018   2.372  12.995   1.983  0.2059  0.1840  0.1238
27172W        W44019   6.656   1.289   4.165 -0.1591  0.2295  0.2104
27173W        W44020   7.489  11.040   0.431 -0.0549 -0.0539 -0.1036
27174W        W44021  13.799  19.065   1.789  0.4087 -0.0754 -0.1824
27175W        W44022   0.696  13.897   4.693  0.0495  0.0578 -0.2241
27176W        W44023  17.346   3.924   4.515 -0.2157 -0.1191 -0.2787
27177W        W44024  14.682   1.730   3.678 -0.1739  0.1959 -0.3367
27178W        W44025   3.774   0.424   0.213 -0.0781  0.1529 -0.0821
27179W        W44026  13.091   5.195  10.474  0.1704  0.5209 -0.1377
27180W        W44027  16.059   5.043   0.759 -0.1969 -0.0504 -0.1774
27181W        W44028  19.252  17.915  14.208 -0.0799 -0.0333  0.2258
27182W        W44029  19.295   4.571  12.251 -0.0716 -0.1250  0.0210
27183W        W44030  15.424   4.695   1.704 -0.2753  0.0982  0.1761
27184W        W44031  16.176   0.961  12.121  0.2053 -0.4917  0.0694
27185W        W44032   6.670  13.789  14.214  0.0150  0.0958 -0.1973
27186W        W44033   4.960  16.301   5.025 -0.2614  0.0525  0.3008
27187W        W44034   8.323   9.878  12.160 -0.0633  0.0377 -0.0183
27188W        W44035   8.619   2.161   1.177  0.3829  0.0986  0.0077
27189W        W44036   1.547   9.552  11.697  0.2195 -0.2618  0.0591
27190W        W44037  12.929   8.422  11.591 -0.0935  0.2471 -0.0225
27191W        W44038  15.984  17.715  11.564 -0.1345 -0.0097  0.0380
27192W        W44039   6.653   3.353  11.589  0.1849 -0.0444  0.2071
27193W        W44040  18.527   3.410   3.991  0.0069 -0.1500 -0.1453
27194W        W44041  10.608  18.358  14.026 -0.1272 -0.0062  0.2043
27195W        W44042   9.681  12.335   0.174 -0.2239 -0.1256 -0.0972
27196W        W44043   5.481   5.946   9.344 -0.1901  0.1974  0.0911
27197W        W44044   3.246  10.570   2.949 -0.0470  0.2952  0.1784
27198W        W44045   2.935   0.322  11.478 -0.0818  0.0836 -0.0149
27199W        W44046   6.887   9.471   3.697 -0.0035  0.0858  0.0944
27200W        W44047  14.005  19.619  14.212  0.3138 -0.2477 -0.2580
27201W        W44048   6.551  18.859  12.997 -0.1200  0.2182  0.0323
27202W        W44049  15.315   5.456  11.771 -0.3103 -0.3345 -0.0342
27203W        W44050  18.438  18.534   2.125  0.1198  0.3807 -0.1073
27204W        W44051  11.189  15.348  12.866 -0.0839 -0.1079  0.0552
27205W        W44052  14.399  11.363  11.737 -0.1010 -0.4359 -0.1005
27206W        W44053   6.735   5.880  10.260 -0.0213 -0.0006  0.2958
27207W        W44054   2.935   7.263   2.680  0.3328  0.1192 -0.2512
27208W        W44055   4.278   8.006   2.586  0.0940  0.0870  0.3624
27209W        W44056   8.950   3.972   4.425 -0.1114 -0.0971  0.1072
27210W        W44057   3.217  13.640   9.871 -0.3127 -0.2201  0.0618
27211W        W44058   4.263  10.724   1.087 -0.0074  0.1701  0.1920
27212W        W44059  17.013   7.204   3.420  0.0069  0.1136  0.1858
27213W        W44060  10.823  17.120   0.778  0.2536  0.1474 -0.0666
27214W        W44061  18.597   5.766   2.254  0.0229 -0.0919 -0.0992
27215W        W44062  15.172   7.365  13.419 -0.1052  0.1176  0.1434
27216W        W44063   1.505   4.955  10.074 -0.3603  0.3945  0.1330
27217W        W44064  16.243  16.863   2.845  0.0054  0.2895 -0.0833
27218W        W44065   5.405   2.877   2.566  0.0947 -0.1169  0.2086
27219W        W44066  11.776  10.712  12.277 -0.3670 -0.4808 -0.1903
27220W        W44067  16.453   4.506   3.385  0.0271 -0.0056 -0.0978
27221W        W44068   0.035   6.619  11.694  0.1226 -0.3190 -0.0788
27222W        W44069   1.330   4.786   2.752  0.1221  0.0819 -0.0786
27223W        W44070  16.646  11.878   5.072 -0.3001  0.0170  0.0449
27224W        W44071   3.425  12.886   2.763  0.0843  0.1702  0.2101
27225W        W44072   2.494   2.757   1.645 -0.0086  0.2584  0.0967
27226W        W44073  19.078  18.109   0.896  0.0109  0.0738 -0.1753
27227W        W44074  16.809  14.278   3.099  0.2920 -0.2886  0.0783
27228W        W44075   9.874  14.437   5.038 -0.0482  0.0465  0.0129
27229W        W44076   2.985   5.904   1.140  0.1340 -0.2862 -0.0126
27230W        W44077  15.367   8.740  14.469  0.1260  0.3377 -0.1662
27231W        W44078   7.018   7.713   3.010 -0.3612  0.2021 -0.0219
27232W        W44079   6.619   3.462   1.982 -0.2741 -0.0004 -0.1358
27233W        W44080   1.488   9.999   0.076 -0.1181 -0.0088  0.1529
27234W        W44081   7.996  17.840   4.681  0.2882  0.2655 -0.1048
27235W        W44082   7.170   0.947  13.401 -0.1758 -0.2057  0.0317
27236W        W44083  16.947  12.847   1.945 -0.0048  0.3435 -0.0582
27237W        W44084  17.110   6.338   0.489 -0.0160 -0.0020  0.1800
27238W        W44085   9.717   5.889   4.997  0.1551 -0.0499  0.1230
27239W        W44086   2.389   0.394   1.180  0.0100  0.1852 -0.1368
27240W        W44087  13.852   4.361  11.038 -0.1272 -0.2412  0.0322
27241W        W44088   9.752   5.119   2.372  0.1200  0.0554  0.0144
27242W        W44089   3.304   9.035   1.600  0.2169  0.0854 -0.1528
27243W        W44090   8.934  18.732   4.172  0.1213 -0.2111  0.1939
27244W        W44091   8.886  11.441   4.029  0.1569  0.4299  0.0109
27245W        W44092  16.698  10.958  11.452 -0.3572 -0.2750  0.2450
27246W        W44093   9.190  19.100  11.722 -0.0799  0.0208 -0.2738
27247W        W44094   5.922   6.608  13.829 -0.1340  0.2446  0.3075
27248W        W44095  13.388   5.531  14.241  0.2207 -0.2020 -0.1120
27249W        W44096  18.621  14.971   1.759 -0.3311 -0.2994  0.3410
27250W        W44097  15.139  11.118   4.854 -0.2763  0.0183 -0.0519
27251W        W44098   9.072   5.032  10.749  0.0320 -0.0164 -0.3651
27252W        W44099  13.572   8.355  13.936  0.1543  0.1592 -0.0713
27253W        W44100  10.290   8.460  12.946 -0.2805 -0.1470 -0.1937
27254W        W44101   8.581  14.282   0.413 -0.2629  0.0388 -0.0936
27255W        W44102   8.034  14.549  12.488 -0.1096 -0.0495  0.2937
27256W        W44103   0.632  19.388  10.742 -0.2072  0.2457 -0.1598
27257W        W44104   6.876  11.350  12.710  0.0824  0.1452  0.3925
27258W        W44105  15.106  15.611  13.600 -0.0912  0.0475 -0.3411
27259W        W44106  13.703  16.235  12.480  0.0685  0.2651  0.3265
27260W        W44107  15.888  15.677  10.379  0.2089  0.0400 -0.0296
27261W        W44108   6.179   4.332   0.604  0.0908 -0.3668  0.0982
27262W        W44109  13.634   8.170  10.704  0.1188 -0.0172  0.0046
27263W        W44110  10.725   6.079   5.576 -0.1145  0.0673  0.0220
27264W        W44111  10.318  13.108  13.357 -0.3732  0.0847 -0.1013
27265W        W44112  13.072  10.825   2.974  0.0686 -0.1406 -0.0648
27266W        W44113   9.288  14.992   0.502  0.3349 -0.1290 -0.0643
27267W        W44114  11.447   1.552   4.953 -0.2360 -0.0348 -0.0191
27268W        W44115   7.063   7.273   4.262 -0.0330  0.0526 -0.2867
27269W        W44116  15.629  12.444  10.932  0.2254  0.2469 -0.4660
27270W        W44117   7.809   9.711   4.534 -0.2800 -0.0598  0.1179
27271W        W44118   9.388  15.442  10.483 -0.0131  0.4871  0.0767
27272W        W44119   7.236   5.085  12.187 -0.0881  0.2350 -0.1111
27273W        W44120  11.121   7.776  11.081 -0.0993 -0.2425  0.0966
27274W        W44121  10.060  13.374  12.990  0.0431  0.1863 -0.0670
27275W        W44122   3.510   6.038   4.776  0.0704  0.0145 -0.2172
27276W        W44123   5.169  14.017   3.570  0.0410  0.1432 -0.0730
27277W        W44124   7.106   1.838   3.583  0.1340 -0.1411  0.4987
27278W        W44125   0.059  12.783   3.906  0.4543 -0.0023 -0.0094
27279W        W44126   2.549   3.754  13.487 -0.1305  0.0462  0.0771
27280W        W44127  10.368   2.858   3.696 -0.0246  0.0750 -0.0265
27281W        W44128   8.796   7.434  12.858 -0.0857  0.1684  0.1601
27282W        W44129  12.552  15.566  13.081 -0.1195 -0.1019  0.1611
27283W        W44130  14.365  17.161  14.242 -0.1691 -0.1813 -0.0062
27284W        W44131   1.309   0.145  10.539 -0.0697  0.1677  0.0061
27285W        W44132  13.507  10.552   3.268  0.1419 -0.0477  0.2841
27286W        W44133   5.302  11.532   1.006 -0.3512 -0.0348 -0.0335
27287W        W44134  18.109  12.150   4.509 -0.1325 -0.2777 -0.0988
27288W        W44135   6.913   6.319  12.338  0.0041 -0.0385 -0.3130
27289W        W44136   3.556   8.315   1.196  0.0403  0.0498  0.0823
27290W        W44137   3.874   7.201  12.644  0.0697  0.0702  0.2590
27291W        W44138   3.964  15.321   3.402 -0.3746 -0.1020 -0.1880
27292W        W44139  14.201  12.135   3.826 -0.3577  0.2908 -0.1608
27293W        W44140  14.535   6.044  12.116 -0.3113  0.1162  0.0493
27294W        W44141  11.453   7.044   0.452 -0.2991  0.1101  0.1556
27295W        W44142  14.998   2.567  13.897  0.1018 -0.1403  0.2057
27296W        W44143   8.996   7.251  11.322 -0.1128 -0.2012  0.1151
27297W        W44144  12.716  13.328  10.062 -0.0266 -0.1916 -0.0665
27298W        W44145   2.137  15.269   3.213  0.0275 -0.1482 -0.2713
27299W        W44146  12.148  17.204   1.820 -0.0382 -0.0360 -0.1008
27300W        W44147   0.489  15.182   1.279 -0.1161 -0.0027 -0.1390
27301W        W44148   3.862   4.962   2.141 -0.1677 -0.2736 -0.0315
27302W        W44149   0.278   1.825  14.608 -0.3535 -0.2494  0.1390
27303W        W44150  17.311   8.542   3.358 -0.1884  0.3891 -0.0756
27304W        W44151   5.472   4.905  12.695  0.1149 -0.1336 -0.1206
27305W        W44152  17.231  18.153   1.292  0.0533 -0.0488 -0.2712
27306W        W44153   3.846   7.280   5.213 -0.0582 -0.1386 -0.1703
27307W        W44154  13.136  17.889  11.123  0.0748  0.1100 -0.3564
27308W        W44155  12.874  14.930   4.409  0.3138 -0.3371  0.0676
27309W        W44156   0.661   8.794  11.836  0.1700  0.1767  0.0776
27310W        W44157  16.701  13.925   2.331 -0.1068 -0.1838  0.0986
27311W        W44158  11.249  15.398   4.052 -0.4606 -0.1005  0.1826
27312W        W44159   7.275  10.104  10.861 -0.1117  0.1981  0.1679
27313W        W44160  15.441   1.015  10.172  0.2347  0.0420  0.1033
27314W        W44161   0.998   9.196  13.287  0.1742 -0.2063  0.2356
27315W        W44162   5.664   5.743   2.090  0.1481  0.0792 -0.3114
27316W        W44163   2.297  16.965  13.754  0.2347  0.2662 -0.0853
27317W        W44164  14.254   6.936   9.721  0.2792 -0.1504 -0.0176
27318W        W44165  16.031   8.189  11.494 -0.0189  0.0175  0.3591
27319W        W44166  12.133  19.551   3.991 -0.1997  0.0612  0.0435
27320W        W44167  19.154  16.356  13.730 -0.2065 -0.0987 -0.0679
27321W        W44168   6.796  16.611   4.316  0.0007 -0.0191 -0.3066
27322W        W44169   3.095   4.634   1.419 -0.1373  0.0650  0.0464
27323W        W44170   0.774  14.436   0.386 -0.1045  0.0115 -0.2889
27324W        W44171   3.077  12.527   1.898 -0.1900 -0.0402 -0.2356
27325W        W44172   6.689   8.291   4.835  0.1246 -0.0495  0.0254
27326W        W44173  17.202   3.995   1.964  0.3891 -0.0467  0.0702
27327W        W44174  18.118  13.163   0.894 -0.0057 -0.0787 -0.0460
27328W        W44175  18.831  11.120   2.630 -0.0959 -0.0556  0.1769
27329W        W44176  14.097   8.177   9.938 -0.1205  0.0684  0.0832
27330W        W44177  15.134  18.635   4.700  0.4393  0.2809 -0.4451
27331W        W44178   1.471  12.406   1.296 -0.2372 -0.2074 -0.1450
27332W        W44179  16.998   4.502   3.187  0.5272  0.3559  0.0209
27333W        W44180   0.658   4.506   0.931 -0.0342 -0.2427 -0.0613
27334W        W44181   7.955   8.070  12.287  0.2552 -0.1358 -0.0374
27335W        W44182  13.331   1.789  10.409  0.2053  0.4842 -0.2478
27336W        W44183   4.407   4.260  10.290  0.0015  0.1996  0.0971
27337W        W44184   0.268   6.463   0.250 -0.1517  0.0184  0.0952
27338W        W44185   9.731   0.631  11.994  0.1985  0.1532  0.0311
27339W        W44186   2.782  11.506   4.367  0.2582  0.0744 -0.0121
27340W        W44187   3.353   7.804  12.139 -0.1447  0.1485 -0.0302
27341W        W44188  15.295   1.252  11.162 -0.1915  0.0115 -0.0489
27342W        W44189  10.129  13.050   0.998  0.4287 -0.2018  0.0213
27343W        W44190   5.747  11.736   3.651  0.1172  0.3144  0.1842
27344W        W44191  13.402  11.052   5.195 -0.2554 -0.2178  0.0183
27345W        W44192  18.081   5.946  12.097  0.2513 -0.2081 -0.2658
27346W        W44193   0.301  15.620  11.835  0.2394  0.1294  0.1511
27347W        W44194   3.141  11.632   1.911 -0.0711 -0.0037  0.0091
27348W        W44195  11.992   0.105   1.243  0.2442  0.0466 -0.0369
27349W        W44196  14.029  15.068  10.339  0.1842  0.0483  0.0805
27350W        W44197   8.907  15.513   4.391  0.1112 -0.2425 -0.1816
27351W        W44198  10.240  14.264  13.827 -0.3326  0.1852 -0.0165
27352W        W44199  16.758  17.775  11.505  0.0464 -0.1202  0.0694
27353W        W44200   4.874  14.779  13.968  0.0106 -0.0092  0.2301
27354W        W44201   1.727   7.070   1.330 -0.2362 -0.0701  0.0180
27355W        W44202  10.891  16.632  11.426  0.2963 -0.0001 -0.0116
27356W        W44203  19.051   6.183   2.524 -0.2340 -0.3141 -0.0527
27357W        W44204   1.909  11.031  12.292  0.0920  0.0510 -0.4422
27358W        W44205   7.282   0.207  12.320 -0.5040  0.1927  0.1180
27359W        W44206   5.246  17.668   3.380 -0.5906  0.1889 -0.1415
27360W        W44207  16.067   5.869  11.475  0.1665  0.0955  0.0206
27361W        W44208  13.820   8.029   3.303 -0.0547  0.1091  0.0743
27362W        W44209   7.164   7.168  12.173 -0.1736 -0.1175  0.1281
27363W        W44210  15.076   8.577   3.840  0.2590  0.0637 -0.0799
27364W        W44211  15.751   0.205  12.002  0.1719 -0.1648 -0.0605
27365W        W44212  17.174   1.189   1.566 -0.1901 -0.1068 -0.1278
27366W        W44213   9.281  15.800   3.904  0.3469 -0.1730 -0.1242
27367W        W44214  12.003   7.768   3.821 -0.0142  0.1943  0.1196
27368W        W44215   1.389  10.013   2.617  0.0436 -0.0131  0.2025
27369W        W44216   3.116   1.912   9.848  0.1654 -0.0348 -0.0406
27370W        W44217  11.652  17.488   3.026  0.2653  0.2368  0.0521
27371W        W44218  12.598  11.395   0.513  0.0539 -0.3754  0.0403
27372W        W44219   1.581   0.516  10.233  0.0198 -0.2546  0.3264
27373W        W44220   7.884   3.400  13.275  0.2594 -0.0203 -0.0981
27374W        W44221   9.314  17.901   2.352 -0.0844  0.1382 -0.1906
27375W        W44222   3.168  18.062  11.061  0.3269 -0.1270  0.2035
27376W        W44223   2.589  10.466   4.747 -0.2706 -0.3039  0.2356
27377W        W44224   5.717   6.865  11.412  0.0757 -0.0132  0.0045
27378W        W44225  14.312  12.326   5.167 -0.0118 -0.0956  0.0931
27379W        W44226  12.804   9.865   4.130  0.1122  0.1291 -0.1764
27380W        W44227  12.031   7.234   0.881  0.1343 -0.1575 -0.2053
27381W        W44228  10.703  15.865   4.293  0.2215 -0.0861 -0.0879
27382W        W44229  13.642  14.842  12.116 -0.0737 -0.2551  0.2319
27383W        W44230   1.001   1.217  10.626  0.1933 -0.1393 -0.0211
27384W        W44231   9.634   3.534   2.631  0.1733  0.1059  0.0559
27385W        W44232  16.188  18.206   1.438  0.1961  0.2104  0.3245
27386W        W44233   5.681   9.155  10.899 -0.1123  0.1441  0.2644
27387W        W44234  12.862   7.634  11.676  0.0455 -0.1585  0.0601
27388W        W44235  17.804   7.854  14.017  0.1515  0.4137 -0.2270
27389W        W44236   0.697  14.193  10.559 -0.0944  0.0305  0.2336
27390W        W44237   9.735   5.143   3.966 -0.1165  0.1489 -0.1883
27391W        W44238  16.966   1.817  13.991  0.1486  0.1653  0.1551
27392W        W44239   1.461  19.531   1.907  0.1184 -0.2367  0.2614
27393W        W44240  18.227   4.629  11.175  0.2301  0.3827  0.1370
27394W        W44241  12.064   6.677  14.203 -0.0668 -0.2346 -0.0998
27395W        W44242  14.052  13.772   3.302 -0.0382 -0.0619 -0.1759
27396W        W44243  12.477   3.180  12.424  0.0238 -0.2443  0.0429
27397W        W44244  11.183   7.914   4.184  0.1848  0.2435 -0.0755
27398W        W44245  13.690  14.175  10.866 -0.1265 -0.1267 -0.0426
27399W        W44246   1.851   7.767  13.222 -0.1863 -0.0315 -0.1116
27400W        W44247   2.465  11.319  14.279  0.2750 -0.3213 -0.0507
27401W        W44248  10.143   4.898   4.130 -0.2335 -0.0567 -0.1274
27402W        W44249  14.004  19.183  12.897 -0.0195  0.0792 -0.0583
27403W        W44250  10.808   0.674  11.764  0.1768  0.1279 -0.4331
27404W        W44251  11.028   4.105  13.395  0.0685  0.1521  0.2115
27405W        W44252   0.840  19.317   0.760  0.0008  0.0764  0.0153
27406W        W44253   2.900   9.799  10.464 -0.0483  0.1557  0.2058
27407W        W44254   5.658  14.895   4.291  0.2018  0.2095  0.0523
27408W        W44255   2.896   1.609  11.619 -0.2829 -0.0664  0.0964
27409W        W44256   2.656   7.627  10.382 -0.4248 -0.0193 -0.0001
27410W        W44257   5.919   0.055  13.143  0.0765  0.1046 -0.1061
27411W        W44258   5.638   1.608  13.198  0.0133  0.0719 -0.0519
27412W        W44259  11.208  16.733   2.729  0.1133 -0.0701  0.1031
27413W        W44260   6.145   6.487   1.957  0.0212  0.3738  0.5302
27414W        W44261  10.588  11.649   3.303 -0.2526 -0.2411 -0.1948
27415W        W44262   3.464   2.071   4.536  0.3156  0.1065 -0.0921
27416W        W44263  13.631  12.106   1.403 -0.1058  0.0893 -0.0427
27417W        W44264   7.431   8.801  10.923 -0.1429  0.2841  0.0424
27418W        W44265  17.744  18.683   0.742 -0.2502 -0.2472  0.1276
27419W        W44266   5.775  14.052   1.563  0.2089  0.0994 -0.1842
27420W        W44267  17.594   5.308  12.065  0.1324  0.2150 -0.6556
27421W        W44268   9.868  18.128   2.947 -0.1640  0.0080  0.0745
27422W        W44269   6.312   0.494  12.120 -0.1239 -0.1896 -0.0115
27423W        W44270  16.249   1.966   9.816  0.1548 -0.1370  0.1100
27424W        W44271  14.867   4.572   0.839  0.4958  0.1540 -0.1896
27425W        W44272  12.929   4.327   2.681  0.0350  0.0622  0.0728
27426W        W44273  11.447   0.416   2.202 -0.2351 -0.3382 -0.2744
27427W        W44274  18.117  17.566   2.616 -0.0736 -0.1747 -0.3255
27428W        W44275   5.257   9.472   2.540 -0.0651  0.1503 -0.2275
27429W        W44276  19.399  15.995  14.538 -0.0336  0.0355 -0.0473
27430W        W44277   4.206   8.848   3.206  0.2401  0.2192  0.1380
27431W        W44278  16.361  11.102  14.354 -0.0598 -0.2281  0.0097
27432W        W44279   7.871  12.617   3.020 -0.3008  0.0859 -0.1205
27433W        W44280  13.172   4.684  10.382 -0.2492  0.1610  0.0369
27434W        W44281   6.851  13.169  13.856 -0.1411 -0.1915  0.0731
27435W        W44282  18.028   7.687   4.885  0.0263 -0.1790  0.0009
27436W        W44283   6.983  15.930  11.434 -0.0976  0.2319  0.0844
27437W        W44284  17.227   5.213  11.535 -0.1676 -0.1165 -0.2386
27438W        W44285   3.076   0.295   2.882 -0.1649 -0.0955  0.0044
27439W        W44286   7.824  11.168   9.704  0.0329  0.2466  0.0014
27440W        W44287   0.672  11.930   0.654 -0.1070  0.1375 -0.1692
27441W        W44288   2.173   8.953  13.292 -0.1311 -0.2131 -0.0508
27442W        W44289  18.698   2.872  13.409  0.1544 -0.3728  0.2428
27443W        W44290   6.277   8.759   0.594 -0.1213 -0.0844  0.0348
27444W        W44291  16.895  16.043   0.245  0.1621  0.1956  0.2953
27445W        W44292   2.128  19.083   3.189 -0.0277  0.0313  0.1275
27446W        W44293   6.142  19.617  10.845  0.1817  0.0381 -0.1689
27447W        W44294   4.197  11.612  12.156  0.0076  0.0036  0.0261
27448W        W44295   1.973   0.966   3.942  0.1197 -0.2689  0.0934
27449W        W44296   4.474  17.671  10.136  0.2313 -0.1550  0.4173
27450W        W44297   1.796  16.636   4.588  0.0350  0.1827 -0.4079
27451W        W44298   9.776  18.705  13.571  0.0782 -0.1472 -0.0002
27452W        W44299  18.802  10.362   9.411  0.0005  0.1822 -0.2652
27453W        W44300   5.402  13.822   2.498 -0.0336  0.0365 -0.2554
27454W        W44301   2.860  15.889  11.451 -0.2594  0.2095 -0.1328
27455W        W44302   5.417   8.805  10.613 -0.2139 -0.4319 -0.1300
27456W        W44303  14.976  18.120   2.399 -0.2253 -0.2199 -0.0239
27457W        W44304  12.887  15.579  11.981  0.2122  0.2862  0.1839
27458W        W44305   0.397  19.101  12.329 -0.0327  0.3165 -0.6333
27459W        W44306  14.654  14.432  10.727 -0.0741  0.0636 -0.0514
27460W        W44307  12.458  15.107  10.455 -0.0953 -0.0846  0.1106
27461W        W44308   3.717   2.226  11.413 -0.0494  0.0121  0.2439
27462W        W44309   2.206  10.587  12.157 -0.3330  0.1972 -0.0430
27463W        W44310   4.472  12.542  12.217 -0.1483  0.1151  0.0088
27464W        W44311   7.529   5.128   4.086 -0.3108  0.2191 -0.0795
27465W        W44312  14.607   3.125   0.049  0.3865 -0.0466  0.0027
27466W        W44313   9.323   4.498   2.217  0.0782  0.1433 -0.0898
27467W        W44314  10.042  14.905  10.299 -0.2517  0.6293 -0.0300
27468W        W44315  12.409  16.064   2.553 -0.1059 -0.1686  0.1187
27469W        W44316  10.593   8.988  12.413 -0.0824  0.0467  0.0636
27470W        W44317   9.113   9.074   1.688 -0.3104  0.1118  0.0827
27471W        W44318   9.792  15.745   1.502  0.0534 -0.0548  0.2596
27472W        W44319   0.037  11.012   4.624 -0.2480 -0.2935  0.0707
27473W        W44320  14.636  12.756   4.965 -0.0325 -0.1353  0.3986
27474W        W44321  10.709  13.501  12.450 -0.1064  0.2181 -0.0351
27475W        W44322  16.074  14.708   4.007 -0.3812  0.0111 -0.0109
27476W        W44323  18.323  10.556   5.125 -0.1094 -0.2612  0.2901
27477W        W44324  10.520   6.213  11.128  0.1846  0.1486 -0.1501
27478W        W44325  14.512  15.173  12.539  0.0447  0.1870 -0.0927
27479W        W44326  11.312  17.621  14.411 -0.1756 -0.2057  0.2496
27480W        W44327   8.989  16.950  13.010 -0.0023  0.2677 -0.5374
27481W        W44328   2.537  17.319  14.122 -0.0624  0.0481 -0.2027
27482W        W44329   6.927   0.219  13.048 -0.2432 -0.0831 -0.3191
27483W        W44330  13.789   6.354   5.111  0.1078  0.1448  0.0156
27484W        W44331  18.765   4.689  13.040  0.1232 -0.0118  0.0659
27485W        W44332   5.818  13.549  11.256 -0.0777  0.1707 -0.0025
27486W        W44333   6.814   2.456   2.643  0.3962  0.0878  0.1798
27487W        W44334   2.775   8.693   3.423 -0.2067  0.1028  0.1019
27488W        W44335   6.965   1.235   3.131 -0.0170  0.2262  0.0675
27489W        W44336   7.151  10.270   3.163 -0.0664  0.0726 -0.0148
27490W        W44337  18.439  15.166   0.332 -0.0881 -0.2940 -0.1180
27491W        W44338  13.443  13.190  13.213 -0.3516 -0.1552 -0.0236
27492W        W44339  13.942   2.004  14.479  0.4214  0.0317  0.1147
27493W        W44340  19.526  15.845   1.798  0.1270 -0.2600 -0.1016
27494W        W44341   2.740   4.168   0.130 -0.4947  0.0065  0.1262
27495W        W44342   0.596   0.808  12.861 -0.1247 -0.1098 -0.3582
27496W        W44343  18.003   9.141   9.605  0.0811  0.2732  0.0989
27497W        W44344   2.799  16.290  11.183 -0.0952  0.1769  0.3115
27498W        W44345   0.823  12.156   4.854 -0.1146 -0.1310 -0.1205
27499W        W44346  10.167   0.327   3.718 -0.0426  0.2215  0.1493
27500W        W44347  15.985   5.121  10.777 -0.1356 -0.3094  0.0605
27501W        W44348  17.618   3.849  10.543 -0.0045  0.1241 -0.1115
27502W        W44349   8.722  18.802  13.470  0.0606 -0.3020  0.2192
27503W        W44350   3.213   0.556  14.032 -0.0838  0.0203 -0.0603
27504W        W44351  17.755  14.406  12.907 -0.3326 -0.1281  0.1338
27505W        W44352   2.761  16.056  13.276 -0.3243 -0.0738  0.1430
27506W        W44353   3.293  18.174  10.598  0.0463  0.0467  0.2587
27507W        W44354   8.216  14.249   5.087 -0.0789  0.1535  0.0740
27508W        W44355  14.713   8.356  14.111 -0.0717  0.1244  0.0414
27509W        W44356  12.847   0.699  13.996  0.2078  0.2019 -0.0100
27510W        W44357   6.420   8.667  13.592  0.1843  0.2848 -0.0932
27511W        W44358  17.299   7.700  14.373 -0.2935 -0.2792 -0.3562
27512W        W44359   6.161  18.173  14.501  0.3163  0.0373  0.2336
27513W        W44360   9.816  10.792  13.519 -0.2124  0.4630  0.0605
27514W        W44361  19.012  16.493  10.877 -0.1525  0.0659 -0.0025
27515W        W44362   8.326  13.217   0.111 -0.0877  0.0763  0.0874
27516W        W44363   5.541  17.345   1.661 -0.0475  0.3054 -0.1205
27517W        W44364  19.449  13.165   0.028 -0.2465  0.1380 -0.1099
27518W        W44365   0.551   1.909   4.038  0.1913 -0.1647  0.7116
27519W        W44366  19.417  17.124   0.581  0.2591  0.0446  0.2301
27520W        W44367   9.613   0.555   2.033  0.2191 -0.2313 -0.3793
27521W        W44368   3.451  16.231   1.568  0.0259  0.0396  0.0475
27522W        W44369   2.921   1.584  11.094  0.0126 -0.2586  0.2140
27523W        W44370  15.609  13.003   1.002 -0.0508  0.0901 -0.1001
27524W        W44371   0.322   1.305   0.103  0.0160 -0.1335  0.0945
27525W        W44372  17.116  15.453   3.190 -0.2269  0.0457  0.0918
27526W        W44373   2.094   3.432   1.128  0.1269 -0.1203 -0.0276
27527W        W44374  11.516  13.555   0.021 -0.0678 -0.2728  0.2226
27528W        W44375   9.457  10.897  11.934 -0.0725  0.0181 -0.2245
27529W        W44376   3.964  10.062  12.695  0.3174  0.1110 -0.0828
27530W        W44377  13.393   0.386   0.934 -0.2551  0.2725  0.0717
27531W        W44378  19.584   6.501  13.305  0.2543  0.1049  0.0300
27532W        W44379  16.614   5.896  11.589  0.0423  0.2318 -0.1848
27533W        W44380  12.940  12.267  11.791  0.0747 -0.1217 -0.1485
27534W        W44381   4.919  11.730  13.513  0.1902  0.0446  0.4839
27535W        W44382  14.765   4.761  10.819  0.1065  0.3328  0.0596
27536W        W44383   1.790   4.368  11.475  0.0809  0.3503  0.2379
27537W        W44384  10.747  10.361  13.709 -0.0816  0.1566 -0.1295
27538W        W44385  17.966  15.700  14.140  0.2951 -0.1064 -0.3006
27539W        W44386  15.954  10.965  12.256 -0.0082 -0.1929  0.2638
27540W        W44387   4.898  18.029  12.848 -0.1303 -0.1291  0.2167
27541W        W44388   5.366  12.551   3.897 -0.0470  0.1968 -0.3851
27542W        W44389   3.879  19.023   8.751  0.0330  0.2724 -0.1918
27543W        W44390   8.644   1.965   3.808 -0.3143  0.1443 -0.1096
27544W        W44391  14.785   3.977  13.424 -0.1745  0.0057 -0.2131
27545W        W44392   2.008  15.776  13.845  0.0659 -0.1200 -0.2246
27546W        W44393   7.246   9.897  14.229  0.0336  0.1962 -0.0048
27547W        W44394  11.472  17.794   1.965 -0.0884 -0.1985 -0.3954
27548W        W44395   6.728  11.781   9.543  0.0726  0.0952 -0.0503
27549W        W44396  12.888   0.490   3.007 -0.0617  0.0457  0.1338
27550W        W44397  17.361   7.982  13.380 -0.0041 -0.3145  0.0555
27551W        W44398   6.608  16.322  13.228 -0.0094 -0.0463  0.0449
27552W        W44399  16.011  11.642  11.440  0.2421 -0.2183  0.1482
27553W        W44400   3.301   3.216  12.480  0.0070 -0.0456 -0.2802
27554W        W44401  18.183   5.524  13.182 -0.2259  0.0766  0.0903
27555W        W44402  16.941  17.078   3.458  0.1219  0.0301  0.0666
27556W        W44403  15.649  17.090  13.828  0.2995 -0.1410 -0.3078
27557W        W44404  12.306   4.070  11.501  0.0847 -0.2234  0.1852
27558W        W44405  16.693  10.681   4.245 -0.1553  0.0864 -0.0893
27559W        W44406   9.851  11.679  14.032 -0.1081  0.1470  0.0994
27560W        W44407   1.489  14.527   2.732  0.1970 -0.0846  0.0145
27561W        W44408  16.624  10.332  12.055  0.2295  0.0487 -0.1733
27562W        W44409   3.411   9.047  14.545  0.1790  0.0364 -0.1451
27563W        W44410  15.785  11.784   3.740  0.1168  0.1355 -0.0144
27564W        W44411   0.315   3.415   2.985 -0.1231 -0.0107  0.3491
27565W        W44412   5.074   4.790  10.592  0.0038 -0.0442 -0.3082
27566W        W44413  16.934  14.561  13.048 -0.1500 -0.0934  0.1312
27567W        W44414   2.936  11.738  11.794 -0.3418  0.0922  0.2272
27568W        W44415   9.122  17.758   3.302 -0.2613  0.1308 -0.0470
27569W        W44416   4.931  13.687  13.910 -0.0064  0.0093 -0.1236
27570W        W44417  11.790   5.750   0.968  0.4271 -0.0914 -0.1892
27571W        W44418   0.793  15.259   4.309 -0.2308  0.2317  0.0664
27572W        W44419   0.758   4.387   2.980 -0.1750 -0.8178  0.1361
27573W        W44420   4.251  12.670   2.997  0.0911  0.1082 -0.2346
27574W        W44421   6.341   0.179  11.286  0.0783 -0.3153 -0.1357
27575W        W44422   5.917  17.574   3.679 -0.0705  0.3168 -0.1690
27576W        W44423  10.818  15.576  13.322  0.0254 -0.3136  0.0141
27577W        W44424  11.455  16.702  12.876  0.2169 -0.0797 -0.0057
27578W        W44425   8.357  14.565   4.670  0.1968 -0.1784  0.0600
27579W        W44426   8.067   1.903   4.023  0.2689  0.0811  0.1007
27580W        W44427  19.171  19.557   1.829 -0.1017 -0.2777 -0.0096
27581W        W44428   9.772  12.647   1.068  0.0707  0.0630  0.1213
27582W        W44429  13.974   8.536  12.321 -0.0063  0.1234  0.1258
27583W        W44430   2.372   9.677   2.496 -0.2923 -0.2609  0.0276
27584W        W44431  17.201  17.784  11.818 -0.1183  0.0119 -0.3492
27585W        W44432   4.162  10.378   5.283 -0.0167 -0.2039 -0.0577
27586W        W44433   8.096  11.835  10.805 -0.3214  0.2779 -0.2376
27587W        W44434   5.467   4.847  12.182 -0.0412  0.1750 -0.3245
27588W        W44435   6.068   1.596  10.138 -0.2452 -0.1191 -0.0796
27589W        W44436   4.271  12.423   4.908  0.2765  0.2840 -0.2012
27590W        W44437  13.833   3.961  13.924  0.1613  0.3396 -0.1618
27591W        W44438  14.704   0.835   3.488 -0.0938  0.1074  0.1082
27592W        W44439   7.306   1.773   1.461 -0.0537 -0.0953  0.0063
27593W        W44440  15.603  13.803  11.805 -0.0598 -0.1125 -0.1161
27594W        W44441  11.047  16.514   1.597 -0.3066  0.1988 -0.1152
27595W        W44442  11.846   7.052  12.176 -0.2714 -0.1414 -0.2846
27596W        W44443  11.586  15.694  12.904  0.1852 -0.1182  0.0182
27597W        W44444  19.122   0.483  12.290  0.4182 -0.2650 -0.0590
27598W        W44445   5.184   1.128  13.236 -0.1820  0.3304 -0.0695
27599W        W44446  13.408   5.603  13.761  0.0276 -0.2928 -0.0502
27600W        W44447  11.946  18.887  13.279 -0.0620  0.5155  0.0107
27601W        W44448  17.426   6.814   0.180 -0.2529  0.1859 -0.0186
27602W        W44449   4.056  12.552  13.128 -0.2818 -0.1432 -0.1251
27603W        W44450  17.975   3.749   3.252 -0.2506 -0.2470  0.0888
27604W        W44451  19.355   1.398   2.886  0.0581 -0.0916  0.4423
27605W        W44452   5.148  13.720   5.635  0.1669 -0.1829 -0.1894
27606W        W44453  14.725   2.256  11.622  0.4039  0.3951  0.0722
27607W        W44454   3.333   5.947  10.280  0.0436  0.0958  0.1284
27608W        W44455  12.653  16.626  14.126  0.0127  0.2133 -0.3041
27609W        W44456  11.364  15.149  14.257  0.0158  0.3415 -0.3822
27610W        W44457  14.866  15.452   2.687  0.3679  0.3751  0.1431
27611W        W44458   1.647   2.429  14.447  0.1130  0.3230  0.0393
27612W        W44459  17.185   8.821   2.876 -0.1613 -0.0443  0.0570
27613W        W44460  12.552   5.173  13.477  0.1358  0.1056  0.3678
27614W        W44461  13.303   3.392   0.115 -0.0951  0.4846  0.3683
27615W        W44462   7.965  15.474   4.631  0.0776 -0.0324  0.1130
27616W        W44463   8.252  18.162   1.740  0.1935  0.1202  0.1072
27617W        W44464   3.276  16.664   0.924 -0.0661 -0.0258  0.3156
27618W        W44465   2.441  19.062   9.169  0.1693  0.1453 -0.1427
27619W        W44466  13.865  13.044  13.530 -0.0507  0.2882 -0.3807
27620W        W44467   4.276  12.855   0.103  0.1121 -0.0221 -0.1823
27621W        W44468  17.150   8.462   0.247 -0.3560 -0.0739  0.0378
27622W        W44469  13.948  12.779   1.864  0.1557 -0.0947  0.2143
27623W        W44470   9.593   8.299   3.112 -0.1409 -0.0180  0.4401
27624W        W44471  18.328   9.235  12.517  0.3468  0.1994  0.3905
27625W        W44472   3.554  16.336  10.991 -0.1587 -0.0058 -0.0793
27626W        W44473  10.531   4.124  10.839 -0.1930  0.1115  0.2245
27627W        W44474  17.858   3.639   0.660  0.0050 -0.0451  0.0108
27628W        W44475  10.607   2.279   1.390  0.0919  0.0797  0.2418
27629W        W44476   5.953  13.425   9.067 -0.0420 -0.0863 -0.0808
27630W        W44477  19.125  19.274  12.171  0.2692  0.1244 -0.1620
27631W        W44478   2.856  13.771   4.623  0.0473 -0.2601 -0.1656
27632W        W44479  16.862  15.399  14.299 -0.0157  0.1407  0.1221
27633W        W44480  15.421   5.429  13.361  0.0134 -0.3116  0.1705
27634W        W44481  18.223  12.462  11.700 -0.0526 -0.0073  0.1989
27635W        W44482   6.307   2.485  10.645  0.0363 -0.0785 -0.2869
27636W        W44483  11.262   6.494   4.306 -0.2500  0.1797  0.0638
27637W        W44484  14.027   4.651   0.462 -0.0425  0.1900 -0.1895
27638W        W44485   1.959  15.676   2.522  0.0655 -0.0747  0.1973
27639W        W44486   6.465  13.256   3.538  0.2589 -0.1329  0.0444
27640W        W44487  11.156   3.699  13.651  0.0241  0.0407 -0.0280
27641W        W44488   6.747   3.343   3.501  0.1097 -0.0886  0.0547
27642W        W44489   8.841   2.279  10.435  0.2913 -0.3525  0.2449
27643W        W44490   0.473  13.221   2.851 -0.3651  0.1344  0.1258
27644W        W44491  13.753  10.093   3.973 -0.0322 -0.3033  0.2115
27645W        W44492   4.585   3.603   2.598 -0.0111 -0.0461 -0.1281
27646W        W44493   4.833   2.105  13.938  0.3284  0.2390 -0.1040
27647W        W44494  10.350  17.555  12.065  0.1825  0.1226 -0.2412
27648W        W44495   0.426  17.670   1.341 -0.1302 -0.0753 -0.3369
27649W        W44496  12.633  10.880   0.354 -0.3728  0.0272  0.3511
27650W        W44497  13.891  18.018   2.107 -0.0248  0.2569  0.0876
27651W        W44498   1.022  16.405  14.353  0.0028  0.1946  0.0783
27652W        W44499   8.177  17.455  10.579 -0.0352 -0.0791  0.2443
27653W        W44500   0.173   3.378   1.478  0.2838 -0.0971 -0.1520
27654W        W44501   1.238  12.612  12.016 -0.0981 -0.0932  0.1037
27655W        W44502  15.804  11.954  14.223  0.6397 -0.1713  0.1457
27656W        W44503   9.641   3.428   3.791 -0.0337  0.2284 -0.0544
27657W        W44504   1.119  15.542   4.881 -0.0104  0.2379  0.1580
27658W        W44505  18.953   2.024   1.024 -0.0072 -0.0427  0.1484
27659W        W44506   0.349  10.257   2.376  0.2328 -0.0440 -0.2613
27660W        W44507  17.105  17.700  12.433  0.2543 -0.2485 -0.1341
27661W        W44508  12.975  16.647   4.293  0.0534 -0.1668  0.0906
27662W        W44509  17.316   7.452   1.371  0.2311 -0.0356 -0.0624
27663W        W44510  17.958  17.114   3.451 -0.0951  0.2645 -0.2495
27664W        W44511   7.761   4.007  11.194 -0.0408 -0.0479  0.0444
27665W        W44512  15.500   2.991   2.895 -0.1718  0.0555 -0.1261
27666W        W44513  12.928   9.990  10.512 -0.0132  0.0094 -0.0788
27667W        W44514   9.765   9.246  12.844  0.0288  0.0503  0.0607
27668W        W44515   1.757  11.635   1.610 -0.0444  0.0470  0.0295
27669W        W44516  13.958   7.206   2.347 -0.1430  0.1592  0.1042
27670W        W44517  17.705   6.980   0.900  0.1139  0.2684  0.3093
27671W        W44518   0.657  17.380  11.800 -0.3471  0.0092  0.1713
27672W        W44519  15.810   0.396  13.090  0.0282  0.2954 -0.1341
27673W        W44520  17.167  17.520   1.879  0.0425 -0.1846 -0.1033
27674W        W44521  11.204   4.173   1.065  0.3237 -0.2176 -0.0120
27675W        W44522   4.314  17.361   2.255 -0.4227 -0.3308 -0.0521
27676W        W44523  12.775  17.544  11.018 -0.2239 -0.0346 -0.0555
27677W        W44524  12.226  14.571   2.731  0.1985 -0.0783 -0.3137
27678W        W44525   9.554  17.624  10.777  0.1800  0.4748  0.0714
27679W        W44526  13.315  16.338   4.079  0.2321 -0.2095 -0.2572
27680W        W44527  10.392   5.899  13.811  0.3172  0.1825  0.0259
27681W        W44528   0.629   7.988  12.274 -0.0111  0.1827  0.2656
27682W        W44529  11.055   9.808   4.012  0.0373  0.1772 -0.0939
27683W        W44530  19.620   2.114   1.753  0.1526  0.1412 -0.1081
27684W        W44531   7.978   4.808  14.289 -0.0162  0.1930  0.1684
27685W        W44532  15.208  18.398  11.514  0.2182 -0.3115 -0.1751
27686W        W44533  18.749   1.080   4.487 -0.0110 -0.2373  0.0887
27687W        W44534  16.679   0.337  13.163 -0.0227 -0.3049  0.0898
27688W        W44535  13.259  10.599   4.888  0.1213 -0.1194  0.0941
27689W        W44536  14.962   9.232   4.369  0.0058 -0.3026  0.1978
27690W        W44537   8.346  15.582  11.236  0.1723 -0.1557  0.0488
27691W        W44538  10.975   4.144   1.779 -0.1462  0.0480 -0.1586
27692W        W44539  14.670  18.190   3.432 -0.0757 -0.0160 -0.0876
27693W        W44540  17.337   9.284   1.939 -0.0384 -0.0852 -0.0765
27694W        W44541  17.086   5.635  11.849  0.2430 -0.0785  0.2294
27695W        W44542  12.398   2.474   3.188  0.1655  0.1501  0.0163
27696W        W44543   1.377  14.610  12.547  0.0051 -0.0588  0.0726
27697W        W44544   1.864  17.730  12.390  0.2323  0.0299 -0.2605
27698W        W44545  16.049   7.381   1.587 -0.1511 -0.1394 -0.0115
27699W        W44546  17.361   8.817  11.284  0.1747 -0.0129 -0.2363
27700W        W44547   5.949  13.903   1.126 -0.4044 -0.0259 -0.1892
27701W        W44548  12.589   9.902  14.215  0.0669 -0.0921  0.1366
27702W        W44549   7.057  13.404   3.980 -0.3210 -0.0282  0.0612
27703W        W44550  14.044   4.439   0.008 -0.0246 -0.0834  0.1396
27704W        W44551   7.766   1.574   3.382  0.1363  0.0039  0.0175
27705W        W44552  14.280   3.016   3.909  0.2191 -0.3946  0.1119
27706W        W44553  19.047  13.781  10.929  0.1640 -0.0652  0.1463
27707W        W44554   2.758   3.316  11.920  0.4554  0.1427  0.1655
27708W        W44555  11.407   3.128  13.893  0.1074  0.2910  0.1462
27709W        W44556  17.405   2.615  14.399 -0.0426  0.0811  0.2395
27710W        W44557   6.490   2.929   3.427  0.0182 -0.2989  0.0843
27711W        W44558  11.173  15.735  14.600  0.0141  0.2210  0.0366
27712W        W44559  11.466   7.731   3.239  0.0080 -0.0252 -0.1662
27713W        W44560  18.948   4.522  10.282  0.0233 -0.2263  0.0797
27714W        W44561   5.098   6.267  10.739  0.0408  0.2460  0.1902
27715W        W44562   0.967   9.352   5.112  0.0507 -0.3921 -0.0213
27716W        W44563  10.277  17.271   9.386 -0.2896 -0.5041  0.2386
27717W        W44564   4.717   3.246  13.242 -0.0043 -0.1310 -0.0473
27718W        W44565  15.947  13.084  13.886 -0.1834 -0.0004  0.0773
27719W        W44566   6.151   2.066  14.298 -0.2497  0.2047 -0.2509
27720W        W44567   4.437  18.199  13.012 -0.2866 -0.0926 -0.0600
27721W        W44568   2.006   3.659   3.959 -0.1111 -0.4654 -0.1376
27722W        W44569  10.353   6.770  10.977 -0.2624  0.1410 -0.2881
27723W        W44570  11.744  10.630   1.520 -0.3890 -0.1000  0.0514
27724W        W44571   8.369   0.493   5.184  0.1383 -0.1159 -0.0909
27725W        W44572   3.002   6.838  12.363  0.0608 -0.0744  0.1351
27726W        W44573  18.321  16.852   3.799 -0.0495  0.1401  0.0781
27727W        W44574   4.947  16.000  11.721 -0.1364 -0.1855  0.0538
27728W        W44575  14.165  13.924  13.027  0.0155 -0.0638  0.4083
27729W        W44576   8.418   1.623  13.805  0.1138  0.1637 -0.2892
27730W        W44577  14.946  11.580   1.255 -0.1924 -0.1863 -0.2667
27731W        W44578   0.141   3.014  13.864 -0.0063 -0.1007  0.1052
27732W        W44579   5.904   0.578  12.360 -0.3061  0.0553 -0.2079
27733W        W44580  17.493   3.380   4.505  0.1550 -0.0667  0.0994
27734W        W44581  16.594   8.399  10.617  0.4068  0.1496  0.0738
27735W        W44582  12.362  16.928  13.179 -0.0028 -0.2232 -0.0351
27736W        W44583   0.255  13.334  12.613 -0.1301 -0.1845  0.1480
27737W        W44584   6.399  14.477   2.803 -0.1996  0.0912  0.1817
27738W        W44585   8.766  16.851  10.906  0.0418 -0.0603  0.2624
27739W        W44586   0.957  18.268   2.279  0.1497  0.2481  0.0474
27740W        W44587  10.278  13.729  12.712  0.1600 -0.0302  0.3807
27741W        W44588   9.999   3.434  10.598 -0.2312  0.1231 -0.1078
27742W        W44589   3.644   0.263   0.706 -0.2322 -0.1478  0.2955
27743W        W44590   3.521  17.041   1.837  0.0104 -0.1885 -0.2388
27744W        W44591  15.966  16.519  14.046  0.0078  0.3812  0.1233
27745W        W44592  13.850   0.046   1.607  0.0560 -0.1504 -0.0158
27746W        W44593   3.315  14.492   0.932 -0.1894  0.2276 -0.1165
27747W        W44594  11.981   4.724  11.241  0.1003 -0.1590  0.1488
27748W        W44595   9.666   2.147  11.419 -0.1669 -0.0344  0.3093
27749W        W44596   6.611   1.985   1.104  0.0882 -0.1700  0.1480
27750W        W44597   7.214   6.394  12.814  0.0017  0.0619  0.0612
27751W        W44598   9.285  14.679   3.243  0.0016  0.0941 -0.1878
27752W        W44599   9.436  15.614   1.074  0.0080 -0.0106 -0.0964
27753W        W44600  12.038   1.190   4.055  0.0369 -0.2179 -0.2147
27754W        W44601  17.916   6.158   0.627 -0.0268  0.0636 -0.1508
27755W        W44602   3.024  18.073  14.584  0.0543 -0.0899  0.1053
27756W        W44603  10.780  12.083  13.996  0.0021 -0.0893  0.2254
27757W        W44604  11.747  19.343  13.429  0.0457 -0.0663  0.1360
27758W        W44605  12.856  19.372   4.030 -0.0554  0.0797  0.0258
27759W        W44606  17.048  11.399  12.772 -0.1521  0.0245  0.0405
27760W        W44607  11.529  15.662   1.344 -0.1275  0.2067 -0.3566
27761W        W44608  18.617  14.913  13.944  0.1490 -0.1429  0.4512
27762W        W44609  14.689   2.132  12.641  0.0848 -0.0994 -0.3413
27763W        W44610  17.741  15.098   9.046  0.0532  0.1131 -0.1373
27764W        W44611  15.457  15.862  14.478  0.0037  0.1977 -0.1596
27765W        W44612  11.611   9.469  13.390  0.0445 -0.4413  0.0995
27766W        W44613   1.615  18.101   2.969  0.1289 -0.2062  0.0484
27767W        W44614  18.347  19.352  11.050 -0.2192 -0.0620 -0.0323
27768W        W44615  11.067  10.647   4.639 -0.4378  0.1747  0.2640
27769W        W44616   7.989   8.019  11.779 -0.1325  0.1541 -0.0123
27770W        W44617   0.198  11.124   0.824 -0.0046 -0.2830  0.1603
27771W        W44618   3.500   3.998  13.425  0.2458 -0.2825 -0.2278
27772W        W44619  12.861   4.099   3.147 -0.1605 -0.1843 -0.0595
27773W        W44620   1.848  16.800  11.372  0.0757 -0.0846  0.1473
27774W        W44621  19.138  15.655   5.081  0.1283  0.0668  0.0796
27775W        W44622   7.014   2.713   1.283  0.2498 -0.0908  0.1823
27776W        W44623   0.037  13.374   9.574  0.2200  0.1938 -0.0094
27777W        W44624   7.233  14.137   2.407 -0.0979  0.0396  0.4034
27778W        W44625   8.007  11.066   0.503 -0.2158  0.2055 -0.3283
27779W        W44626  15.570  12.861   2.093  0.0500 -0.0423  0.1779
27780W        W44627   8.498  11.456  13.427  0.0849  0.0490 -0.0838
27781W        W44628  18.181   6.077  13.000 -0.0244 -0.2539 -0.2643
27782W        W44629   8.872  10.437   1.639 -0.0798 -0.1632 -0.2464
27783W        W44630   2.922  17.602  14.252 -0.0296  0.2780 -0.0381
27784W        W44631   8.482   1.713  11.649  0.1919 -0.1131 -0.0343
27785W        W44632   4.287  18.242   3.101  0.3104 -0.0533  0.2019
27786W        W44633  14.168  15.602  12.032 -0.1683 -0.3908 -0.0903
27787W        W44634  16.884   1.513  11.623 -0.2043  0.0953  0.3626
27788W        W44635  15.648   4.420  10.792  0.3111  0.2667  0.0082
27789W        W44636  15.057   1.280   3.806 -0.0329 -0.0927 -0.0526
27790W        W44637  13.571  11.434   3.589 -0.0852 -0.0702  0.2281
27791W        W44638  10.336   6.906  13.936  0.2155 -0.2991 -0.1465
27792W        W44639   7.876  13.540  10.858  0.0340  0.0283  0.1827
27793W        W44640   5.734  17.808  13.961 -0.2837  0.1041  0.2275
27794W        W44641   0.259   9.848   3.620  0.1553  0.2959 -0.0281
27795W        W44642   5.127   6.327  12.575 -0.0976 -0.0508 -0.1362
27796W        W44643   2.640  15.530   3.273  0.0002 -0.3056  0.3504
27797W        W44644   3.646   8.637   0.637  0.0528  0.2557 -0.0853
27798W        W44645   4.872   5.205   1.041  0.1189  0.2452  0.0435
27799W        W44646   6.445  19.277   8.984 -0.1288 -0.0744  0.1786
27800W        W44647  13.191  11.866   3.639 -0.0844  0.1893 -0.0853
27801W        W44648  16.069  13.714   4.154  0.2816  0.0350  0.1192
27802W        W44649   7.721  14.992   1.408  0.0601 -0.2322 -0.1162
27803W        W44650  14.319  13.168  11.928  0.0053 -0.0405 -0.0908
27804W        W44651  14.315   9.492   0.506  0.1360  0.0968 -0.0331
27805W        W44652  17.385   1.330   0.217  0.1706 -0.2801  0.1371
27806W        W44653  15.881  10.679   3.723  0.1956  0.3498 -0.3183
27807W        W44654  19.571   8.112   4.851 -0.2844 -0.2084 -0.0209
27808W        W44655   0.462  13.597   1.335 -0.0577  0.1417 -0.2355
27809W        W44656   8.903   7.727  13.277  0.0253  0.1698 -0.2893
27810W        W44657   8.146   1.304  11.672 -0.2115 -0.3010  0.1590
27811W        W44658   3.977  17.779   1.062 -0.0704 -0.0254  0.1129
27812W        W44659  10.137   7.814   4.109  0.2531 -0.1084  0.0479
27813W        W44660   4.793   4.483   4.992 -0.0206  0.1567 -0.2174
27814W        W44661   1.732  14.905   0.231  0.1266  0.1009 -0.0827
27815W        W44662  16.054  12.693  11.032  0.0767 -0.1340 -0.0988
27816W        W44663   1.815  14.321   1.920  0.3096  0.4935  0.2006
27817W        W44664  18.986   1.756   2.516 -0.4937  0.0991 -0.1352
27818W        W44665   3.747   7.306  11.302 -0.0971 -0.0139 -0.1802
27819W        W44666   2.036  11.462   0.993 -0.3732 -0.1236  0.2919
27820W        W44667  17.550  15.554   0.294 -0.1731 -0.1528  0.0652
27821W        W44668   7.813   9.509   2.465  0.0443 -0.0173 -0.1755
27822W        W44669  17.959   4.690   2.113  0.1445  0.1579 -0.2400
27823W        W44670  15.781   4.133  14.235  0.3532 -0.2222 -0.2225
27824W        W44671   7.298  17.981   1.638  0.1000  0.0162 -0.1041
27825W        W44672   0.355  13.589  14.399  0.2997  0.2644 -0.0496
27826W        W44673  14.787   9.997   3.977  0.2107  0.0878 -0.0655
27827W        W44674   1.636   0.520  11.730  0.0626 -0.1226 -0.2678
27828W        W44675  18.716  10.556   2.797  0.0140 -0.4782 -0.1654
27829W        W44676  18.382   7.088  12.096  0.1614  0.2538  0.1666
27830W        W44677   6.460   6.830  11.586 -0.0560 -0.3884 -0.1116
27831W        W44678  14.766   5.354   3.764 -0.1548  0.1154  0.1296
27832W        W44679   9.823  19.361   2.466 -0.0208  0.1484 -0.1099
27833W        W44680  11.799   8.878   5.070  0.0692  0.1547  0.1627
27834W        W44681  15.795   9.685  13.284 -0.3807 -0.2072  0.2241
27835W        W44682   4.642   4.331   0.383 -0.1368 -0.0423 -0.1366
27836W        W44683   7.620  19.151  11.311 -0.2811  0.2277  0.2379
27837W        W44684   3.908  15.498   1.525 -0.2920  0.0285 -0.0159
27838W        W44685   5.316   5.005  11.002  0.2759  0.0956 -0.3047
27839W        W44686   9.271   1.547   1.965 -0.0567 -0.1485  0.1725
27840W        W44687  15.289   6.947  11.740 -0.1481 -0.1259 -0.0138
27841W        W44688   1.177  11.726   4.008  0.1188  0.3889 -0.0486
27842W        W44689  13.380  19.524  11.763  0.2017  0.0876  0.1187
27843W        W44690  17.135  19.091  13.725  0.1783  0.4121 -0.1650
27844W        W44691  12.151   3.638  11.872  0.0098 -0.1148 -0.1091
27845W        W44692  11.977   3.066   4.008 -0.0976 -0.2207 -0.1570
27846W        W44693   9.158  13.176   1.841 -0.1003  0.1142 -0.1330
27847W        W44694  16.657   3.278  10.748 -0.0523  0.2010  0.0729
27848W        W44695   7.285  18.433   3.587  0.0138  0.1975  0.1738
27849W        W44696  13.977   9.488   4.137  0.2588 -0.2053  0.1475
27850W        W44697  17.414  10.197  14.017  0.2353 -0.4809 -0.2000
27851W        W44698  18.720   3.216  12.249 -0.1107  0.4484  0.0611
27852W        W44699   4.040   0.537   1.826 -0.2965 -0.0927  0.3219
27853W        W44700  11.117   2.517   4.628 -0.2465 -0.1749  0.1372
27854W        W44701   8.714   9.874   4.504 -0.1227  0.4009 -0.1025
27855W        W44702   5.761   6.369  13.228 -0.2716  0.2786  0.2328
27856W        W44703   8.461  11.616  13.892  0.0922 -0.2925  0.1931
27857W        W44704   6.500   2.953   1.314  0.1443 -0.3136 -0.1182
27858W        W44705  15.030   8.907  14.100 -0.0859 -0.2614 -0.1058
27859W        W44706   0.814   3.600   4.729 -0.1028  0.0293 -0.1840
27860W        W44707   6.096   7.119  11.125  0.4266  0.0981 -0.0186
27861W        W44708   9.960  15.694   3.461  0.2688  0.0957 -0.0042
27862W        W44709  18.796  11.806   5.057 -0.0726 -0.0327  0.0371
27863W        W44710  11.710   9.719   1.283  0.2095  0.3988  0.1849
27864W        W44711  11.678   2.269  14.095 -0.1817  0.6907  0.2123
27865W        W44712  13.985   5.772   2.067 -0.2198  0.1591  0.2098
27866W        W44713   6.180  11.082   0.593  0.2598  0.1092 -0.3440
27867W        W44714   5.176  13.572   3.836 -0.3302 -0.1490 -0.2105
27868W        W44715  15.749  12.258   4.982  0.2038 -0.1079 -0.0679
27869W        W44716  13.388  16.723  13.384  0.2185 -0.2329  0.1704
27870W        W44717  15.956  14.769   2.354  0.0889  0.3277 -0.2771
27871W        W44718   6.947   8.131   3.263  0.0069  0.1637  0.1934
27872W        W44719   7.718  15.405   5.184  0.1331 -0.1227  0.1407
27873W        W44720  10.516  10.346   3.548 -0.2028 -0.3272  0.0460
27874W        W44721  19.349   7.982   5.357  0.6638 -0.1864 -0.0648
27875W        W44722   4.411   0.023  10.689  0.5937  0.0810  0.1308
27876W        W44723  10.235   8.937  12.798  0.1058  0.2281  0.2112
27877W        W44724   3.487   4.819   0.629 -0.4512 -0.1003  0.2773
27878W        W44725   0.123  11.827   0.161 -0.1459 -0.3752 -0.2206
27879W        W44726   5.332  16.550   2.220 -0.2310  0.0335  0.1494
27880W        W44727  19.054   8.214  11.041 -0.1202  0.1808 -0.0729
27881W        W44728  10.689   4.931  10.737  0.2745 -0.1136  0.2205
27882W        W44729   3.281   1.957  14.394 -0.2893 -0.0621 -0.1145
27883W        W44730   0.323   3.738   2.473  0.3225  0.2519 -0.0484
27884W        W44731   9.687  18.776  12.574  0.1594 -0.0880  0.2798
27885W        W44732  19.494   9.012  11.056 -0.1687 -0.3783  0.0284
27886W        W44733   7.811   6.405  13.887  0.0837  0.0066 -0.3534
27887W        W44734  10.413   3.946  14.401 -0.0092  0.2116  0.0779
27888W        W44735  13.320   9.582   3.325 -0.4157  0.0922  0.1028
27889W        W44736  18.608   1.803   1.348  0.1588  0.0766 -0.0698
27890W        W44737   4.252   8.647  11.624  0.3813 -0.1330 -0.3108
27891W        W44738  11.768  14.389   1.980  0.4339 -0.1394  0.2303
27892W        W44739   7.194   0.184  13.711  0.1446 -0.1353 -0.0991
27893W        W44740   1.523   5.950   1.981  0.0413  0.4820 -0.0695
27894W        W44741  18.244  17.459   5.250  0.1320  0.0654 -0.0093
27895W        W44742  18.442  11.447  11.496 -0.2279 -0.0383  0.4653
27896W        W44743   2.214   7.294   0.615 -0.3471  0.2177  0.3538
27897W        W44744  15.526   8.593   1.348 -0.0449 -0.0492  0.0955
27898W        W44745  13.628  13.363  14.176  0.0359  0.0604  0.0020
27899W        W44746   7.114  10.164   2.343 -0.1068 -0.0131  0.2139
27900W        W44747   6.415   0.916  10.800 -0.1820 -0.1861  0.3268
27901W        W44748   2.980   6.193   0.490 -0.1050  0.0116 -0.2314
27902W        W44749  10.838   1.537  13.382  0.0932  0.0467 -0.0436
27903W        W44750   5.656   9.646  13.071  0.2611  0.0253  0.1441
27904W        W44751  11.855   5.763   0.477 -0.1111 -0.0204 -0.0292
27905W        W44752   1.565  18.187  10.341  0.0914 -0.0378 -0.2455
27906W        W44753   2.572   7.291   1.592 -0.0516  0.0335 -0.1592
27907W        W44754   8.753  13.845   2.489 -0.1236  0.0204 -0.3241
27908W        W44755  11.719  14.009  12.038 -0.0327 -0.2673 -0.0354
27909W        W44756   8.041  14.176   4.548 -0.3933  0.2426  0.0535
27910W        W44757   5.300   3.461   0.432 -0.0717 -0.0706  0.0608
27911W        W44758   0.231  16.290   0.090 -0.5080  0.2744 -0.2035
27912W        W44759   6.627   6.940   4.098  0.1188 -0.0113  0.2513
27913W        W44760  13.237  17.703  13.654 -0.0105 -0.1879  0.2178
27914W        W44761   5.440   9.275  10.415  0.0712 -0.1827 -0.0007
27915W        W44762  17.907   5.369   4.229  0.0304  0.1116 -0.1364
27916W        W44763  13.859  14.244   4.121  0.3970 -0.0547 -0.2098
27917W        W44764  19.037  13.704  12.502  0.1109 -0.1015  0.3960
27918W        W44765  13.819  16.953   3.212  0.2714  0.0004  0.6316
27919W        W44766  14.634   2.498  12.992 -0.0826 -0.1209  0.0903
27920W        W44767  12.186   0.172   2.500 -0.0138 -0.1194 -0.1411
27921W        W44768   9.956  10.321   3.816 -0.2428  0.0770 -0.2152
27922W        W44769  10.816   2.255   2.818 -0.4111 -0.4056  0.0338
27923W        W44770  10.310   3.600   2.947  0.1610 -0.0890 -0.0692
27924W        W44771   1.191  19.200  11.960 -0.2008 -0.2286 -0.0171
27925W        W44772  16.399  14.992   4.397  0.1622 -0.2031  0.0096
27926W        W44773   3.692   5.210  12.801 -0.0481  0.1205 -0.3049
27927W        W44774   2.611  14.142   3.349  0.4223 -0.3174  0.0116
27928W        W44775  18.884   1.905  10.977 -0.5564  0.2493  0.0386
27929W        W44776   9.949  14.815  14.099  0.4039  0.1644 -0.2220
27930W        W44777   1.642   1.347  10.416  0.0078  0.2619 -0.4015
27931W        W44778   2.044   9.922   4.518 -0.1561  0.0532  0.2597
27932W        W44779  13.948   8.479  10.959 -0.1576  0.1248 -0.0002
27933W        W44780   3.612  14.475  14.322 -0.2528  0.1270  0.0386
27934W        W44781   1.267   2.529   3.404 -0.1912 -0.0465  0.0287
27935W        W44782  19.498  16.415   1.679  0.1554  0.0391  0.1202
27936W        W44783   0.064  12.991  10.534 -0.0301  0.1012  0.2805
27937W        W44784  17.569   8.598   4.243  0.3127 -0.3626 -0.0569
27938W        W44785  14.606   0.147  11.562 -0.1465 -0.1776 -0.2493
27939W        W44786   4.215   1.900   3.865  0.2457 -0.0136  0.4646
27940W        W44787   0.241   1.739   0.975 -0.1121  0.1291  0.0983
27941W        W44788  13.885  12.033   4.784  0.0104 -0.2259  0.2024
27942W        W44789   7.736  14.776   2.444  0.1353  0.0157 -0.2870
27943W        W44790  13.060  12.252   3.911 -0.1586 -0.2269 -0.0127
27944W        W44791  13.152  13.142  13.724 -0.1441 -0.1828  0.0046
27945W        W44792  17.544   6.599   4.767 -0.0492 -0.2055 -0.1687
27946W        W44793  14.141   2.129  12.378 -0.1022 -0.2787  0.0428
27947W        W44794  11.190  17.499  12.390 -0.0523  0.2188  0.0734
27948W        W44795   9.520   3.152  12.231  0.0221  0.0011  0.0738
27949W        W44796   5.386  17.982   3.895 -0.0636 -0.2501  0.2423
27950W        W44797   7.508  18.619   4.341 -0.2695 -0.1776  0.2826
27951W        W44798   7.917  13.798   4.258  0.0226  0.0875  0.1264
27952W        W44799   9.625  13.558  12.033 -0.2406  0.1627  0.3005
27953W        W44800  18.189  10.166  12.852  0.3760 -0.1526  0.0327
27954W        W44801  14.520   8.732   4.775 -0.1434  0.1491 -0.0341
27955W        W44802  19.395  12.763  14.290 -0.0742  0.2065  0.1397
27956W        W44803   4.090  15.640   0.984  0.2055 -0.1184  0.0054
27957W        W44804   7.148   6.124  10.423 -0.3317 -0.0780  0.0426
27958W        W44805   8.604  17.245   2.644 -0.1858 -0.0320  0.1922
27959W        W44806   0.537   7.340  11.411 -0.3215 -0.2773 -0.0478
27960W        W44807  14.099  10.416   4.164 -0.0387 -0.2174 -0.1450
27961W        W44808   0.030  19.211   3.342  0.0023  0.3474  0.0758
27962W        W44809  19.383  13.598   4.638  0.2124 -0.1882  0.2468
27963W        W44810  18.238   8.243   2.141 -0.1499 -0.1876  0.2718
27964W        W44811  11.412  11.314   0.148  0.0664  0.0783 -0.1273
27965W        W44812   6.623   6.556   3.694  0.1240  0.2390 -0.1515
27966W        W44813  15.975  12.610  12.943  0.1860 -0.3158  0.1336
27967W        W44814   4.477   8.490   1.456  0.0198 -0.0224  0.3464
27968W        W44815  16.633   2.606  12.769  0.0410 -0.1877  0.0366
27969W        W44816   8.640  12.986  10.870  0.0416 -0.1459  0.0066
27970W        W44817  16.291   3.871  10.215  0.1116  0.2731 -0.1735
27971W        W44818   5.649   2.539  10.059  0.0705 -0.0161  0.2375
27972W        W44819   0.039   0.542  10.218  0.2897 -0.2497  0.0531
27973W        W44820  10.510   9.875  12.912 -0.2058 -0.1669  0.4492
27974W        W44821   9.091   6.309   5.229  0.1952 -0.0796 -0.1632
27975W        W44822  12.050   3.057   0.826  0.1794  0.1504  0.2828
27976W        W44823   1.593  13.707   0.986 -0.0060  0.1430 -0.2738
27977W        W44824   7.476   1.690  12.824  0.1594 -0.1136  0.2064
27978W        W44825   2.226   3.808   4.694  0.1062  0.2890  0.2328
27979W        W44826   5.875  10.969   2.929  0.1203 -0.1719 -0.0314
27980W        W44827  11.903   8.882   3.086 -0.3028  0.2484  0.0160
27981W        W44828   8.564   6.074   4.594  0.0684 -0.1051  0.3416
27982W        W44829  10.847  17.424   1.154  0.2559  0.0140  0.1503
27983W        W44830   9.238  19.088  13.446 -0.0272  0.0872 -0.2461
27984W        W44831  14.140   4.037   0.958 -0.3131  0.2264 -0.1577
27985W        W44832  10.229   1.616   3.617 -0.2743  0.0408  0.2418
27986W        W44833  11.304  10.248   4.167  0.2122 -0.3041 -0.1552
27987W        W44834   5.565   5.366   2.562 -0.2147  0.2460  0.1100
27988W        W44835  16.424  18.146   2.170 -0.0629  0.3095  0.0133
27989W        W44836   4.911   0.092   3.572  0.0517  0.2572 -0.1209
27990W        W44837  17.243  16.602  10.761 -0.2393  0.2253 -0.0217
27991W        W44838  13.475   8.249  11.248  0.0203  0.1058 -0.0218
27992W        W44839  17.047  12.294   2.579 -0.2557  0.0347  0.1566
27993W        W44840   3.063   1.179   1.428 -0.2871 -0.0083  0.0011
27994W        W44841  12.435   1.279   4.838 -0.5280 -0.1084  0.1302
27995W        W44842   6.413  10.709   4.080  0.0710 -0.2225 -0.0811
27996W        W44843  18.428   4.098  12.022  0.1292  0.2191 -0.2116
27997W        W44844  17.331  10.866   5.132  0.1555  0.4034  0.0796
27998W        W44845  17.412  14.764  13.928  0.2710 -0.0249  0.0849
27999W        W44846  17.802  10.251   0.018 -0.0090  0.1765 -0.1090
28000W        W44847   4.690  14.396  11.317  0.0945  0.3662 -0.0465
28001W        W44848   7.944   6.960   4.627 -0.4609  0.1084  0.3130
28002W        W44849  14.057  11.239   2.186 -0.1563  0.2590 -0.2814
28003W        W44850  18.320   0.198  11.956  0.4728 -0.0150  0.0970
28004W        W44851   0.530  16.616  12.808 -0.1518  0.2059  0.3405
28005W        W44852   8.756  16.502   0.933 -0.0804  0.2120  0.2338
28006W        W44853  14.501   3.825   0.506 -0.0004 -0.2025 -0.4060
28007W        W44854  12.344  16.304   1.610  0.1615  0.2431  0.0522
28008W        W44855   0.420   0.563   4.453  0.0488 -0.2024 -0.1762
28009W        W44856   2.240   1.861   4.798  0.2233 -0.2928  0.2098
28010W        W44857  19.035   3.411   1.969  0.1509 -0.1604  0.0500
28011W        W44858  12.514   5.367   3.363 -0.0007 -0.2400  0.0547
28012W        W44859  14.982   2.408   0.535 -0.2218 -0.2576  0.1220
28013W        W44860   9.475   4.615  14.414 -0.1297  0.2527 -0.2261
28014W        W44861  17.453   1.908   1.651 -0.3080 -0.4703 -0.3791
28015W        W44862   1.241   9.335   0.477 -0.0810 -0.4535 -0.5332
28016W        W44863  15.829   9.006   4.448 -0.1211  0.1516 -0.2817
28017W        W44864   3.780   5.704  11.065 -0.4669  0.0434 -0.0106
28018W        W44865   9.814   1.536   1.968 -0.1218 -0.0475 -0.2121
28019W        W44866  18.417   7.720  10.172 -0.3247 -0.0833 -0.0337
28020W        W44867  16.418   0.877  12.574  0.0835  0.3292 -0.2838
28021W        W44868   3.205  10.838  13.635 -0.5209 -0.2909  0.1204
28022W        W44869  12.800   3.024  10.300 -0.0727 -0.1753 -0.0926
28023W        W44870  14.602   7.413  14.357 -0.0902  0.2016 -0.0167
28024W        W44871   3.613   8.083   3.520  0.1202  0.0822  0.0083
28025W        W44872  16.057  11.505   3.236 -0.0580 -0.0453 -0.3702
28026W        W44873   3.823  11.133  10.623  0.2837  0.0587 -0.0257
28027W        W44874   9.904   2.682   4.079 -0.3638  0.0943  0.0414
28028W        W44875  13.349  18.546   0.536 -0.1015  0.0407  0.2581
28029W        W44876  13.979   7.109  11.458 -0.0995 -0.1488  0.2372
28030W        W44877  11.472   4.111  10.944 -0.0326  0.2791 -0.2997
28031W        W44878  19.544  16.972  14.398 -0.0099  0.0544 -0.1189
28032W        W44879  17.569  17.430   2.821  0.3683 -0.0058  0.2615
28033W        W44880  19.269   0.134  10.451 -0.2764 -0.2277  0.0137
28034W        W44881   3.367   8.141   0.208 -0.2645 -0.2788 -0.2084
28035W        W44882  10.155   4.083  13.080  0.0820  0.0510  0.0481
28036W        W44883   5.618  11.125   2.320  0.2317  0.0953 -0.1392
28037W        W44884   7.131  16.503   3.950  0.0793 -0.1645 -0.0382
28038W        W44885   2.386  15.687  10.631  0.2364  0.1959  0.0966
28039W        W44886   3.737   2.190   3.182 -0.2754 -0.0201  0.0134
28040W        W44887  18.216   7.488  11.133  0.0047  0.0446  0.0353
28041W        W44888   2.621   0.687  11.559  0.2170 -0.1062  0.0214
28042W        W44889   3.794  11.175   5.194  0.0618 -0.1749 -0.1249
28043W        W44890  10.481  17.842   4.165  0.1947  0.0333  0.0375
28044W        W44891  17.272  19.115   5.199  0.0699 -0.1392 -0.0363
28045W        W44892  14.374   1.602   4.124 -0.0699 -0.0498  0.1193
28046W        W44893   6.800   2.486  12.162 -0.1050 -0.2321 -0.2059
28047W        W44894   1.067   1.200   5.052 -0.0374  0.0458  0.0802
28048W        W44895  11.551   9.051   2.645 -0.2721  0.4619 -0.2357
28049W        W44896   6.195  14.545  12.856  0.0477 -0.1247  0.0054
28050W        W44897  16.199  14.373   0.485  0.0887  0.2967 -0.1056
28051W        W44898   8.864  14.396   3.162 -0.4218  0.1593  0.2517
28052W        W44899  11.928   9.370  11.875 -0.1286  0.2479  0.3345
28053W        W44900   7.151   5.482   1.610  0.0624  0.0203 -0.0107
28054W        W44901   3.712   9.521   1.796  0.1927  0.1569 -0.2642
28055W        W44902   4.808   3.151   5.027 -0.3815 -0.1869 -0.1107
28056W        W44903   8.856  18.755   2.190 -0.1849 -0.0135  0.2860
28057W        W44904   2.415  15.251  11.087  0.0962 -0.0930  0.0848
28058W        W44905   9.385  17.682  14.247 -0.2877  0.0376  0.3155
28059W        W44906  12.945  11.367  13.403  0.1269 -0.0540 -0.3220
28060W        W44907   4.749  11.793  11.801  0.0870 -0.0441 -0.0828
28061W        W44908   5.878  10.820  12.354  0.0629 -0.0755  0.0049
28062W        W44909  16.109   7.223   0.062 -0.0347 -0.0696 -0.0412
28063W        W44910   2.644  18.845  10.146 -0.4265 -0.1760 -0.5145
28064W        W44911   6.120   0.538  12.862  0.2771 -0.3357  0.0161
28065W        W44912  19.633   1.512  13.240  0.1212 -0.0597  0.2170
28066W        W44913   0.999   1.552   1.702  0.2235  0.0222  0.1037
28067W        W44914   6.948  10.566   0.378  0.1138  0.0509 -0.0215
28068W        W44915   3.861   7.289   1.269  0.0536 -0.0859 -0.1465
28069W        W44916  13.610  16.964  13.762  0.0620  0.2842 -0.2106
28070W        W44917  17.460   5.579  11.256 -0.2175  0.0938 -0.1794
28071W        W44918  18.672   3.249  10.813  0.0627  0.0477  0.1683
28072W        W44919   4.192  13.197   5.084  0.3271  0.0858 -0.1260
28073W        W44920   4.942  17.248  10.176 -0.1636  0.0588 -0.2030
28074W        W44921   1.530   5.280   1.176 -0.2607 -0.0469 -0.1247
28075W        W44922   9.968  17.647  14.268  0.1462  0.0885  0.1465
28076W        W44923   1.662  17.694  10.386  0.3130 -0.2190  0.0816
28077W        W44924   7.286   5.718   2.826  0.1695 -0.1306  0.4084
28078W        W44925  12.526  19.236  10.304  0.1260  0.1569  0.2553
28079W        W44926   0.689  14.902   5.176 -0.0218 -0.1346 -0.1503
28080W        W44927   8.084   3.891  12.407 -0.1899 -0.1025  0.0719
28081W        W44928  15.878  18.826   0.104 -0.0491 -0.0527  0.0528
28082W        W44929   1.142  12.752   9.777  0.0933  0.0061 -0.3406
28083W        W44930   7.700   4.181   4.167 -0.0203 -0.0053  0.2505
28084W        W44931   8.472  11.598  12.056  0.1488 -0.0685  0.0475
28085W        W44932  11.583   4.334   2.792  0.1755  0.0446  0.0161
28086W        W44933   3.523  16.125  13.672 -0.2844  0.1590  0.0149
28087W        W44934   8.266   1.250  13.412 -0.0595 -0.0693 -0.2676
28088W        W44935   9.702   7.239   3.419 -0.1705 -0.0257 -0.2130
28089W        W44936   5.936  18.081  12.555  0.0473  0.0923  0.0660
28090W        W44937   2.646  15.152  13.418 -0.3760 -0.1190  0.0611
28091W        W44938   6.168  12.246   4.300 -0.0001  0.0244 -0.0437
28092W        W44939   1.839  10.997   2.853  0.2873 -0.3147  0.2312
28093W        W44940   3.306  13.676  14.132 -0.0700 -0.1861 -0.1917
28094W        W44941   8.224   1.259   3.469  0.0313 -0.0785  0.0397
28095W        W44942  17.615   5.271   2.017 -0.0894 -0.0257  0.2385
28096W        W44943  15.237   7.282   2.486  0.0400 -0.1774  0.1355
28097W        W44944   8.404  12.738   4.371  0.2220 -0.3214 -0.0508
28098W        W44945  19.402   6.444   1.050  0.1661 -0.2197 -0.1971
28099W        W44946   0.596  14.470   1.932 -0.3432 -0.1950  0.0882
28100W        W44947   7.166   0.816   2.198 -0.3127 -0.2709  0.0987
28101W        W44948   9.970  11.738   2.724 -0.0889  0.1071  0.1751
28102W        W44949  12.549   2.859   0.846 -0.2262  0.1701  0.2430
28103W        W44950  18.975   1.415   0.162  0.3326 -0.0202 -0.0199
28104W        W44951   2.078   8.888  11.814  0.1669  0.0427 -0.1248
28105W        W44952  11.014  13.138  12.600 -0.0029  0.0599 -0.0025
28106W        W44953  10.429  10.496   4.568  0.1630  0.0145  0.3889
28107W        W44954   1.915   1.705   2.385  0.0716  0.1846 -0.1322
28108W        W44955  12.437  12.305  11.774 -0.4127 -0.1795 -0.0186
28109W        W44956  18.075  17.499  10.964  0.2034 -0.0557 -0.1591
28110W        W44957   1.082   6.595   0.749  0.0782  0.3223 -0.3701
28111W        W44958   7.083   9.630   0.650 -0.2603  0.1040  0.2217
28112W        W44959   0.692  16.457   3.313  0.1598  0.0962 -0.1947
28113W        W44960   8.974   7.113  13.463  0.0448 -0.1744  0.1995
28114W        W44961  11.216  17.480   3.856 -0.1200 -0.0850  0.0015
28115W        W44962   8.837  17.203  14.044 -0.1824  0.1914  0.1183
28116W        W44963   9.820   1.206   9.935 -0.1911 -0.1374  0.0257
28117W        W44964  18.495  14.567   0.547 -0.1292 -0.0695 -0.1022
28118W        W44965   6.577  19.230  13.529 -0.0172 -0.2558  0.2639
28119W        W44966  16.928   6.074  14.558 -0.0696 -0.1567 -0.0951
28120W        W44967   2.296   6.251  11.378 -0.1371 -0.1713  0.0513
28121W        W44968   0.606  11.494  10.340  0.0487 -0.3719 -0.1649
28122W        W44969  13.884  10.086   1.667 -0.1016  0.0660 -0.1228
28123W        W44970   1.255  18.872   3.016 -0.2392 -0.0045  0.1622
28124W        W44971   6.887  14.517   2.316  0.1545 -0.2686  0.2065
28125W        W44972  15.749  19.124   3.509 -0.0323  0.3069  0.2281
28126W        W44973  17.032   5.370   2.948 -0.1025 -0.2991  0.0233
28127W        W44974  12.247  19.496   1.966 -0.0652  0.0652  0.1183
28128W        W44975   7.269  14.793   3.650  0.1178  0.0561  0.1658
28129W        W44976  16.970   3.818  14.327 -0.2607  0.0422  0.3791
28130W        W44977  18.973  14.262   1.781 -0.0870 -0.1430  0.2051
28131W        W44978  12.897   1.899  11.520 -0.0575 -0.2315 -0.2428
28132W        W44979   1.915   3.112   2.499 -0.1065 -0.0783 -0.1670
28133W        W44980   0.112  15.764   3.261  0.1899 -0.0141 -0.0614
28134W        W44981  15.557   6.393  13.385  0.1474 -0.0310  0.0389
28135W        W44982  15.773   5.415   5.679  0.0997 -0.4119  0.3078
28136W        W44983   9.143  11.639   0.610  0.2563 -0.1142  0.1398
28137W        W44984  10.649  15.501  10.702  0.0107  0.0979 -0.1750
28138W        W44985   4.703  19.001   1.023 -0.1319 -0.0287 -0.0108
28139W        W44986  10.269   8.988  11.978  0.0813  0.0032  0.0409
28140W        W44987  18.218   6.202   2.014 -0.5060 -0.4047  0.2436
28141W        W44988   1.330   0.642  13.394 -0.3094 -0.0415 -0.0741
28142W        W44989  12.471  17.356   2.286  0.0694  0.0504 -0.4082
28143W        W44990  18.624   5.378  11.396  0.1163  0.0337  0.2085
28144W        W44991   2.291  14.790   3.051  0.1231 -0.3319 -0.0506
28145W        W44992   6.899   9.686  12.632  0.1681 -0.3309  0.0134
28146W        W44993   8.415  17.531  12.056  0.2830  0.2036 -0.0284
28147W        W44994   3.895   5.312   2.983  0.3683 -0.2558 -0.0020
28148W        W44995   6.613   3.227  13.704  0.2174 -0.1913  0.0974
28149W        W44996  17.241   6.104   4.044  0.1086 -0.3169  0.0231
28150W        W44997  16.453   4.502  13.653 -0.0559 -0.0843  0.1658
28151W        W44998   8.845   6.942   1.286 -0.2325 -0.0478  0.3057
28152W        W44999  17.837   8.015  13.521 -0.2272 -0.0655 -0.0526
28153W        W45000  16.900   6.349  11.571 -0.2859 -0.2820  0.1610
28154W        W45001   4.709  17.699   3.485 -0.2521  0.2646 -0.0075
28155W        W45002  14.546  18.451   1.718  0.0843 -0.1282  0.2213
28156W        W45003   3.461   3.951  10.054 -0.4340 -0.3051  0.3091
28157W        W45004  17.766   9.127   4.282 -0.0144  0.0004 -0.1537
28158W        W45005  16.054   1.237  11.687 -0.0707 -0.5735  0.1236
28159W        W45006  18.975   5.197  12.918 -0.0020  0.2087 -0.0600
28160W        W45007   6.404   5.517   3.091 -0.2854  0.1073  0.3153
28161W        W45008   4.460   6.846  12.004 -0.2277  0.1211  0.0910
28162W        W45009   1.600   7.136  11.082 -0.0606  0.1586 -0.1728
28163W        W45010   1.398   0.435   4.517  0.2606 -0.1603 -0.0624
28164W        W45011  12.214   0.973   3.654  0.1093  0.0788 -0.1698
28165W        W45012   4.314   5.263  14.065 -0.2507  0.0889  0.2414
28166W        W45013   0.514  10.775  13.437 -0.1206 -0.0810 -0.2384
28167W        W45014  10.338  15.392   0.807 -0.0393  0.3875 -0.1727
28168W        W45015  10.862   8.527  10.530 -0.1566 -0.0987 -0.3478
28169W        W45016   6.511   9.209   3.380  0.1739  0.1643 -0.0176
28170W        W45017  14.965  19.354   2.048 -0.0174 -0.1460 -0.2725
28171W        W45018  17.498  17.977   3.621 -0.1274  0.0967 -0.1993
28172W        W45019  17.723  11.748   3.174  0.2649 -0.0472 -0.2618
28173W        W45020  13.377   9.703   2.856 -0.1133 -0.0611  0.0847
28174W        W45021   3.942  14.167   3.512  0.0332 -0.1303 -0.3402
28175W        W45022   7.119   8.580   1.249  0.2215 -0.1771  0.0289
28176W        W45023  13.484   9.975   2.069 -0.2189 -0.0127 -0.1411
28177W        W45024  16.112   5.044   0.201  0.0895  0.2193  0.1001
28178W        W45025  19.014   1.119   2.543 -0.1664 -0.1309 -0.3777
28179W        W45026  15.901  10.731  10.471 -0.0152  0.3700  0.1811
28180W        W45027   6.584   7.723  12.538  0.0212 -0.1527  0.0201
28181W        W45028  15.872   0.857   2.966 -0.0176  0.1619  0.3501
28182W        W45029  14.884   6.356   3.173  0.2025  0.2002 -0.1441
28183W        W45030   6.702  12.894   5.005 -0.1007 -0.1583 -0.2459
28184W        W45031  17.331   9.872   4.760  0.2657  0.1240 -0.1590
28185W        W45032   5.964  14.137  13.580 -0.1244  0.4058 -0.3911
28186W        W45033   3.388   2.846   4.795 -0.1219  0.2091 -0.1301
28187W        W45034  12.972  15.566  10.453  0.1492 -0.1630  0.0858
28188W        W45035   5.516   1.628  14.130  0.1896 -0.1400 -0.1673
28189W        W45036   7.598   6.711  11.463  0.2356  0.1841 -0.2058
28190W        W45037  13.953  10.315   5.724  0.1622 -0.1996  0.2054
28191W        W45038   1.548  17.552  11.488 -0.0277 -0.1008  0.0082
28192W        W45039   1.790  16.118   0.863 -0.1477 -0.2391 -0.0716
28193W        W45040  18.706  18.885   0.964  0.0431  0.1851 -0.1259
28194W        W45041   0.006  15.193   3.418  0.0529  0.5195  0.0095
28195W        W45042   2.625  19.203   2.529  0.0170 -0.0117  0.1680
28196W        W45043  12.262  12.206   4.502 -0.1500  0.0957 -0.2053
28197W        W45044  11.733  18.534   2.650  0.0755 -0.3687  0.1191
28198W        W45045   6.829  19.209   0.631  0.0446 -0.3722  0.0634
28199W        W45046   9.528   6.696   0.065  0.1808 -0.1296  0.2330
28200W        W45047   1.284  13.632  13.214 -0.3197  0.0842  0.0206
28201W        W45048   9.315   2.138   0.274 -0.3150  0.1786 -0.2217
28202W        W45049   8.120  17.844   3.357 -0.1757  0.0661  0.0603
28203W        W45050  17.640  14.702   3.510 -0.2898 -0.1309  0.0440
28204W        W45051  11.328  12.453   4.698 -0.0123  0.0644  0.1768
28205W        W45052   8.324   8.859   2.424  0.1773 -0.0830 -0.0458
28206W        W45053   3.118  10.139  12.998 -0.0382 -0.1037  0.0614
28207W        W45054  15.813  17.351  14.354 -0.1270  0.1682  0.0595
28208W        W45055  13.632  12.561   4.661  0.2561 -0.2403 -0.1548
28209W        W45056  19.358  18.455  12.584  0.2615 -0.0512 -0.0027
28210W        W45057   5.571   7.602   0.662  0.0689  0.1488  0.0711
28211W        W45058  12.544  16.810   4.666  0.1871 -0.2358  0.0942
28212W        W45059  12.500   2.296  11.949  0.0103  0.2151 -0.2337
28213W        W45060  12.080  12.197   0.699  0.0494 -0.0990  0.0866
28214W        W45061   2.745   0.681   2.990  0.0460 -0.0110  0.2686
28215W        W45062   2.729  12.951  14.581  0.1795  0.4784 -0.0924
28216W        W45063   7.444   6.578  10.817 -0.1214  0.0524 -0.1254
28217W        W45064  12.965  14.686  11.398  0.0150 -0.0458  0.1703
28218W        W45065   5.840  19.294   4.313  0.3611  0.0050 -0.1416
28219W        W45066  18.927   8.720  11.889 -0.0630  0.3839  0.2018
28220W        W45067  15.262  13.413  12.015 -0.0523 -0.1272 -0.6479
28221W        W45068   1.316  14.649   1.334  0.0430  0.0206 -0.2171
28222W        W45069   3.826  16.797   3.579 -0.1609  0.0585 -0.0210
28223W        W45070   4.896   1.434   3.726 -0.0216  0.4099  0.0003
28224W        W45071   7.287   4.035  12.871 -0.0131 -0.2485  0.2798
28225W        W45072   6.556  11.953   4.172 -0.0227  0.1845 -0.3628
28226W        W45073  16.350   0.009   1.503  0.1889 -0.0585 -0.1076
28227W        W45074  13.324   2.542   1.106  0.0215 -0.0345  0.0332
28228W        W45075   9.340  12.777   4.973 -0.3085  0.1594 -0.0808
28229W        W45076  13.745   8.670   4.763 -0.0798 -0.2147 -0.0163
28230W        W45077   6.445   6.814  10.385 -0.0203  0.1895 -0.0082
28231W        W45078  18.565   8.951   4.280  0.3422  0.0428 -0.2276
28232W        W45079  13.478  13.788   4.104  0.0269  0.0932  0.0386
28233W        W45080  13.831  19.603   0.067  0.3847 -0.1593  0.2579
28234W        W45081   1.602  14.946   2.460 -0.0764  0.0385 -0.0187
28235W        W45082  18.989  15.933   1.560 -0.5541 -0.1430 -0.4487
28236W        W45083   4.374   9.699   3.527  0.0547  0.1856 -0.3152
28237W        W45084  16.482   0.646   0.904 -0.2430  0.0393 -0.1091
28238W        W45085  10.581   1.258  13.028  0.3788  0.1614  0.0351
28239W        W45086   2.263  18.811  13.263 -0.3934  0.1096  0.2972
28240W        W45087   5.801  12.895  13.117  0.0134  0.0473  0.2686
28241W        W45088  18.786  18.719  13.892 -0.2437 -0.0895 -0.2336
28242W        W45089  11.956  19.147   3.408 -0.5683 -0.0717  0.0946
28243W        W45090   1.854   2.404   0.899 -0.2770 -0.1450  0.2403
28244W        W45091  14.939   6.900  12.120  0.0108 -0.0228  0.1037
28245W        W45092  12.730   2.736   2.870 -0.3766  0.0444 -0.1220
28246W        W45093  12.852  19.203   1.039 -0.2999  0.2873  0.0844
28247W        W45094  11.416  13.113  13.428 -0.1950 -0.1538 -0.0955
28248W        W45095  12.586   7.209  11.560  0.1545  0.1353  0.1546
28249W        W45096  17.553  12.043   1.807  0.0732 -0.2631 -0.1332
28250W        W45097   6.738  17.023   1.891 -0.0580  0.0237  0.0274
28251W        W45098   1.363   8.017   9.982 -0.1758  0.1197  0.0694
28252W        W45099   7.201   4.467  10.320 -0.0185 -0.1181  0.2401
28253W        W45100   4.158   6.788   0.298  0.2074  0.2376  0.3669
28254W        W45101  14.597  16.734   4.775 -0.0845  0.3345  0.0108
28255W        W45102   1.664   1.108  14.604  0.0768 -0.1857 -0.0698
28256W        W45103   2.580   1.934  12.777 -0.0749 -0.0224  0.1439
28257W        W45104  15.889  18.250   0.561 -0.1532  0.1345 -0.0815
28258W        W45105   0.066  10.034   2.761  0.0463  0.2063 -0.0630
28259W        W45106  14.380  16.112   2.264  0.1275 -0.0208  0.0263
28260W        W45107   6.788   6.542  14.103 -0.1485  0.0400 -0.0460
28261W        W45108  15.216   4.629  13.394 -0.1073  0.3294 -0.6967
28262W        W45109   0.150   0.930   0.833  0.0642 -0.0365  0.1377
28263W        W45110   3.808   9.462   2.572 -0.2439 -0.0184 -0.1165
28264W        W45111  17.084  12.235   0.958 -0.0459  0.1371 -0.4431
28265W        W45112  16.712   2.763   4.378  0.2168 -0.0455  0.0489
28266W        W45113   1.896  13.523   4.329 -0.0674 -0.0783 -0.3354
28267W        W45114   0.817  10.597  13.787 -0.0336 -0.1579 -0.2329
28268W        W45115  11.492  16.956   0.479 -0.0559  0.2231  0.0542
28269W        W45116  14.472   6.501   0.010 -0.0261 -0.0565  0.0536
28270W        W45117   3.323  15.295  14.048  0.1300 -0.1316  0.0339
28271W        W45118  13.934  11.760   2.242 -0.1041 -0.3222  0.0331
28272W        W45119   1.202   7.493  10.974  0.0853  0.0230 -0.0814
28273W        W45120  10.237   0.793   3.547 -0.0103 -0.2801  0.1697
28274W        W45121  18.834   4.308  14.610 -0.0583  0.0786 -0.4726
28275W        W45122  17.110  10.736   3.321  0.1115 -0.0561  0.1626
28276W        W45123   0.144   7.298   2.584 -0.0863 -0.0053 -0.1918
28277W        W45124   1.982   5.530  12.571 -0.3921 -0.0358 -0.0268
28278W        W45125  14.738  17.823  11.028  0.2139 -0.1993 -0.2526
28279W        W45126  10.673  11.184   5.080  0.0091  0.0080 -0.0161
28280W        W45127  14.293  14.197   2.451  0.3482 -0.2176 -0.2199
28281W        W45128   4.512   4.910   0.690 -0.2767 -0.0908  0.0393
28282W        W45129   2.224   6.038   0.960  0.1512  0.2943  0.0629
28283W        W45130   0.080  13.550   2.846  0.0083  0.0696 -0.1111
28284W        W45131   7.781   4.341   4.701 -0.0889  0.1044 -0.1337
28285W        W45132   7.057   2.224   2.094 -0.3167  0.1040 -0.0833
28286W        W45133   4.482  14.857   0.305 -0.1990  0.1257 -0.2598
28287W        W45134   7.205   5.212  10.811  0.1088  0.3219  0.0772
28288W        W45135  10.338  17.988   0.872  0.1773 -0.3520 -0.1118
28289W        W45136  10.646  17.166  11.347  0.4932 -0.2542 -0.1970
28290W        W45137   8.055   3.849   9.831  0.1141 -0.0922  0.0162
28291W        W45138   6.832  17.760  13.788  0.0469  0.1433  0.1141
28292W        W45139   4.007  15.467  10.669  0.2321 -0.0447 -0.0535
28293W        W45140   6.677   1.997   2.981  0.3361  0.5831 -0.2648
28294W        W45141  13.420  16.349  10.108 -0.1214 -0.2766  0.0340
28295W        W45142   2.577   9.655   5.647 -0.1605  0.0607 -0.2470
28296W        W45143  11.117  19.082  13.803  0.1022  0.1870 -0.0414
28297W        W45144   0.925   3.427   3.130  0.1593 -0.0259  0.0969
28298W        W45145  16.088   5.559  10.431 -0.0748 -0.3642  0.2787
28299W        W45146  19.008   9.034   1.361 -0.2089 -0.1509  0.0242
28300W        W45147  15.522   7.970   4.202 -0.1486  0.1135 -0.1527
28301W        W45148   1.800   4.066   0.212 -0.3334  0.1321 -0.2571
28302W        W45149   1.068   3.552   1.392  0.2460  0.2835 -0.1401
28303W        W45150   1.439  10.815   4.157 -0.0609 -0.2515 -0.0391
28304W        W45151   1.211  18.293  13.240  0.2699 -0.0813 -0.2703
28305W        W45152   6.785   4.075  12.825 -0.2061 -0.1362 -0.2153
28306W        W45153  14.448   6.218  10.352  0.1478 -0.1529  0.0561
28307W        W45154  11.749   8.702   2.048  0.2280  0.0225 -0.1374
28308W        W45155  18.247   2.229   2.628  0.0974  0.0957  0.1752
28309W        W45156  11.019   9.825   5.033 -0.3026  0.0646  0.1600
28310W        W45157  17.793  17.598   0.046  0.2811  0.0074  0.1469
28311W        W45158   5.020   6.859   3.927 -0.1410 -0.0364  0.0196
28312W        W45159   1.519   4.263   4.442 -0.5724  0.1891  0.1957
28313W        W45160  15.428   7.698   0.632 -0.0467  0.3309 -0.1165
28314W        W45161   9.693   8.345   2.247 -0.1051 -0.0036  0.0852
28315W        W45162   0.911   5.273  11.206 -0.0740 -0.1409 -0.1829
28316W        W45163  15.270   8.394   1.682  0.0728 -0.4417 -0.0272
28317W        W45164   7.028   0.739  10.294  0.1884  0.1513 -0.3144
28318W        W45165  17.973   1.761   1.443 -0.1556 -0.2338 -0.1114
28319W        W45166  10.277  16.091   2.545  0.1001  0.0639 -0.0175
28320W        W45167  17.894  17.774  13.186  0.0133  0.0426  0.0338
28321W        W45168   6.148  14.042  11.581 -0.3037 -0.0467 -0.1305
28322W        W45169  19.258  18.129  13.215 -0.0617  0.0160  0.0310
28323W        W45170   5.212  15.418   3.210  0.1551  0.2295 -0.3459
28324W        W45171  10.635   0.122  13.208 -0.0964 -0.0269  0.0250
28325W        W45172  14.265   0.733   1.863  0.0617 -0.0692 -0.0840
28326W        W45173   9.402   0.022   4.294  0.1828  0.2052  0.2025
28327W        W45174   1.400  13.510   1.433 -0.1005 -0.1253  0.2349
28328W        W45175  10.858   5.569   3.915 -0.1438  0.0780 -0.1460
28329W        W45176   6.834  14.398   4.332 -0.0877 -0.2259 -0.1429
28330W        W45177   0.686   9.999  13.174  0.1347  0.0157  0.3641
28331W        W45178  16.716   8.985  12.771  0.1498  0.2921  0.4542
28332W        W45179   6.649  17.093  12.898 -0.4301 -0.0177 -0.0812
28333W        W45180  14.204   8.351   4.766  0.1226 -0.1458  0.4366
28334W        W45181   1.687   4.613   3.079 -0.1581 -0.0802 -0.3566
28335W        W45182  10.378  18.101   1.630  0.0991 -0.1860  0.0069
28336W        W45183  19.334  15.401  12.634  0.1036  0.1168  0.4193
28337W        W45184  10.164   1.360   0.940  0.0819  0.3875  0.1830
28338W        W45185  14.984  16.589  11.744  0.1865  0.0394  0.0235
28339W        W45186   5.859   4.978  13.573  0.1156  0.1646  0.0524
28340W        W45187   7.888  18.438   1.511 -0.0468 -0.0475 -0.0043
28341W        W45188   0.608  12.589   0.031  0.3079 -0.0969  0.3929
28342W        W45189   9.471   2.644   0.308 -0.0847  0.2229 -0.0662
28343W        W45190  17.905   3.003   0.448  0.0197  0.3959  0.0355
28344W        W45191   1.005   5.099   9.691  0.1469 -0.2307 -0.0462
28345W        W45192   4.493  11.647   3.335  0.5426  0.0260 -0.1208
28346W        W45193  15.811  10.524  12.503 -0.1718  0.1235  0.2531
28347W        W45194   6.468  14.792  10.517 -0.3755 -0.1817  0.0063
28348W        W45195  14.548   9.749   1.919 -0.0521 -0.2780  0.0065
28349W        W45196   0.439   2.274   0.417 -0.0713  0.0414  0.0869
28350W        W45197   3.561   2.299   1.276 -0.1502 -0.1747 -0.3534
28351W        W45198  15.339  10.257  11.640  0.1432 -0.1496 -0.0026
28352W        W45199   0.282   7.669  11.050  0.3272  0.0671  0.0915
28353W        W45200   9.882   3.793   4.750  0.3792 -0.5200 -0.4950
28354W        W45201  15.984  18.497  12.813 -0.4173  0.0693  0.1789
28355W        W45202   2.626  14.448   4.247 -0.3267  0.3950 -0.2951
28356W        W45203   5.519  18.391   1.451  0.1488  0.0951  0.0585
28357W        W45204   9.974   8.313   2.707  0.1063  0.1058  0.0488
28358W        W45205   5.187   9.686  11.829 -0.3752  0.0948  0.2775
28359W        W45206   4.510   1.018  11.188 -0.2032  0.1899  0.0502
28360W        W45207   5.244   8.892   4.239 -0.3416 -0.0329 -0.1058
28361W        W45208  14.672  16.740   3.670  0.1996  0.1096  0.4730
28362W        W45209   1.994   1.233   3.259 -0.0255  0.0723  0.1150
28363W        W45210  18.579  11.866   0.989  0.1959  0.3003 -0.0943
28364W        W45211   3.221  14.623  12.994  0.3944  0.2306 -0.1355
28365W        W45212  14.488  15.580  11.573 -0.2209 -0.0037 -0.1931
28366W        W45213   5.168  16.400   0.076 -0.0802  0.0411 -0.2069
28367W        W45214  11.740  10.250   1.137 -0.2010  0.2461 -0.1829
28368W        W45215   6.521  16.592  14.296  0.2451  0.2209 -0.2492
28369W        W45216   4.148  11.773   4.019 -0.1802  0.0868 -0.0417
28370W        W45217   7.742  11.870  14.427  0.0684 -0.2219 -0.1948
28371W        W45218   5.106   1.839  12.360  0.0634  0.2864 -0.4324
28372W        W45219  11.648   9.109  12.533 -0.2057 -0.3111 -0.0862
28373W        W45220   1.695   9.330   5.796  0.1271  0.3043 -0.1840
28374W        W45221   5.691   7.438   3.454 -0.0209 -0.0852  0.1626
28375W        W45222  17.087   4.248   0.702  0.1238  0.0894 -0.0539
28376W        W45223   5.792  13.758  12.593 -0.0610  0.0042  0.0083
28377W        W45224  16.878  11.983  13.900  0.0724 -0.1395 -0.2570
28378W        W45225   8.770  16.054  14.560  0.0881  0.4734  0.0392
28379W        W45226   6.144   1.507   3.402  0.0748 -0.3438  0.1311
28380W        W45227  15.570  17.135   5.244  0.2949 -0.1637 -0.1382
28381W        W45228  17.889   7.925   2.273 -0.1451  0.3407 -0.1109
28382W        W45229   3.007  17.632   2.655 -0.1318 -0.3228 -0.0054
28383W        W45230  13.534   9.172   0.027 -0.3372 -0.0546  0.2100
28384W        W45231  18.214  12.773   2.151  0.1890 -0.0783  0.1545
28385W        W45232   4.938  10.864   4.343  0.1126 -0.1941 -0.1082
28386W        W45233  18.272   6.128   3.070  0.0983  0.2530 -0.1653
28387W        W45234   7.585   0.533  10.906  0.2119 -0.2076  0.0323
28388W        W45235  11.543  14.427   3.906  0.0730  0.0004  0.0735
28389W        W45236   3.347  13.863  12.456 -0.1919  0.0356 -0.1349
28390W        W45237  15.378   5.194   3.780  0.1993  0.3598 -0.1963
28391W        W45238   9.797   7.382   0.079  0.2728 -0.3614 -0.0969
28392W        W45239   4.906   0.108   4.625 -0.3111  0.0006 -0.4405
28393W        W45240  19.448   2.164  11.739  0.0013  0.1633 -0.1955
28394W        W45241   5.280   8.977   2.622 -0.2357  0.0030  0.2060
28395W        W45242   0.557   9.870  11.376  0.1571  0.0689  0.3967
28396W        W45243  16.695  18.257  11.184 -0.0986 -0.0057 -0.0860
28397W        W45244  12.636   0.768  12.153  0.1154  0.0596 -0.2061
28398W        W45245  11.696   1.809   2.478 -0.0196 -0.0874  0.0674
28399W        W45246  11.204   9.111  11.652 -0.0525  0.1037  0.0769
28400W        W45247   7.570  17.462   2.826  0.0672  0.0280  0.0568
28401W        W45248   2.973  19.089  11.061 -0.2399 -0.0731  0.0580
28402W        W45249   8.064  12.452   2.604  0.1165 -0.0926  0.2522
28403W        W45250  19.515   9.455  10.708  0.4461 -0.1336  0.2910
28404W        W45251   1.158   6.494   9.554  0.3030 -0.0953  0.0796
28405W        W45252   7.238  19.404   5.519  0.0635  0.4285 -0.0727
28406W        W45253  11.190   3.937   2.736 -0.0611  0.0472 -0.3324
28407W        W45254   3.728  19.502  12.040  0.0299 -0.1660 -0.0452
28408W        W45255   2.832   3.753   1.222 -0.2011  0.1429 -0.1611
28409W        W45256  12.727   7.965   9.599 -0.0453  0.3099  0.1901
28410W        W45257  12.373   4.450  12.748  0.1714 -0.2152  0.0486
28411W        W45258   9.309  11.127   0.830 -0.0959  0.3068 -0.0326
28412W        W45259   3.972  12.725   4.198 -0.1345  0.0001  0.0411
28413W        W45260   3.035  19.011  11.561 -0.0424 -0.1416 -0.0847
28414W        W45261   0.375  16.643   9.289  0.1447  0.0500 -0.0129
28415W        W45262  18.999   1.445  10.615  0.0295  0.4822  0.1000
28416W        W45263  10.220  11.364   3.299 -0.0347 -0.0635 -0.1374
28417W        W45264  16.052   2.651   0.310  0.2462  0.3358 -0.1963
28418W        W45265  14.689  19.347   1.629 -0.0014 -0.4727  0.0900
28419W        W45266  11.843  17.937  10.674 -0.3983 -0.1956 -0.2189
28420W        W45267   5.678  18.501   3.523 -0.1323  0.3433 -0.2490
28421W        W45268   5.228   8.361   4.340  0.1108 -0.1858 -0.0816
28422W        W45269   3.458  16.921   1.337 -0.1275  0.1734 -0.0067
28423W        W45270   3.966  12.387   0.150  0.6257  0.1542  0.3700
28424W        W45271   9.883   1.832   0.123 -0.0292 -0.0669 -0.2213
28425W        W45272  19.329  15.525   3.112 -0.1314 -0.1214  0.0953
28426W        W45273   7.856   1.395  10.658  0.0979  0.3042 -0.2227
28427W        W45274   1.364   1.821   4.278  0.2415 -0.0862 -0.0904
28428W        W45275  16.386   0.256  14.252 -0.1572  0.0543 -0.0314
28429W        W45276   8.483  17.803  10.843  0.0150  0.1336 -0.2465
28430W        W45277   3.802   8.023  13.704  0.0412 -0.0998 -0.0538
28431W        W45278   4.314  19.113  13.011  0.1207  0.0765  0.0659
28432W        W45279   5.850   0.741   9.742  0.0520 -0.1207  0.2661
28433W        W45280   4.583   0.646   2.540 -0.4251 -0.1074 -0.2159
28434W        W45281  12.390  14.281  13.880  0.0317 -0.0410 -0.2098
28435W        W45282   8.450   5.541   4.478 -0.0247 -0.1738 -0.2434
28436W        W45283  10.736  16.624   0.647 -0.1335 -0.0550 -0.2283
28437W        W45284   9.787   8.623   3.545  0.2134  0.3009 -0.0129
28438W        W45285   8.969  10.592   5.214  0.2222 -0.2149  0.1243
28439W        W45286   3.739   4.040  12.523 -0.1281  0.0910  0.2102
28440W        W45287   6.317  11.926   3.472  0.1037 -0.0751  0.0453
28441W        W45288  11.926   4.427   0.323 -0.0792  0.0987  0.6360
28442W        W45289  19.050  11.047   1.399  0.2348  0.1946 -0.0758
28443W        W45290   5.453  14.771   0.146 -0.1150  0.1483  0.1396
28444W        W45291  14.951  10.303   3.640  0.0194  0.2507 -0.0123
28445W        W45292   7.437   4.749  11.872 -0.1151  0.1393 -0.1774
28446W        W45293  13.048   3.059  14.426  0.1444 -0.3091  0.2927
28447W        W45294  12.165   1.012   2.641 -0.2262 -0.2614 -0.2473
28448W        W45295  14.934   0.461   2.697  0.0357  0.0666  0.2987
28449W        W45296  19.125   7.231  14.113  0.1235  0.0611  0.1312
28450W        W45297   3.002   5.903   4.784 -0.1201  0.1335  0.0517
28451W        W45298   8.362  13.180  11.248 -0.3103 -0.0885  0.0756
28452W        W45299   5.162   7.966  11.856 -0.0227 -0.0348  0.2872
28453W        W45300  18.979  15.063  13.189  0.0444  0.1582 -0.2973
28454W        W45301  13.378  16.925  10.770  0.1995 -0.0890 -0.1301
28455W        W45302  11.045  10.887  10.569  0.1882 -0.2681  0.0147
28456W        W45303  17.788  13.159  14.028  0.1732  0.1468  0.3970
28457W        W45304   4.356  11.680  13.352 -0.1437 -0.0834 -0.2470
28458W        W45305   4.225   4.605   0.271 -0.1111 -0.2077  0.0677
28459W        W45306   2.302  11.062  11.760  0.1905 -0.0638 -0.0719
28460W        W45307  14.839  15.916   2.516  0.0808  0.1408 -0.3027
28461W        W45308   1.727  10.769  13.055 -0.0473  0.0052 -0.2954
28462W        W45309  17.461  15.990   1.673 -0.1538  0.0656 -0.3704
28463W        W45310   2.713  14.668  12.300 -0.0046  0.2244  0.1878
28464W        W45311   7.419   3.039   5.124  0.0554  0.4645  0.0837
28465W        W45312  10.449  13.115  12.555 -0.1445 -0.1956  0.1527
28466W        W45313   9.638  14.298  12.987 -0.2137  0.1534 -0.0353
28467W        W45314  15.555   8.613  12.357 -0.3622 -0.1872 -0.1499
28468W        W45315  16.604   6.503   1.127  0.1250 -0.0113 -0.1594
28469W        W45316   4.517   4.665  11.228 -0.0708  0.0201  0.0113
28470W        W45317   1.836   6.898  14.383 -0.1493 -0.1109 -0.2286
28471W        W45318  14.338   3.686  13.359 -0.0354 -0.3710 -0.1335
28472W        W45319   8.219  18.129  10.130  0.1621  0.1776 -0.0374
28473W        W45320   2.422  10.281   3.274 -0.1124 -0.0620 -0.0100
28474W        W45321  15.651   2.668  11.718  0.0812 -0.0409 -0.0325
28475W        W45322  14.213   4.143  14.261  0.1041  0.0647  0.3970
28476W        W45323   6.341   6.427   0.851  0.1701  0.2560 -0.1321
28477W        W45324  13.161   1.905   3.514 -0.2077 -0.4355 -0.3303
28478W        W45325   4.006  12.433   3.371 -0.1144  0.0486 -0.1071
28479W        W45326   6.998   9.036  12.208  0.0115  0.1981  0.1240
28480W        W45327   8.409   4.467  10.789 -0.0340  0.1572 -0.0458
28481W        W45328   9.427  17.066   2.229 -0.1645  0.4069  0.2491
28482W        W45329   3.805  17.847  14.300 -0.0355  0.3345  0.3114
28483W        W45330   0.097  12.277   1.741  0.1049 -0.1560  0.1436
28484W        W45331   8.319   0.964   1.312 -0.1396 -0.2814 -0.2320
28485W        W45332   5.900  10.640   9.886  0.0590 -0.2233  0.0350
28486W        W45333  16.302  11.801   9.400 -0.2202  0.0024  0.3259
28487W        W45334   0.918  17.147  13.073 -0.0561 -0.0137 -0.2182
28488W        W45335  12.290  11.742  14.337 -0.1113  0.1030  0.2792
28489W        W45336   7.040  13.462   1.452  0.2607 -0.2783 -0.2867
28490W        W45337  16.224  15.309   2.324 -0.3127 -0.1486 -0.1624
28491W        W45338   5.706   2.638  14.092  0.4191 -0.0909  0.2226
28492W        W45339  16.585  11.459   4.842  0.1186 -0.1099 -0.3778
28493W        W45340  10.283  10.487  13.886  0.2378  0.0806 -0.0429
28494W        W45341   9.846  18.863  11.647  0.1115 -0.0770 -0.3263
28495W        W45342  16.715   5.315  11.712 -0.2070  0.1343  0.1165
28496W        W45343   8.889   2.522  11.710  0.2727  0.2257 -0.1382
28497W        W45344   7.566  18.438  14.008 -0.2317  0.0147  0.0447
28498W        W45345   2.346   4.890  10.261 -0.0570  0.0894 -0.0664
28499W        W45346  16.549   1.510   1.237 -0.0580 -0.2366 -0.2391
28500W        W45347  15.102   1.213  11.733  0.0182  0.1577 -0.3958
28501W        W45348  12.525  10.036  12.131  0.1603  0.1319 -0.0306
28502W        W45349   4.442   9.852  12.560 -0.0551 -0.2178  0.2093
28503W        W45350  16.146   2.686   3.596 -0.2247  0.1439  0.0725
28504W        W45351  12.530   8.137   1.999  0.2027 -0.0742  0.0135
28505W        W45352  18.221   3.109  10.725 -0.0499 -0.0980  0.0747
28506W        W45353   0.411  16.023   1.115 -0.1781 -0.1626  0.2862
28507W        W45354   1.682  16.824  12.643 -0.0321 -0.1115  0.1185
28508W        W45355   4.653  18.534  10.431 -0.0619  0.0779  0.2500
28509W        W45356  10.528  19.133  14.492  0.2728  0.0168  0.0312
28510W        W45357   3.628   5.567  10.303  0.0330 -0.1888 -0.3663
28511W        W45358  14.630  18.444  10.405 -0.0731 -0.0317 -0.1679
28512W        W45359  17.748   2.217   3.657  0.0431 -0.0837 -0.2117
28513W        W45360   8.618   9.637   2.045  0.2750 -0.0870  0.4972
28514W        W45361  13.490   3.478  13.153 -0.0569  0.2328 -0.0452
28515W        W45362  19.223   0.736  14.291 -0.1145 -0.0602  0.1822
28516W        W45363   7.113  14.036  14.120 -0.1972 -0.1959 -0.0144
28517W        W45364  12.191  17.614  10.287 -0.1614 -0.1458 -0.0588
28518W        W45365  11.062  13.522  11.408 -0.3182 -0.0433 -0.1406
28519W        W45366   4.445   2.812  13.500 -0.0633 -0.0938 -0.1349
28520W        W45367   9.600  13.282  14.571 -0.0522  0.0031  0.0897
28521W        W45368  15.959   2.272  11.610 -0.3062  0.0246 -0.2195
28522W        W45369   6.307  16.647  12.973  0.0642 -0.1715  0.2886
28523W        W45370   5.295  15.565  12.611  0.0521  0.1135  0.1735
28524W        W45371  15.748   5.744  11.900 -0.1823 -0.1573  0.0710
28525W        W45372   7.394   2.854  11.833 -0.2626  0.0443  0.0761
28526W        W45373   2.195  12.282   4.087  0.2623 -0.1138 -0.0589
28527W        W45374   7.257  17.296  11.792 -0.2260 -0.1514  0.0077
28528W        W45375  12.259   0.489   4.780  0.2759 -0.0257 -0.0694
28529W        W45376  18.590  11.342   3.401  0.2136 -0.0210  0.1005
28530W        W45377   5.105  12.628   1.774 -0.3035 -0.0071  0.1139
28531W        W45378  12.397   0.705  13.580 -0.1649  0.3871 -0.1123
28532W        W45379   8.498  10.498  12.020  0.0522  0.0755 -0.1561
28533W        W45380  16.130   6.665  11.596 -0.1307 -0.0769 -0.0675
28534W        W45381   2.798  11.376  10.822 -0.2412 -0.0714  0.3401
28535W        W45382   1.237  13.929  11.723  0.3055 -0.0940  0.2101
28536W        W45383   0.498   4.294   0.468  0.0521  0.0069  0.2039
28537W        W45384  11.489  11.978  13.024 -0.0185  0.1500  0.0623
28538W        W45385  15.677   4.412   5.232  0.0263 -0.2345 -0.1931
28539W        W45386  12.622   8.925   2.573 -0.0541  0.3666  0.3263
28540W        W45387   2.109   0.930  12.316  0.2097 -0.2331  0.0963
28541W        W45388   4.268   0.355  13.150 -0.2423 -0.0382 -0.0054
28542W        W45389   3.195   0.956  13.669 -0.2363  0.0507  0.0310
28543W        W45390   0.507  19.610  12.208  0.1452 -0.1882  0.2309
28544W        W45391   1.097  11.063  12.660  0.0682  0.0418  0.0012
28545W        W45392   9.865  11.162   0.762  0.0400 -0.0838  0.3440
28546W        W45393  12.219   3.565   3.983  0.0888 -0.3696  0.2594
28547W        W45394   7.962   5.509  10.827 -0.0800  0.0382  0.0716
28548W        W45395   0.870   7.022   4.769 -0.3145  0.1488  0.2571
28549W        W45396   3.375   0.034   2.131  0.1265 -0.0538  0.1948
28550W        W45397   0.663  10.919   5.385  0.0120  0.0361  0.0112
28551W        W45398   1.159  16.155   3.543 -0.2388 -0.0174  0.1982
28552W        W45399   1.919   0.485   3.129  0.3844  0.0598 -0.3385
28553W        W45400   8.647  14.406   1.336 -0.0937 -0.0020  0.2151
28554W        W45401   6.283   3.201  13.185 -0.1869 -0.0523 -0.0052
28555W        W45402  19.324   1.318   1.653  0.2151 -0.0639  0.1860
28556W        W45403  19.219  12.355   3.316 -0.0231  0.0600  0.2201
28557W        W45404  12.500  18.574  12.249  0.1509 -0.2937 -0.4444
28558W        W45405  18.557  15.040  12.918 -0.0198  0.1898 -0.1852
28559W        W45406   1.077   0.165   2.875 -0.2078  0.0452 -0.0724
28560W        W45407  17.973  14.007   1.636  0.0269  0.0248  0.0692
28561W        W45408   8.511  13.401   2.609  0.1508  0.2320  0.1531
28562W        W45409   0.889   6.806   3.005 -0.0184 -0.1689 -0.2428
28563W        W45410   1.593  10.343   2.293  0.1550 -0.1412  0.1417
28564W        W45411   1.282   3.735   0.497 -0.0139  0.1418 -0.0653
28565W        W45412   9.447  18.619  10.358  0.1686 -0.2286 -0.1403
28566W        W45413  17.708   9.903   3.495 -0.1323 -0.0131 -0.3259
28567W        W45414   6.506   1.302   0.938 -0.0169 -0.1976 -0.0559
28568W        W45415   1.869   2.326  14.012 -0.2078 -0.2686 -0.0044
28569W        W45416  14.743   5.944   2.887  0.0855 -0.0156  0.0548
28570W        W45417  14.270  11.665  14.220 -0.1059 -0.1238 -0.4123
28571W        W45418  10.372   8.080   3.703 -0.3829  0.1121  0.2041
28572W        W45419  11.005  11.951   1.375 -0.0196 -0.0428  0.4029
28573W        W45420   4.392   0.550   3.078 -0.2431  0.1017  0.2120
28574W        W45421  16.623   5.911  13.783 -0.1065  0.0126 -0.1806
28575W        W45422   3.920   9.788   2.252  0.1833  0.4491  0.0050
28576W        W45423   8.646   0.746   4.754 -0.0022 -0.4277  0.2699
28577W        W45424   0.511   0.764   3.324 -0.1598  0.4914 -0.4280
28578W        W45425  16.270   9.541  14.577  0.1963 -0.0688  0.3282
28579W        W45426   7.054  12.067   1.944 -0.3588 -0.1686 -0.1952
28580W        W45427  14.798   2.442  12.152 -0.0933  0.3614  0.0954
28581W        W45428  13.785  16.491   5.324  0.3261  0.0263 -0.1237
28582W        W45429   9.623   7.028   4.070  0.1950 -0.1535 -0.2089
28583W        W45430  18.771  11.094  12.783 -0.1457 -0.0717  0.0346
28584W        W45431   9.837  13.472   2.425  0.0296 -0.3064 -0.0749
28585W        W45432   0.529  14.483  13.719 -0.0812  0.0544 -0.4644
28586W        W45433  16.322  11.988  11.212 -0.0576 -0.0024 -0.1267
28587W        W45434   5.717  11.582  12.924 -0.0759 -0.1076 -0.2418
28588W        W45435   0.810   4.523   0.026  0.0771  0.0007 -0.0822
28589W        W45436   3.318  19.565   0.466 -0.0008 -0.1110  0.0821
28590W        W45437   3.967   4.131  11.901  0.1681  0.5683  0.2198
28591W        W45438  13.480   6.727   0.980  0.0061  0.1534 -0.1081
28592W        W45439   1.225  17.460  12.780 -0.1296  0.1981 -0.1110
28593W        W45440  18.628  13.494   3.430 -0.1038  0.1781  0.1625
28594W        W45441   6.554  11.565   5.378  0.3212  0.1454  0.1933
28595W        W45442  15.257   7.668   3.765 -0.1398 -0.0962 -0.2253
28596W        W45443  17.900   9.696   2.682  0.4699  0.0944 -0.0442
28597W        W45444   6.915   5.574  11.766 -0.0163 -0.2835 -0.0430
28598W        W45445   2.856   2.398  12.555 -0.0113 -0.2064 -0.0502
28599W        W45446   4.431   9.159   3.657 -0.0723 -0.3098 -0.1656
28600W        W45447  10.138   0.807  11.246  0.1954  0.0511  0.0030
28601W        W45448   9.307  19.581   3.270 -0.2657  0.0706  0.0935
28602W        W45449   7.141   4.092  13.952  0.0219  0.0715 -0.0673
28603W        W45450   2.091  12.258   0.840  0.0962 -0.2274 -0.0579
28604W        W45451   0.930  11.590   0.360 -0.0152  0.2858 -0.2055
28605W        W45452  12.045  12.722   3.413 -0.1514 -0.1765 -0.0689
28606W        W45453   6.217   0.479   2.082 -0.1102 -0.0764 -0.0794
28607W        W45454  11.969  12.847   2.904 -0.0956  0.2407 -0.1449
28608W        W45455  15.065  14.601  13.948  0.2151 -0.1777  0.2235
28609W        W45456  11.300  17.954   2.827 -0.1266 -0.0532 -0.0095
28610W        W45457   5.660  10.653   2.139  0.2846 -0.1167  0.1346
28611W        W45458  16.496   9.377  11.401  0.1648 -0.1784 -0.1917
28612W        W45459   0.181  13.127   2.097 -0.1182  0.0472  0.4511
28613W        W45460  17.165   3.963  13.747 -0.0737  0.2613 -0.1462
28614W        W45461  10.385  17.370  14.214  0.0765 -0.4636  0.1055
28615W        W45462   0.161  10.046  13.979  0.1096  0.0134 -0.1267
28616W        W45463   7.674   2.767   3.157  0.1831 -0.1381  0.1074
28617W        W45464  10.740   9.852  10.175 -0.1983  0.2971 -0.0915
28618W        W45465  14.618  17.144   1.240  0.0711 -0.1075  0.2125
28619W        W45466   0.185   7.486   3.792 -0.0897 -0.1192 -0.0536
28620W        W45467   5.515   6.992  10.879 -0.0307  0.2701  0.0023
28621W        W45468   8.116   4.092  10.256  0.2944  0.0423  0.0682
28622W        W45469  18.495  19.242   4.834 -0.0914 -0.1606  0.2076
28623W        W45470   7.829   6.839  14.429  0.1750 -0.3006 -0.1893
28624W        W45471   4.856   1.359   0.693 -0.3439 -0.3323  0.0816
28625W        W45472  16.060  16.997  13.169 -0.1710 -0.2019 -0.0277
28626W        W45473  19.127  13.206  12.267 -0.0149  0.2803 -0.1591
28627W        W45474  16.546   8.272  14.044  0.1238 -0.0343 -0.2321
28628W        W45475   7.776   9.163  11.815  0.0508 -0.1176  0.0642
28629W        W45476  15.405   5.521   4.499 -0.1931 -0.1400  0.0272
28630W        W45477  17.928   8.711   4.781 -0.0748  0.3449  0.3534
28631W        W45478  10.899  17.097   2.402  0.1960 -0.3174 -0.2578
28632W        W45479  13.812  13.217   0.077  0.2137 -0.1542 -0.2451
28633W        W45480  11.991  14.197   3.635  0.0461 -0.2850  0.0133
28634W        W45481   0.026   4.963   5.092 -0.0219 -0.2450 -0.2082
28635W        W45482   1.449   9.096   4.854  0.4459  0.1063  0.0675
28636W        W45483  13.807   0.718   2.780 -0.1474 -0.0970  0.0024
28637W        W45484   4.557   2.664   2.975  0.2276  0.0511  0.0931
28638W        W45485  14.251   7.147  10.533  0.0153 -0.5171  0.1159
28639W        W45486   6.915  18.403   2.264  0.2807  0.3064  0.0632
28640W        W45487   1.956   3.879  12.803 -0.0316 -0.1222 -0.3177
28641W        W45488   1.972  17.109  10.430  0.0558 -0.0635 -0.1345
28642W        W45489  13.675   6.325   4.547  0.1305 -0.0153  0.1279
28643W        W45490   2.107  14.938  10.466  0.1659 -0.0976 -0.0378
28644W        W45491  12.193  19.352   5.350 -0.2216  0.4687 -0.2367
28645W        W45492   6.019  15.171  14.076 -0.2252 -0.0836  0.0514
28646W        W45493  17.443  18.226  11.283  0.2773 -0.1668  0.0437
28647W        W45494   5.070  16.015   1.391  0.2935 -0.3629  0.3242
28648W        W45495   0.463  10.993   1.217 -0.1509 -0.5148 -0.4020
28649W        W45496   8.887   1.705   0.473  0.0356  0.2347 -0.0787
28650W        W45497   4.196  17.273  11.283 -0.2711  0.1772 -0.1637
28651W        W45498  14.735  13.882   0.806  0.1200  0.0115 -0.3604
28652W        W45499  13.207  18.872  12.890 -0.1393 -0.0944 -0.0713
28653W        W45500  16.279  13.822   1.481 -0.0617 -0.1675  0.1381
28654W        W45501   2.420   2.453  11.111  0.2715  0.0012  0.0284
28655W        W45502  10.628   7.735  11.679  0.0453  0.1400  0.1273
28656W        W45503   5.412  18.059   1.055 -0.1744  0.0313  0.0587
28657W        W45504  19.321  11.879  14.449 -0.2313  0.1507  0.1272
28658W        W45505   1.143  15.007  10.515  0.0812 -0.4565  0.2490
28659W        W45506   3.343   2.679   2.343 -0.0210 -0.0127 -0.3235
28660W        W45507   3.364  12.713   1.001  0.0362 -0.1738  0.3233
28661W        W45508  17.356  18.933   3.474 -0.0084 -0.1486  0.2287
28662W        W45509  11.897  15.501   3.203  0.1511 -0.1266 -0.0191
28663W        W45510  10.414   5.551   3.463 -0.0170 -0.1695  0.0826
28664W        W45511   3.159   4.369  13.222  0.2080  0.0171 -0.2471
28665W        W45512   4.821  16.860   2.980  0.1094  0.0572  0.0017
28666W        W45513   2.618  11.946  12.542 -0.1342  0.0903  0.2087
28667W        W45514   8.537  10.642   4.836 -0.0450  0.2797 -0.3343
28668W        W45515   4.208   5.360   3.517  0.0320  0.0386  0.0034
28669W        W45516  12.694   9.398   0.674 -0.2101 -0.1395 -0.5449
28670W        W45517   4.523   5.152   1.634 -0.1206  0.0425 -0.1508
28671W        W45518  16.950  13.654  11.228 -0.3998 -0.2516  0.0715
28672W        W45519  12.483   2.231  10.657 -0.1994 -0.1442  0.0528
28673W        W45520   6.175  14.754   0.599  0.0530  0.0308 -0.1412
28674W        W45521   6.994   6.199  11.443  0.0752  0.0429 -0.3149
28675W        W45522   8.555  19.069   2.653  0.3385  0.2002 -0.0990
28676W        W45523  11.224   9.427  10.540 -0.1142  0.0770 -0.3204
28677W        W45524   7.472  10.612  10.136  0.0150 -0.1149  0.0920
28678W        W45525   8.520  14.326   2.236 -0.0295 -0.1240 -0.1044
28679W        W45526  11.460   7.217   3.699 -0.1755 -0.1869 -0.0224
28680W        W45527  10.649   9.139   1.594  0.3735  0.3007  0.3774
28681W        W45528   9.828  19.385   4.160 -0.2134 -0.3196 -0.0545
28682W        W45529  10.884   2.367  14.554  0.2243  0.2820 -0.0410
28683W        W45530  14.663   3.350   0.497  0.0015 -0.1238 -0.1149
28684W        W45531   9.346  16.651   1.065  0.0942  0.3949 -0.0271
28685W        W45532  15.883   9.956  12.826  0.0346 -0.2309  0.1378
28686W        W45533   5.002  12.437  11.006 -0.0362  0.0785  0.0086
28687W        W45534  12.290   4.542  12.266  0.0490  0.3982  0.1045
28688W        W45535   9.877   7.131   4.495 -0.1246 -0.2424  0.1745
28689W        W45536  10.513  12.227   3.917 -0.0873  0.5069  0.4807
28690W        W45537   6.402   6.993   3.560 -0.1395  0.1318  0.2880
28691W        W45538  17.730  12.834   0.744  0.0268 -0.1044  0.1962
28692W        W45539   6.648  18.680   0.084  0.0899  0.2993 -0.0037
28693W        W45540   2.620  14.022  13.883 -0.0411 -0.0746 -0.3826
28694W        W45541   6.587  18.610   9.692  0.0034 -0.0670 -0.0732
28695W        W45542  12.775   0.868   3.422 -0.3549  0.1433 -0.2326
28696W        W45543  18.671   3.935  14.213  0.2083  0.0611  0.2800
28697W        W45544   6.178  11.862  10.629  0.0599 -0.5279 -0.2673
28698W        W45545   9.983   6.942   3.123 -0.2896  0.2048  0.4335
28699W        W45546  14.581   0.194  14.091 -0.1237  0.1138  0.0353
28700W        W45547  14.422   5.753  11.704  0.1499  0.0742 -0.2103
28701W        W45548   4.901  19.426  11.342  0.1351 -0.1418 -0.1720
28702W        W45549  14.126  14.950  13.870  0.0802  0.2178 -0.1775
28703W        W45550   0.800   9.216   2.747  0.0380 -0.0092 -0.1436
28704W        W45551   3.242   6.136   9.829 -0.3655  0.0806  0.2129
28705W        W45552   7.988   3.108   3.454 -0.1220  0.1141 -0.2676
28706W        W45553  12.591   2.808   5.233 -0.1065 -0.1235  0.5384
28707W        W45554  14.803   5.701  13.169  0.0862  0.1618 -0.3222
28708W        W45555   6.654   2.094   0.339 -0.1674  0.0978  0.2044
28709W        W45556   6.449   3.863   0.612 -0.0283 -0.0453  0.0012
28710W        W45557   6.024   6.321   4.129  0.1815  0.2265  0.0326
28711W        W45558   3.353   8.971  12.745  0.2327 -0.1186  0.1900
28712W        W45559  13.745   9.309   5.211 -0.1406  0.2174 -0.0209
28713W        W45560   5.922   7.105   2.034  0.1541 -0.0891 -0.1074
28714W        W45561   6.069  15.112  13.378  0.0763  0.1812  0.1500
28715W        W45562   0.823  16.174  11.385 -0.0457 -0.3197  0.1978
28716W        W45563   2.591   6.015   1.867  0.0063  0.1464  0.1584
28717W        W45564   7.403  18.649   2.323 -0.0478  0.2827 -0.3050
28718W        W45565   8.301  16.135   4.242  0.3840  0.0820 -0.0334
28719W        W45566  19.022  18.252   0.016  0.0659 -0.2469  0.1273
28720W        W45567  13.340   4.642  13.056  0.2347 -0.2280  0.0461
28721W        W45568   6.202   5.515   2.431  0.2766  0.1908  0.1260
28722W        W45569  19.476  17.060  12.966 -0.0913  0.0364  0.0014
28723W        W45570   6.551  11.626   4.871  0.2333 -0.0721  0.2911
28724W        W45571   8.122   5.529   1.124  0.1407  0.1441 -0.1615
28725W        W45572  16.777   4.269   1.751  0.1133 -0.0315  0.0137
28726W        W45573   3.869   2.107   1.828 -0.0975  0.1394  0.0378
28727W        W45574   7.262  10.220  13.810  0.1928  0.3079 -0.1628
28728W        W45575   7.152  18.974   1.385 -0.1666 -0.0678 -0.0875
28729W        W45576  10.190  14.550   0.531 -0.0038  0.0512  0.1362
28730W        W45577   1.555   8.253   2.989  0.0329 -0.0813 -0.0046
28731W        W45578  18.457  19.028  13.051 -0.0664 -0.1869 -0.2795
28732W        W45579   3.170  11.745   1.383 -0.1008  0.2640  0.0893
28733W        W45580   7.169   5.760   4.758  0.3298  0.4401  0.0325
28734W        W45581  13.147  12.057  14.110  0.0493  0.1160 -0.1457
28735W        W45582  14.232  10.383  10.928 -0.0769  0.1204 -0.4648
28736W        W45583   2.724   5.566  13.498 -0.0686  0.0571  0.1823
28737W        W45584  18.783   6.909  13.904 -0.1124 -0.1889 -0.2809
28738W        W45585   5.570  16.583  11.407  0.0496  0.2549  0.1265
28739W        W45586  12.994   0.123  11.490  0.0311 -0.1918  0.1640
28740W        W45587   7.944   1.617  13.579 -0.2278 -0.1707 -0.1703
28741W        W45588   2.905   6.978  10.426 -0.1222  0.0584  0.1372
28742W        W45589  18.245  17.748   0.329 -0.0082  0.4612  0.0009
28743W        W45590   1.267  11.911   3.522 -0.4023 -0.1680  0.1597
28744W        W45591   6.781  12.388   1.417 -0.3261  0.0411 -0.0672
28745W        W45592  17.307   7.911   3.807 -0.1081  0.3215  0.2369
28746W        W45593   9.706  14.449   3.084  0.3893 -0.1793 -0.2293
28747W        W45594  18.327  16.770  11.041 -0.1294  0.2621  0.0423
28748W        W45595  19.176  19.025  13.773  0.0729 -0.2438  0.0689
28749W        W45596   8.075  13.307  11.670 -0.1011 -0.0069 -0.0614
28750W        W45597  11.181  12.096   2.297  0.0806  0.0125  0.3373
28751W        W45598  10.568   0.803  10.172  0.1302  0.0514  0.0838
28752W        W45599  16.030   1.620   1.757  0.1310  0.0203 -0.0354
28753W        W45600  16.073   4.478   4.280  0.0517 -0.3381 -0.0716
28754W        W45601  16.951   6.665   3.146  0.0186  0.1694  0.0056
28755W        W45602   5.993   4.480   4.217  0.1590 -0.1775 -0.1125
28756W        W45603   2.406  10.259  13.428  0.1111 -0.1830  0.0208
28757W        W45604  11.088  10.121  13.985  0.0983  0.0279  0.1182
28758W        W45605   6.238  14.815   5.079  0.0921  0.1622  0.1431
28759W        W45606   2.752   2.393   5.250 -0.1320  0.0816  0.0963
28760W        W45607   9.553  17.910   1.392 -0.0576 -0.2922  0.2992
28761W        W45608   4.698  13.517  14.320  0.0523 -0.0881  0.1897
28762W        W45609  16.907  19.282   2.698 -0.2310  0.0259 -0.3734
28763W        W45610   3.274   7.238   0.005 -0.0226 -0.1133 -0.2050
28764W        W45611  16.562  19.133  11.097 -0.1647 -0.2672 -0.0868
28765W        W45612   9.198  14.245  13.433 -0.2438 -0.2429  0.1081
28766W        W45613   3.196  18.019   3.812  0.1735 -0.1433 -0.1034
28767W        W45614   1.398  13.067   2.624  0.1619 -0.1454 -0.1784
28768W        W45615   8.122  13.767  10.258 -0.2699  0.2187 -0.0862
28769W        W45616  16.373   5.128  10.414  0.0136 -0.0128 -0.3166
28770W        W45617  18.746  14.962  10.934 -0.0167 -0.0322 -0.1255
28771W        W45618  13.091  14.331  11.106 -0.1173 -0.0689  0.3588
28772W        W45619   4.165  19.181  11.626  0.2995 -0.0475 -0.2194
28773W        W45620   0.878  17.989   4.128  0.0759 -0.0371 -0.3330
28774W        W45621   4.084   7.968   3.882  0.0240  0.0638 -0.2362
28775W        W45622   4.548   0.943   3.942 -0.2837  0.3660  0.1348
28776W        W45623  15.183   7.428  12.894 -0.0750 -0.0788  0.3743
28777W        W45624   5.337   6.905   4.360  0.3442 -0.0841  0.1511
28778W        W45625  17.884   4.001  12.050 -0.0249 -0.2606 -0.2045
28779W        W45626   1.953  17.138   4.473  0.2436 -0.0768  0.1165
28780W        W45627  12.955  12.352  11.081  0.3187  0.4820 -0.2007
28781W        W45628   7.319   7.578   0.040  0.3055  0.3119  0.0468
28782W        W45629   2.610  12.869   4.523  0.3214  0.4627 -0.0875
28783W        W45630  18.054   5.263   4.956 -0.2762  0.1235  0.0239
28784W        W45631  18.004   2.863  11.374 -0.1598  0.1626  0.0650
28785W        W45632  12.664   6.498   2.997 -0.4278 -0.2623  0.0586
28786W        W45633   7.470  18.044   0.342  0.0900  0.0753 -0.0198
28787W        W45634  19.160  12.814   0.159 -0.0212 -0.0694  0.2988
28788W        W45635   1.348  13.535  14.151  0.0114  0.3522 -0.3500
28789W        W45636  14.366  11.005  12.173  0.2053  0.0815 -0.1126
28790W        W45637  14.848  15.871  11.873 -0.1251 -0.0843  0.0313
28791W        W45638   8.930   5.751   4.442 -0.0970  0.1181  0.1089
28792W        W45639   4.212   8.034  11.846  0.0197  0.0417 -0.2517
28793W        W45640  14.469   3.789  10.615  0.0900  0.0351 -0.2151
28794W        W45641  13.602  17.932  13.184  0.1385  0.1040 -0.2121
28795W        W45642  16.602  17.577   4.291  0.0103  0.0246  0.0708
28796W        W45643  13.488   0.618   0.101  0.1362  0.1228 -0.0263
28797W        W45644   5.974   3.351   3.597  0.5654  0.1929  0.3046
28798W        W45645   9.522   8.927  11.657 -0.1606 -0.0635 -0.0696
28799W        W45646   4.542   1.844   3.106 -0.1857 -0.0299  0.2873
28800W        W45647  13.948   3.277  12.277 -0.0906  0.0399 -0.0143
28801W        W45648  14.196  14.188   1.432 -0.1561 -0.0950 -0.0899
28802W        W45649   4.282  16.986   0.686 -0.0610 -0.2882 -0.0855
28803W        W45650   9.307   3.671   1.777  0.0111 -0.1534  0.2460
28804W        W45651   4.181  14.364  13.156  0.2461  0.0851  0.0702
28805W        W45652   8.123   8.128  10.813  0.1000  0.2395  0.0899
28806W        W45653  11.156   8.274  11.149 -0.3107 -0.1759 -0.1944
28807W        W45654  15.400  16.316  12.458  0.0881  0.0973  0.0180
28808W        W45655  14.521   2.207   5.308 -0.0235  0.1324 -0.2597
28809W        W45656   6.656  10.252   1.390  0.2175 -0.2033  0.2390
28810W        W45657  12.287  18.765  12.733  0.2809  0.0159 -0.4751
28811W        W45658   1.784   6.283  11.348 -0.0576  0.0393  0.0999
28812W        W45659   2.837   2.548   2.502  0.0686 -0.0528  0.1363
28813W        W45660   6.285  14.935   1.778  0.1340 -0.2074  0.0854
28814W        W45661  12.260   7.538  13.006  0.2786 -0.1852  0.0388
28815W        W45662   3.922   9.934   0.670  0.1861  0.3277 -0.0467
28816W        W45663   6.523  10.399  11.204 -0.0466  0.2641  0.0137
28817W        W45664  17.078  12.350   1.866 -0.1356 -0.1925  0.0509
28818W        W45665  15.508  19.308  10.812 -0.0191  0.0680  0.0036
28819W        W45666   6.394   4.958   0.077  0.3240  0.0267 -0.0735
28820W        W45667   8.252   2.544  14.136  0.2015  0.0778 -0.1833
28821W        W45668   9.622  18.428  12.124 -0.2265  0.0049  0.0761
28822W        W45669   9.485   7.527   3.837  0.2045 -0.0144 -0.0487
28823W        W45670   5.572   7.197   0.253  0.2133 -0.1027  0.2973
28824W        W45671   5.074  10.770   1.557  0.1774  0.0859 -0.1637
28825W        W45672  13.655  12.919   5.011  0.0220 -0.1203 -0.1372
28826W        W45673  16.513  11.612  10.343  0.1871  0.0189 -0.2414
28827W        W45674   2.149  13.244   3.219  0.1295 -0.0625  0.0815
28828W        W45675  10.876   8.063  10.719  0.1226  0.0226  0.0359
28829W        W45676  18.997  14.611   3.005  0.3362 -0.1264  0.0069
28830W        W45677  13.276   3.516   3.111 -0.3473  0.4011  0.0373
28831W        W45678  18.754  14.013   1.428  0.1266  0.1747 -0.2377
28832W        W45679  16.989  11.733   9.951  0.0184  0.0431  0.2182
28833W        W45680  14.163  10.212   1.222 -0.1112  0.1706  0.2184
28834W        W45681   4.080   0.064  10.270  0.1337 -0.0472  0.1525
28835W        W45682  11.263  11.172  11.791  0.0744 -0.3979  0.1695
28836W        W45683  18.218  12.652   1.098  0.0448 -0.0372  0.0416
28837W        W45684   2.736   3.396  14.566 -0.2382 -0.1428  0.1731
28838W        W45685  11.260  10.273  10.849 -0.0252 -0.3422  0.1749
28839W        W45686   0.226   2.886   3.762 -0.1333 -0.2435  0.1681
28840W        W45687  16.706  16.237   9.924 -0.1924 -0.0488  0.1701
28841W        W45688   4.363  13.156   9.510 -0.0001  0.2248 -0.2185
28842W        W45689   0.188  13.637   3.343  0.0904  0.2124 -0.1018
28843W        W45690  10.248  15.811  12.595 -0.0114 -0.1001  0.1031
28844W        W45691   7.698   6.231  11.808 -0.2202  0.2081 -0.0198
28845W        W45692  17.308  11.398   0.530  0.1669 -0.2543  0.0995
28846W        W45693   9.719  17.707   0.116 -0.2400  0.1928  0.3371
28847W        W45694   8.302   7.274  12.877 -0.1596  0.0645  0.2762
28848W        W45695   9.711   6.472   9.617 -0.0415  0.0801  0.2577
28849W        W45696   0.546  17.512   3.088 -0.2405  0.0822  0.1926
28850W        W45697   9.201  10.452   0.068  0.1565 -0.0781 -0.1731
28851W        W45698  11.093   6.427   5.301  0.2918  0.0448 -0.0137
28852W        W45699  11.403   3.627  11.196 -0.3865 -0.1183 -0.2392
28853W        W45700  18.537  11.419   4.853 -0.4536  0.0098  0.0826
28854W        W45701  13.473  14.034  10.294 -0.2054 -0.4015  0.3149
28855W        W45702  14.356  10.764   5.459 -0.1079 -0.0025 -0.0238
28856W        W45703   5.976  12.377   2.664  0.1779  0.3429 -0.7045
28857W        W45704  13.078   4.952   1.594 -0.2003 -0.1956 -0.0437
28858W        W45705   5.711   0.544  13.182  0.0326  0.1826  0.0037
28859W        W45706   7.876   0.438  10.243 -0.2983 -0.2615 -0.0648
28860W        W45707  14.940   3.642   9.948  0.0485  0.1864  0.1615
28861W        W45708   1.572  11.573   3.678 -0.0957 -0.1999 -0.1856
28862W        W45709   9.492  14.195  13.867  0.1387 -0.1543 -0.0613
28863W        W45710  14.661  15.449  12.044 -0.2843 -0.1587  0.1139
28864W        W45711   7.937  17.240  10.227 -0.2652 -0.1311 -0.2691
28865W        W45712  14.403  16.052  11.957  0.1268 -0.0774  0.1423
28866W        W45713   9.540  17.534   1.684 -0.0319  0.1895  0.0834
28867W        W45714  10.976   1.407   9.147 -0.1145  0.0701  0.3075
28868W        W45715   9.501   3.952  13.003  0.3720  0.3720  0.0395
28869W        W45716  15.686  14.444   3.822 -0.2313 -0.1674  0.1398
28870W        W45717  16.226   8.379   0.779 -0.2734  0.1746  0.2822
28871W        W45718  12.079  17.572   1.212 -0.2173 -0.1888  0.0394
28872W        W45719  12.191  12.287  13.598 -0.0511  0.1010 -0.0030
28873W        W45720   1.201  13.632  10.037  0.2850  0.0724 -0.2019
28874W        W45721  13.596  15.969   3.437  0.0679  0.1229 -0.0504
28875W        W45722  18.960  17.389  12.840  0.2025  0.0610  0.0905
28876W        W45723   9.977   1.523   3.197  0.1896  0.0706 -0.0101
28877W        W45724   3.753  18.187   2.487  0.2960  0.3062  0.0335
28878W        W45725   3.994   1.224   0.747 -0.1911  0.0464  0.0054
28879W        W45726  18.829  17.563   1.045  0.3088  0.1567  0.0749
28880W        W45727  18.136  15.325  13.349  0.1805 -0.0326  0.1879
28881W        W45728  15.397   3.208  13.530  0.1635  0.0090  0.0875
28882W        W45729   7.360  12.277  14.332  0.2206 -0.3307  0.0608
28883W        W45730   1.893   9.671   3.254 -0.1185 -0.4563  0.1656
28884W        W45731  15.067   9.800   4.361  0.1358 -0.1715 -0.2068
28885W        W45732  14.957  13.817  14.332 -0.0021  0.1862 -0.1665
28886W        W45733  16.811   9.638   2.231  0.1818  0.2402  0.2963
28887W        W45734   6.476  10.930  11.244  0.1450  0.1692  0.0182
28888W        W45735  13.573  10.713   1.329 -0.1175  0.0969  0.3582
28889W        W45736   6.201  10.246   3.979  0.0579  0.0578 -0.1322
28890W        W45737  18.365   0.286   1.083 -0.1105  0.0828  0.1037
28891W        W45738  16.285  16.182   0.101 -0.0570 -0.2312  0.1527
28892W        W45739   9.869   8.482  14.038  0.2717 -0.0569  0.1311
28893W        W45740   1.815   7.998  11.713  0.0276 -0.4510 -0.2218
28894W        W45741   9.606   7.419  12.567  0.3072 -0.0085 -0.0084
28895W        W45742   0.701  12.640   1.057 -0.0690 -0.0214  0.1054
28896W        W45743  13.227   0.846  11.853  0.0189  0.0145  0.0619
28897W        W45744  15.765  16.927   0.275 -0.0820  0.0198  0.2360
28898W        W45745  19.162  13.385  11.245  0.0510 -0.0084 -0.0247
28899W        W45746   5.502  12.897  11.529  0.0662  0.0143  0.2406
28900W        W45747   4.904  14.477   4.220 -0.0914 -0.0083  0.2922
28901W        W45748  17.489   8.363   2.874  0.0466  0.1178  0.0333
28902W        W45749   0.602   4.772   0.519  0.2821 -0.2165  0.2704
28903W        W45750   8.032  10.735  13.127  0.0467 -0.0230  0.0287
28904W        W45751   8.397  15.541   2.997 -0.0532  0.0661 -0.0679
28905W        W45752  18.784   6.091   5.542  0.4806 -0.1851  0.1298
28906W        W45753   1.783  14.430   0.388  0.1766 -0.3149  0.3347
28907W        W45754  15.016   0.924  10.414 -0.0831  0.2141  0.2080
28908W        W45755  19.088   8.945   2.225 -0.0770 -0.0923 -0.1714
28909W        W45756  15.588   1.192  11.993  0.2015 -0.3480 -0.1199
28910W        W45757  15.644  16.224   0.753  0.1041  0.0188  0.0738
28911W        W45758   9.746  10.687  11.590 -0.1996 -0.0481 -0.0912
28912W        W45759  18.866  17.556  10.706  0.1532  0.4002  0.1496
28913W        W45760   7.461  15.258   9.442 -0.2206 -0.0239 -0.1757
28914W        W45761   2.298  15.448  14.114  0.0865 -0.2413 -0.1205
28915W        W45762  17.379  16.847  10.134  0.2742  0.4378  0.1471
28916W        W45763  19.090   7.385  10.560 -0.0703 -0.1759 -0.1648
28917W        W45764   7.938   5.233   4.460 -0.2859  0.0282  0.1708
28918W        W45765   0.372  18.155   1.239 -0.2385 -0.2038  0.3811
28919W        W45766  11.808   7.624   2.422 -0.1775 -0.0254  0.1086
28920W        W45767   1.533   6.853   0.377  0.1485  0.2317  0.1369
28921W        W45768  17.012   8.252  10.862 -0.2277 -0.1006 -0.0251
28922W        W45769  16.696   0.022   1.857 -0.1437  0.2445  0.2406
28923W        W45770   2.970  14.579   4.626 -0.2362  0.1118 -0.4860
28924W        W45771   2.856  13.655   3.599  0.0899  0.2052  0.1181
28925W        W45772   2.900  18.724   0.259 -0.2946 -0.0227 -0.1230
28926W        W45773  19.280   4.839   9.937  0.0894 -0.0538 -0.0016
28927W        W45774  18.710  19.024  13.488 -0.1032  0.0861 -0.2923
28928W        W45775  11.306  13.964   0.337 -0.0071 -0.3118  0.0229
28929W        W45776  13.798  11.675  13.944  0.3371  0.0379  0.1203
28930W        W45777   7.089   3.058  11.459  0.0442  0.3093 -0.3798
28931W        W45778  16.757  17.108   0.659  0.3744 -0.2238 -0.1590
28932W        W45779   0.151   0.277   4.975 -0.0050 -0.0710 -0.1195
28933W        W45780   4.496  17.272  10.479 -0.1304 -0.2951 -0.0160
28934W        W45781   6.967   9.916  13.250  0.0482 -0.0319  0.0264
28935W        W45782   6.805  19.187   1.688  0.0934 -0.0455  0.1707
28936W        W45783   7.404  12.958   3.782  0.0403 -0.0653 -0.1152
28937W        W45784   1.715  13.550   9.863  0.3137  0.0290 -0.0809
28938W        W45785  12.526   4.747  11.276 -0.1573 -0.3074  0.1107
28939W        W45786  16.429  13.540   1.965  0.0231 -0.1436 -0.0224
28940W        W45787   6.064   9.307  11.891  0.0088  0.0631  0.2543
28941W        W45788  17.788  15.765   1.326 -0.1919 -0.1331  0.2536
28942W        W45789   2.537  18.199   3.623 -0.0665  0.1693  0.1577
28943W        W45790  15.289   1.569   0.656  0.1532 -0.0361  0.2609
28944W        W45791   4.080   4.553   1.378 -0.2225  0.1958  0.0443
28945W        W45792   6.375   2.554   4.622  0.1687 -0.2240  0.0550
28946W        W45793   8.547   1.001  12.615  0.0654  0.3785  0.1066
28947W        W45794  12.263   8.930   5.220 -0.2126 -0.0531 -0.1673
28948W        W45795   7.399   1.786  13.518  0.0137 -0.1065 -0.3462
28949W        W45796   2.887  11.561   0.536  0.2485 -0.2336  0.3130
28950W        W45797  17.169   5.103   2.285  0.3608 -0.0103  0.2973
28951W        W45798  17.945   7.441   1.579 -0.0909 -0.1028  0.4598
28952W        W45799  11.920  12.814   0.275  0.0446 -0.2706 -0.0782
28953W        W45800  12.238   3.340   2.205  0.0552  0.0360 -0.0505
28954W        W45801  17.165   5.257   4.948  0.1307  0.1420 -0.1402
28955W        W45802  18.762  17.450  13.361  0.0778 -0.0715  0.0517
28956W        W45803   8.402   9.043   3.408 -0.1483  0.3358  0.3541
28957W        W45804  16.466  13.930  11.291  0.0009 -0.1065  0.1253
28958W        W45805   5.906  15.666   1.073  0.1691 -0.2958  0.3108
28959W        W45806   0.427   2.279   9.274  0.1624 -0.2563 -0.0457
28960W        W45807  13.313   8.373   4.608 -0.4038 -0.5954  0.2972
28961W        W45808  19.287  14.972  14.334 -0.0763 -0.3190 -0.2356
28962W        W45809   9.419  19.341   3.896  0.1880  0.1101 -0.0355
28963W        W45810  15.053   6.033   0.552 -0.0985 -0.0141  0.0030
28964W        W45811  17.071  15.650   1.665  0.2478  0.3804 -0.1384
28965W        W45812   0.079  10.986  13.562 -0.2481 -0.1485 -0.1777
28966W        W45813   8.089  16.562   4.130 -0.0991 -0.2422  0.0933
28967W        W45814   0.629  16.013  11.899 -0.1096 -0.2437  0.1791
28968W        W45815  19.324  12.236   4.656  0.2346 -0.3400  0.2859
28969W        W45816   1.095   6.857  14.014  0.2069 -0.2081  0.0026
28970W        W45817   3.836  15.660   9.338  0.0348  0.1639 -0.2449
28971W        W45818  10.196   6.361  11.869 -0.1816 -0.2055  0.2554
28972W        W45819   2.416   0.312   9.327  0.0096  0.1889  0.3108
28973W        W45820  18.948   0.685  11.277 -0.1299 -0.0305 -0.1339
28974W        W45821  15.394   1.203  14.450  0.0555 -0.3164 -0.0008
28975W        W45822   9.669  12.010  10.931  0.0498 -0.0037 -0.0719
28976W        W45823   3.053   0.029  10.550 -0.0570 -0.2572 -0.2361
28977W        W45824  12.869  17.028   0.193 -0.1746 -0.2764 -0.2421
28978W        W45825  12.231   5.344   3.766  0.3487  0.1628 -0.1881
28979W        W45826   5.857   0.186   4.142 -0.0462  0.2747  0.0874
28980W        W45827   5.658   8.932  14.434 -0.2379  0.0805  0.0512
28981W        W45828  11.158  16.966  12.391  0.2867  0.0073 -0.0600
28982W        W45829  17.253  13.762   2.401  0.1298 -0.0402  0.1419
28983W        W45830  19.085  14.602   1.044 -0.1844  0.0615  0.0705
28984W        W45831   2.278   2.749  13.351 -0.2159  0.2393  0.1796
28985W        W45832  11.553  10.548   4.577  0.0814 -0.0982  0.0512
28986W        W45833  16.679   1.134  10.884 -0.0863  0.1333 -0.2192
28987W        W45834   2.965   2.198  12.962 -0.0505 -0.0359 -0.0025
28988W        W45835  18.890   8.738  14.612  0.2808 -0.1019 -0.0412
28989W        W45836   7.079   2.300   3.140  0.1245 -0.3496 -0.1053
28990W        W45837   9.688  10.080   1.742 -0.2576 -0.1343  0.0739
28991W        W45838   6.970   1.419   0.267 -0.3782  0.0740  0.4049
28992W        W45839   6.229   8.362   3.590 -0.3120  0.2216  0.0573
28993W        W45840   4.973   6.802   2.576 -0.2071 -0.0650 -0.2065
28994W        W45841  17.058   8.650   5.486 -0.1858  0.0140  0.1937
28995W        W45842   9.072  11.255   2.274 -0.0972  0.1809 -0.0178
28996W        W45843   4.593   7.074  11.569 -0.0855 -0.1148 -0.0798
28997W        W45844   6.896  10.891  12.780 -0.2203 -0.0542  0.0412
28998W        W45845  12.428   7.076   0.478  0.0033 -0.0951 -0.0446
28999W        W45846   0.904  17.362  14.191 -0.1655  0.0426 -0.0308
29000W        W45847  10.465  15.969   1.551 -0.0821  0.1986  0.1020
29001W        W45848  15.061  14.661   2.028  0.0525  0.2978 -0.0115
29002W        W45849  11.264  19.071   1.120 -0.2284 -0.2326 -0.0852
29003W        W45850   2.753   4.467   3.374 -0.1992  0.0006  0.1174
29004W        W45851  10.019   2.799  12.280 -0.3052  0.3968  0.1226
29005W        W45852  15.803   6.357  12.542  0.0867 -0.0850 -0.5489
29006W        W45853   2.452  14.883   4.063 -0.0606  0.1353 -0.1690
29007W        W45854   5.575   4.462  11.651 -0.0520 -0.3235 -0.0086
29008W        W45855  12.704  17.079  14.320 -0.2514  0.3825  0.6444
29009W        W45856  18.398  18.681   3.382 -0.3641 -0.0733  0.4014
29010W        W45857  17.576   8.008   3.240  0.3104  0.1280  0.0605
29011W        W45858  18.057  15.591   0.773  0.1783  0.1177 -0.1807
29012W        W45859   1.951   9.362  11.593 -0.0223 -0.0451  0.2707
29013W        W45860  14.880   5.690  11.989  0.2392 -0.0991 -0.1558
29014W        W45861  18.724   5.278   5.305 -0.1047  0.1512 -0.0257
29015W        W45862   0.585  16.691   1.659 -0.1027  0.1435  0.0971
29016W        W45863   3.019  12.348  14.569  0.0137  0.0417  0.0734
29017W        W45864  16.291   7.890   2.274  0.1321  0.0463 -0.0319
29018W        W45865  14.263  17.836   3.521 -0.0643 -0.2755 -0.0150
29019W        W45866   0.274   7.170  13.017 -0.0173 -0.0310  0.0604
29020W        W45867  10.500   6.156  13.344  0.0416 -0.3174  0.0989
29021W        W45868  14.875  16.019  10.223  0.2008  0.1933 -0.0412
29022W        W45869   1.201   4.308   2.805  0.1237  0.0039  0.2430
29023W        W45870   0.508   9.743   2.306 -0.2171  0.2102  0.3236
29024W        W45871  16.153   1.229  13.394  0.1146  0.0750 -0.1208
29025W        W45872   4.080  16.190   2.944  0.0111  0.1469  0.1693
29026W        W45873  10.302   1.893  13.020  0.2868  0.2209 -0.1723
29027W        W45874   8.411  11.974   1.431  0.0860 -0.0920  0.0281
29028W        W45875   0.550   1.497  14.353 -0.0476  0.0474 -0.1311
29029W        W45876   4.491   5.498  14.565 -0.1224 -0.1141  0.0177
29030W        W45877   0.574   3.648   3.515  0.0019  0.4917  0.0349
29031W        W45878  12.157  14.252   5.086 -0.1890  0.1052 -0.3534
29032W        W45879   1.219   0.966   1.616 -0.0700  0.0497 -0.0807
29033W        W45880   9.139  11.057  12.301 -0.1743 -0.2110  0.0525
29034W        W45881  15.203  17.753  12.288 -0.1115  0.1012 -0.0245
29035W        W45882  11.410  18.193   1.440  0.2357 -0.1610  0.2361
29036W        W45883  17.507   4.351   0.126  0.0062 -0.0420 -0.4665
29037W        W45884   6.728   0.072  13.476 -0.2599 -0.1431  0.4315
29038W        W45885  17.785  15.686  12.211  0.5798 -0.2187 -0.1392
29039W        W45886   6.044   6.352   9.967  0.2173  0.2044  0.1175
29040W        W45887   7.803   7.330   3.918  0.0277 -0.0520  0.1940
29041W        W45888  12.141  13.414   0.984 -0.3545 -0.0423  0.0237
29042W        W45889  14.297   9.148   4.121 -0.2456 -0.1370  0.0385
29043W        W45890  12.967  12.765   3.148 -0.1856 -0.1338 -0.0161
29044W        W45891   2.693  13.304  13.523 -0.0880 -0.1515 -0.3672
29045W        W45892  15.624   6.905   1.284  0.0444  0.0104 -0.0117
29046W        W45893  16.980  10.679   4.787  0.1573  0.0632 -0.0709
29047W        W45894   1.792  12.161  12.942  0.1360  0.2538 -0.0646
29048W        W45895  15.082   3.868   1.323 -0.1666 -0.0941 -0.2057
29049W        W45896   4.656   5.800   0.343 -0.2105 -0.0678  0.2249
29050W        W45897  12.198   4.069  13.080  0.4737 -0.0963  0.0737
29051W        W45898  14.470  10.833   2.511 -0.3199 -0.0259  0.0813
29052W        W45899   0.810   4.731  10.468  0.2145  0.0428 -0.0347
29053W        W45900  14.007   8.849  10.544  0.0862  0.0013 -0.0029
29054W        W45901   2.526  17.334  12.345  0.2539  0.0867  0.3577
29055W        W45902   9.843  14.923  12.509 -0.0519 -0.1990 -0.0787
29056W        W45903   2.886   6.452  14.533  0.0625 -0.2425 -0.0159
29057W        W45904   3.631  15.873  14.137 -0.2429 -0.4702  0.0068
29058W        W45905  18.998   5.157   2.283 -0.3846 -0.1260 -0.4266
29059W        W45906  18.078  12.348   2.398  0.2397  0.0741  0.0715
29060W        W45907   8.556   6.832   2.981 -0.0381 -0.1500 -0.0119
29061W        W45908   9.984   3.671  13.359  0.2949 -0.0826 -0.0636
29062W        W45909   2.456   0.697  12.740 -0.1747  0.0754  0.0396
29063W        W45910   4.204   2.383  10.590 -0.1341 -0.1868  0.0381
29064W        W45911   6.382  13.290   1.431  0.3518  0.0473 -0.2293
29065W        W45912  15.114  19.112  11.032  0.2112 -0.1689  0.5217
29066W        W45913   7.546  11.028  10.515  0.0808  0.0825 -0.5392
29067W        W45914   2.143  14.379  13.551 -0.3475 -0.0271 -0.2028
29068W        W45915   0.667   2.653  11.400 -0.0625 -0.0534 -0.1092
29069W        W45916  16.468   7.771  11.369  0.0782  0.0607  0.1597
29070W        W45917   2.450  12.023   2.755  0.3525  0.1470  0.2143
29071W        W45918   1.412   5.281  11.353 -0.0329  0.0924  0.1751
29072W        W45919  19.017   4.690   2.161  0.2376 -0.0848  0.2223
29073W        W45920   7.857   1.158   0.582  0.1618  0.3330 -0.1607
29074W        W45921   1.371  12.386   3.619  0.2125  0.1892 -0.0684
29075W        W45922  15.671   6.285   4.967  0.1266  0.0532  0.1006
29076W        W45923   8.019  14.408  13.347  0.3912  0.2419  0.2055
29077W        W45924  14.673   5.145   4.898 -0.1062  0.3713  0.0283
29078W        W45925   2.756  18.241   0.439 -0.1617 -0.0271  0.0570
29079W        W45926  17.006   5.667  10.235 -0.3018  0.2926 -0.0637
29080W        W45927  14.777   0.729  10.808  0.0512 -0.1075  0.1721
29081W        W45928  16.059  11.254   0.131 -0.1310  0.1581  0.0424
29082W        W45929   1.065   0.235  11.072 -0.1116 -0.0323 -0.0196
29083W        W45930   2.473  19.077  14.130  0.0814  0.3184 -0.0794
29084W        W45931   3.029  18.955   2.804  0.3430  0.3433 -0.0717
29085W        W45932  11.373   9.004   3.186  0.2301 -0.0839 -0.0956
29086W        W45933  14.609  11.517  13.804 -0.0852 -0.2547  0.4982
29087W        W45934  12.819   0.487   2.524  0.0863 -0.0327  0.1427
29088W        W45935  14.895  15.913   9.730 -0.2322  0.0208  0.1033
29089W        W45936  10.463   9.597   9.167 -0.1302 -0.2319 -0.1348
29090W        W45937   0.571   4.650  13.790 -0.0234  0.4313  0.0114
29091W        W45938  10.695  19.617   4.447  0.2732 -0.0164 -0.0249
29092W        W45939  17.923   4.437   3.110 -0.0706  0.1542 -0.0139
29093W        W45940   1.554  17.177  10.647 -0.1283  0.0564 -0.3868
29094W        W45941  15.350   3.893  10.226  0.1572 -0.0403 -0.0719
29095W        W45942  14.941   7.091   5.462  0.0333 -0.1640  0.0883
29096W        W45943  12.673  12.489  13.503  0.0709  0.0553 -0.2507
29097W        W45944  19.578  14.768  10.815 -0.0280  0.1524  0.4321
29098W        W45945   7.686  11.231   1.529  0.1772  0.3100 -0.0499
29099W        W45946  14.230   1.231   0.500 -0.2321 -0.1885 -0.3537
29100W        W45947   7.137   6.817   3.950 -0.4764 -0.5758 -0.1542
29101W        W45948   1.947  13.628  10.318 -0.0651 -0.1033 -0.1066
29102W        W45949  16.208  19.608  10.170  0.1883  0.2833  0.2621
29103W        W45950  14.645   4.631   3.869  0.0295 -0.0547 -0.0032
29104W        W45951   2.276   2.844   4.238  0.0364  0.0009 -0.2946
29105W        W45952  17.786   7.055   4.830 -0.2265  0.1731  0.0256
29106W        W45953  16.476   1.629  11.855  0.2757 -0.1401 -0.0443
29107W        W45954  13.976   8.065  13.087 -0.1967  0.1411  0.3098
29108W        W45955   5.378   7.990   4.815  0.0808  0.0011  0.2277
29109W        W45956   1.882  10.052  12.361  0.1148 -0.0764  0.2933
29110W        W45957  12.869   6.686   1.354 -0.1401 -0.2818  0.0357
29111W        W45958  14.572  11.750  11.291 -0.0150  0.2068  0.0663
29112W        W45959   1.793  15.057   4.378  0.3934 -0.1232 -0.1069
29113W        W45960  10.345   4.454   0.133 -0.0195 -0.0139  0.0183
29114W        W45961   4.606  18.992  14.125  0.3981 -0.1118 -0.0181
29115W        W45962  11.478  13.700   0.710 -0.1530  0.0413 -0.3736
29116W        W45963   5.531   2.596   3.021  0.1067 -0.1004  0.0612
29117W        W45964   5.229  14.993  13.012  0.1546  0.0363  0.1390
29118W        W45965   3.519   9.181  14.072 -0.0931 -0.0409  0.1587
29119W        W45966   9.877   1.438   8.935 -0.0314 -0.1636  0.2734
29120W        W45967  10.968   7.921   3.683 -0.1506 -0.3597  0.0971
29121W        W45968   0.278  15.115  14.226  0.2081  0.1499  0.4714
29122W        W45969  16.206   3.164   3.732 -0.0352 -0.2609  0.0150
29123W        W45970   6.396  17.350   1.805 -0.3417  0.0381 -0.1208
29124W        W45971  13.599   3.895  11.151 -0.1627  0.2730  0.0591
29125W        W45972   5.161   1.880   0.401 -0.1000  0.0185 -0.0056
29126W        W45973  13.846  18.455   4.295  0.1362 -0.1508  0.0020
29127W        W45974  19.375  15.606   0.325  0.0992  0.1952 -0.1929
29128W        W45975   7.573   3.530   3.435  0.1523 -0.0452 -0.0240
29129W        W45976  12.060  14.608   3.883  0.0508  0.0801 -0.0403
29130W        W45977  14.454   1.096  11.090 -0.2348  0.0863  0.2693
29131W        W45978  11.791   3.763  11.525  0.0453 -0.3241 -0.0671
29132W        W45979   3.365  17.249   2.796  0.0055  0.2369 -0.3140
29133W        W45980  12.391   3.425   3.493 -0.2560 -0.0660  0.0403
29134W        W45981   6.875  15.356  10.165 -0.0445  0.1364  0.0573
29135W        W45982  19.155   0.649   2.060  0.2940 -0.0825  0.2118
29136W        W45983   3.769   1.152  13.745 -0.2584 -0.1079  0.0625
29137W        W45984   9.512  11.598  13.054 -0.4361  0.0647 -0.2054
29138W        W45985  15.627   8.289  14.552  0.2537 -0.0958 -0.0964
29139W        W45986  17.198  14.376   4.446  0.1171 -0.2742  0.1818
29140W        W45987   0.367  10.812  11.717 -0.1984  0.0900 -0.3054
29141W        W45988   2.901   2.818  12.911 -0.0478 -0.3004  0.0089
29142W        W45989  10.096  17.445  13.219  0.2953 -0.0426  0.1097
29143W        W45990  17.932   6.795  11.475 -0.0799 -0.1411  0.1763
29144W        W45991   4.111   0.002  14.607 -0.0812  0.1423  0.0622
29145W        W45992  14.439   6.536   4.471 -0.2160 -0.3632 -0.0302
29146W        W45993   4.324  10.954  11.623  0.1004 -0.3543 -0.0746
29147W        W45994  11.566   1.225  11.275 -0.1759 -0.0170  0.1694
29148W        W45995  18.829   0.086  12.149 -0.0571  0.0044 -0.4637
29149W        W45996  12.528  16.301  10.631 -0.0691  0.0423 -0.0300
29150W        W45997  15.192   8.829   2.051 -0.1662 -0.1638 -0.3464
29151W        W45998   1.306   5.280   3.826  0.1854  0.1745 -0.0580
29152W        W45999   6.847  13.032  12.718  0.0042 -0.2773 -0.1503
29153W        W46000   0.086  18.337   4.496 -0.3285  0.0634  0.2505
29154W        W46001   9.710  19.502  14.084 -0.2745  0.2583 -0.1257
29155W        W46002  12.381  17.740  12.401  0.0290 -0.0885  0.0843
29156W        W46003   2.335  10.154  12.491 -0.2518 -0.0257 -0.1851
29157W        W46004  10.024  12.551   0.513 -0.0310  0.1251  0.0413
29158W        W46005  13.879  10.290  14.109 -0.0916  0.0109  0.0972
29159W        W46006  17.249  15.191  10.428  0.2173 -0.1779  0.1230
29160W        W46007   1.326   7.733  11.404 -0.1416 -0.0473  0.0229
29161W        W46008  13.409  15.239   0.978 -0.0819  0.0668 -0.0893
29162W        W46009   2.373  14.798  13.638 -0.2928 -0.0013  0.0847
29163W        W46010   2.879   9.701  14.389  0.1276 -0.2040  0.2500
29164W        W46011  10.706  19.159  12.029 -0.0464  0.3637 -0.1228
29165W        W46012  11.118   6.383  12.514 -0.0414 -0.0425 -0.2483
29166W        W46013  12.628   4.714   2.064  0.0382  0.2490 -0.2111
29167W        W46014  15.908   7.227   4.284 -0.2128  0.0975 -0.0815
29168W        W46015   2.549  17.387  11.102 -0.1722  0.1765  0.1924
29169W        W46016  12.085  13.946   2.098  0.0196  0.4380 -0.0316
29170W        W46017   7.384  16.662   1.301 -0.0745 -0.1239 -0.1144
29171W        W46018   3.654   6.190   2.918 -0.1025 -0.0848 -0.1087
29172W        W46019  11.878  18.823   0.140 -0.1066  0.1441  0.3318
29173W        W46020  18.399   8.800  14.581 -0.0658 -0.5418 -0.0645
29174W        W46021   1.305  10.905   0.100  0.2584  0.1175 -0.1144
29175W        W46022  16.084   6.922  13.226  0.1294  0.0017  0.1062
29176W        W46023   1.458  13.572  13.647  0.0187 -0.0017  0.1489
29177W        W46024   8.171  12.975  14.303 -0.1848  0.0314 -0.0926
29178W        W46025   7.279  16.725   3.477 -0.2156 -0.1370 -0.0690
29179W        W46026  11.991  14.782  11.893  0.1011  0.2266  0.1625
29180W        W46027  11.751  18.561  11.383  0.0712  0.0949 -0.2392
29181W        W46028  14.676   3.420   1.339 -0.3309 -0.0283 -0.0174
29182W        W46029  10.253  11.423   4.910 -0.4198  0.2714  0.3185
29183W        W46030  18.329   1.303   4.707  0.3152 -0.3220  0.0248
29184W        W46031   4.358  17.188   1.192  0.1919 -0.0536  0.0710
29185W        W46032  15.519  10.095   0.291 -0.1033 -0.1505  0.0094
29186W        W46033  11.947   5.834   2.393  0.3907  0.0457 -0.1429
29187W        W46034  14.426   6.098   2.176 -0.0461  0.3297 -0.0849
29188W        W46035   3.987  19.541  13.656  0.2954  0.1056  0.0499
29189W        W46036  16.703   4.791  10.428  0.6068  0.5037  0.0611
29190W        W46037  18.305  14.299  10.606 -0.4104 -0.0965  0.4149
29191W        W46038   1.587   7.275  12.668  0.0709  0.4748 -0.2487
29192W        W46039  13.515   8.518   9.336  0.2073  0.1238 -0.0627
29193W        W46040   7.737  17.142  11.502 -0.4502 -0.1879 -0.0447
29194W        W46041   1.327   4.936   2.091 -0.0117 -0.1641  0.3514
29195W        W46042  18.029   4.331   9.674 -0.0930 -0.0416 -0.2071
29196W        W46043   8.954  14.865  10.957  0.0548 -0.1986  0.1125
29197W        W46044  16.267   5.714   1.538  0.0102  0.2371 -0.1256
29198W        W46045  19.270   9.937   3.023 -0.2431  0.1278  0.1889
29199W        W46046  17.136   7.885  12.186  0.2466  0.1866  0.0742
29200W        W46047  15.546   5.235  11.089 -0.2288  0.1439  0.2302
29201W        W46048  15.828  10.652  10.976  0.3861  0.2174  0.1834
29202W        W46049  16.927   6.733   5.286 -0.1247  0.1942 -0.5619
29203W        W46050  14.497  16.301   3.239  0.0500  0.1981  0.2488
29204W        W46051   5.593   0.987  12.205 -0.0492  0.0033 -0.3459
29205W        W46052  18.807  13.285  12.652 -0.2058  0.2446  0.0917
29206W        W46053   6.752   1.515   3.569 -0.0176  0.3411  0.3128
29207W        W46054  10.189  12.715  10.455 -0.1263 -0.0293  0.2963
29208W        W46055  10.529   0.026   0.184  0.0555  0.0593 -0.1974
29209W        W46056  17.285   2.724   9.999 -0.0711 -0.0720  0.1950
29210W        W46057  18.763   2.593   0.156 -0.3160  0.0600 -0.1820
29211W        W46058  10.804  11.107  10.095 -0.0880 -0.0868  0.1899
29212W        W46059  11.742  15.774  10.836 -0.0384  0.0349  0.3421
29213W        W46060   0.637   3.994  12.906 -0.2109 -0.0061  0.1595
29214W        W46061   8.747   4.798  11.055  0.1982 -0.0110  0.5422
29215W        W46062   5.957  17.093   2.896  0.1926  0.0065  0.3108
29216W        W46063   1.506  17.346   3.701  0.4072  0.2955  0.1316
29217W        W46064   6.617   3.761   3.255 -0.0975 -0.1311  0.0581
29218W        W46065  18.897   6.070   0.472  0.0984 -0.0193  0.1806
29219W        W46066  10.574  13.294   2.457 -0.2662  0.2263  0.2610
29220W        W46067   9.620   9.138  11.006 -0.0204 -0.0092  0.0411
29221W        W46068  16.210   2.600   4.573  0.0222 -0.2865  0.2435
29222W        W46069   8.703   6.440  12.841 -0.3363 -0.0348  0.2906
29223W        W46070  10.802  12.297   2.580 -0.1240  0.1067 -0.0237
29224W        W46071   5.397  18.734   0.124 -0.0632 -0.1624 -0.1578
29225W        W46072  11.154   6.935   4.045  0.1280  0.2683 -0.3403
29226W        W46073   4.935   7.977  11.354 -0.2478  0.4624 -0.1914
29227W        W46074   7.183   6.194  13.247 -0.3943  0.0324  0.4831
29228W        W46075   4.783   1.893  14.468  0.4307  0.1147 -0.1560
29229W        W46076  12.484   6.337   3.567  0.0535  0.0762  0.2460
29230W        W46077   7.194   9.182  11.774 -0.0554  0.0796  0.0766
29231W        W46078   5.119  15.969   2.234  0.1846 -0.0109 -0.1726
29232W        W46079  19.404   5.486  13.038 -0.0477 -0.0428  0.0219
29233W        W46080  17.227  15.857   1.195 -0.2160 -0.0725 -0.1994
29234W        W46081   3.255  10.082  11.633  0.1190 -0.0818 -0.4321
29235W        W46082   5.048   6.474   1.172  0.1707  0.2408  0.0362
29236W        W46083   5.876  11.916   1.740  0.1934 -0.1240 -0.1575
29237W        W46084   6.038   1.033  11.055  0.0534 -0.2751  0.0923
29238W        W46085  16.462   6.661   4.615 -0.0392  0.2146 -0.1264
29239W        W46086  12.579   7.076   4.561 -0.1865 -0.0556 -0.0574
29240W        W46087   4.206   6.541   2.656 -0.1835  0.1304 -0.0962
29241W        W46088  18.507   1.107   1.843  0.0650  0.4977  0.0929
29242W        W46089   4.920   6.814  12.775 -0.3637 -0.2938  0.1218
29243W        W46090  18.108  15.617  10.854  0.0360  0.1227  0.0707
29244W        W46091  13.903  12.887  10.891  0.1478  0.2648 -0.1050
29245W        W46092  16.328  18.049  13.742 -0.2198  0.1443  0.1000
29246W        W46093  19.048   3.413   4.291  0.0855 -0.4615 -0.1812
29247W        W46094  14.146   2.749   2.956  0.0128  0.0827  0.2583
29248W        W46095  14.094   3.447   1.830  0.3341  0.3227  0.1875
29249W        W46096  18.150  13.599   0.624 -0.0458  0.0578 -0.2178
29250W        W46097  17.958   8.188   0.405 -0.0956  0.6058 -0.3576
29251W        W46098  13.336   6.706   4.684 -0.2119 -0.1987  0.3553
29252W        W46099  19.513  14.669  12.370 -0.0798  0.1648 -0.0425
29253W        W46100  15.864  13.932   0.089  0.0973  0.1947  0.1382
29254W        W46101   4.439   8.033  13.702 -0.0003 -0.3781  0.1255
29255W        W46102   5.625  18.023   4.436  0.0662 -0.0090  0.0929
29256W        W46103   7.311  19.479   0.529  0.0989  0.1189  0.3599
29257W        W46104  12.890  18.870   4.377  0.1852 -0.1102 -0.2256
29258W        W46105  16.378  10.309   5.662  0.2836  0.3342  0.0051
29259W        W46106   8.244   1.812   2.966  0.1457 -0.1577  0.1039
29260W        W46107   9.803  11.259  12.814 -0.0705 -0.2491  0.0235
29261W        W46108   0.050  13.912   1.315 -0.0785 -0.2772 -0.1137
29262W        W46109   0.434  16.114   0.549 -0.0213  0.0341  0.2146
29263W        W46110   2.240  19.293  14.590 -0.3171  0.1329  0.1903
29264W        W46111   0.885   5.429  11.736 -0.2940 -0.2885 -0.2059
29265W        W46112  16.151   6.109   5.045  0.2818  0.0541 -0.1581
29266W        W46113   7.522  12.106   1.019  0.3443  0.0747 -0.2728
29267W        W46114   7.364   7.776   3.327  0.0658  0.0362  0.2405
29268W        W46115   4.000  14.248   1.006  0.2038  0.3011  0.1966
29269W        W46116  11.781   7.908  11.791  0.1293  0.0642 -0.0837
29270W        W46117  10.687  10.300  11.818 -0.2472 -0.2335 -0.0496
29271W        W46118   1.992   9.085   5.045  0.2621  0.2890 -0.1131
29272W        W46119   0.282   9.469  12.224 -0.1023 -0.1032 -0.4110
29273W        W46120   5.942   5.688  13.497  0.0278 -0.1236 -0.0992
29274W        W46121  17.973  18.289   3.263  0.1809  0.1895 -0.0466
29275W        W46122  12.825  13.197  10.520  0.0776 -0.1414 -0.0664
29276W        W46123   1.552  17.215   2.665 -0.0789 -0.2694  0.1392
29277W        W46124  14.364   0.484   5.272  0.1590  0.0204 -0.3788
29278W        W46125   1.703   1.776   3.899 -0.2153 -0.0385 -0.1673
29279W        W46126  17.659   4.494  10.773 -0.0939 -0.1796  0.2660
29280W        W46127   5.291  18.915   3.830 -0.4129 -0.1950 -0.3047
29281W        W46128  10.022   8.730   3.939 -0.0311  0.1128  0.0776
29282W        W46129   8.992   1.746  13.066 -0.0926  0.0093  0.1302
29283W        W46130   1.393   3.116   0.512  0.1156 -0.0649 -0.0810
29284W        W46131  16.226   0.485  11.959  0.0757  0.0971  0.4317
29285W        W46132   4.253  10.996   1.923 -0.0089 -0.2295  0.3390
29286W        W46133  18.785   2.343  13.201 -0.1997 -0.1940  0.2181
29287W        W46134   8.385   0.020  11.774 -0.1944 -0.1477  0.0362
29288W        W46135   9.711   7.725  13.805 -0.0268  0.0769  0.2487
29289W        W46136   3.145   8.354  11.988  0.1930 -0.1478  0.1094
29290W        W46137  19.009  12.084   0.888 -0.1271  0.1865  0.2491
29291W        W46138   5.569  16.046   3.070  0.4758  0.1309  0.2847
29292W        W46139   0.812   8.367   1.800  0.1443 -0.2443  0.1305
29293W        W46140  14.748  12.485   5.397  0.0818  0.0306  0.0142
29294W        W46141   6.223   3.420   0.587 -0.1578 -0.1087  0.1365
29295W        W46142  12.428  11.351   9.736  0.1606 -0.4181  0.0233
29296W        W46143  12.456  13.023  13.473  0.2366  0.2184  0.1970
29297W        W46144  12.164  14.106   3.105 -0.1518 -0.0490 -0.0386
29298W        W46145   5.698  16.374   0.256 -0.2521  0.1382  0.2940
29299W        W46146   2.029   1.198   2.616 -0.4457  0.0924  0.1905
29300W        W46147  13.470   1.118   2.819  0.2052 -0.3288  0.0544
29301W        W46148   8.839  10.659  12.489 -0.0220 -0.2076 -0.1348
29302W        W46149   7.072  14.551   5.364 -0.1658  0.4443 -0.1164
29303W        W46150   2.365  19.529   0.890  0.2029  0.2353  0.0100
29304W        W46151  19.397   3.652  10.544 -0.1434 -0.1303  0.0395
29305W        W46152   7.829  14.281   2.339 -0.1715 -0.1113 -0.1524
29306W        W46153  11.667   3.563  13.683 -0.0699 -0.0095 -0.0200
29307W        W46154   8.207  14.555   2.611  0.0117 -0.0943  0.0638
29308W        W46155   7.156  16.047  10.945  0.0679  0.0009 -0.1508
29309W        W46156   9.810   8.841   2.339  0.2324  0.0152  0.1483
29310W        W46157   8.675   1.559   3.528  0.0545 -0.1276 -0.0696
29311W        W46158  18.924   9.238   0.886 -0.2933 -0.3092  0.3008
29312W        W46159  10.590   7.825   1.745 -0.0963 -0.0526 -0.2633
29313W        W46160  19.416  17.862   2.694 -0.3123  0.0652 -0.2181
29314W        W46161  19.349   1.656  13.826  0.0574  0.2027 -0.1920
29315W        W46162  13.296  19.317   5.182  0.1089 -0.2081 -0.1196
29316W        W46163   3.484   5.654  12.680  0.3663  0.0163  0.2211
29317W        W46164  18.550   7.216  12.548  0.3298 -0.0599 -0.0058
29318W        W46165  18.496  19.163   0.405  0.2264  0.2005  0.1056
29319W        W46166  17.472   0.641  10.920 -0.1776 -0.2960  0.0173
29320W        W46167   1.622   5.998  10.953  0.2497 -0.3952 -0.2696
29321W        W46168   1.647   4.274   1.422 -0.1387  0.2027  0.0996
29322W        W46169  14.649  16.061  12.831 -0.2591  0.2186  0.2237
29323W        W46170   5.956   9.558  10.988  0.2705 -0.2764  0.3063
29324W        W46171  16.696   3.295   0.696  0.0213  0.0135  0.4109
29325W        W46172  14.293  16.366   5.584  0.1830 -0.1683 -0.1562
29326W        W46173   1.028   7.695   2.558 -0.2645  0.1170 -0.2065
29327W        W46174   4.506  14.167  14.326  0.1270  0.0516  0.5737
29328W        W46175   5.334   1.424   3.445  0.1611 -0.2404 -0.0214
29329W        W46176  13.958   4.143  12.715 -0.3401 -0.1340 -0.1912
29330W        W46177   5.418  16.103   4.311  0.0389 -0.2986  0.0642
29331W        W46178  10.489   4.221   2.205  0.0273 -0.1055 -0.3102
29332W        W46179   2.300   0.509   3.468  0.2111 -0.3091  0.2841
29333W        W46180  18.705  19.160  10.621 -0.0143  0.0702  0.1578
29334W        W46181   7.932   5.253  13.905  0.0347 -0.0320 -0.3205
29335W        W46182  15.535   9.239   2.019  0.0753  0.2181  0.0267
29336W        W46183  13.182  11.112   4.238 -0.0302  0.0780 -0.2172
29337W        W46184   1.958   8.247  13.526  0.1375 -0.1979 -0.0214
29338W        W46185   1.880  16.697  13.712  0.0460 -0.2317  0.1378
29339W        W46186  18.682   5.462   0.924 -0.0701  0.0923 -0.0256
29340W        W46187   6.655   7.244   1.483 -0.0708 -0.1390 -0.0705
29341W        W46188  11.793  13.705   4.309 -0.1454  0.3934  0.0165
29342W        W46189  10.601  18.946   2.099 -0.0825 -0.0876 -0.3659
29343W        W46190  17.555   7.399   1.840  0.3391  0.2487 -0.1063
29344W        W46191   8.039   0.731  10.669 -0.1328  0.2725 -0.0413
29345W        W46192  14.098   1.120   4.115 -0.2007  0.3846  0.1951
29346W        W46193  10.430  16.374  13.626  0.1467 -0.1347 -0.3431
29347W        W46194  10.406  18.051  11.830  0.2161  0.1373 -0.0820
29348W        W46195   9.281  18.126   2.975 -0.1542  0.2135 -0.0516
29349W        W46196  11.506   1.038  13.109 -0.0939 -0.0456 -0.0695
29350W        W46197  13.235  13.385   3.270 -0.0191 -0.1137  0.1943
29351W        W46198   4.655  14.331   2.261  0.0087  0.1942  0.2186
29352W        W46199   7.204  12.551   4.003  0.2227  0.0456 -0.0681
29353W        W46200  13.268   2.271  12.937  0.0746 -0.1015  0.1947
29354W        W46201   2.624  15.178  11.707  0.1303  0.2646  0.1265
29355W        W46202   9.858   8.584  12.686  0.2881  0.0731 -0.0142
29356W        W46203  18.775   9.004  13.711 -0.2063 -0.0556 -0.0439
29357W        W46204   5.217  13.191   1.698  0.1696  0.0596 -0.3134
29358W        W46205   9.699   0.481   0.612 -0.0536 -0.1407  0.0023
29359W        W46206  11.604  11.647   5.192  0.0402  0.0197  0.3543
29360W        W46207  10.858  14.684   3.599  0.0658 -0.2106 -0.1767
29361W        W46208   9.943   3.202   4.148  0.0516 -0.1057 -0.0691
29362W        W46209   3.497  19.612   5.161 -0.2044  0.0864  0.0908
29363W        W46210  17.581  10.323   4.002  0.0676  0.0063 -0.0382
29364W        W46211   9.930  10.342   2.148  0.2699 -0.1066  0.1057
29365W        W46212   6.952   6.156   4.631  0.2512 -0.1785 -0.4887
29366W        W46213  16.115   8.293   1.269  0.2136  0.0332 -0.3318
29367W        W46214  12.932   1.211  12.181 -0.5007  0.0887 -0.0548
29368W        W46215  12.765   0.768   4.868 -0.1937 -0.2109  0.0636
29369W        W46216  18.142   1.212   2.183  0.1457 -0.0790  0.0089
29370W        W46217   9.883   3.252   4.643 -0.1914  0.0446 -0.1093
29371W        W46218   2.226   5.380  11.163  0.1286  0.1336 -0.0758
29372W        W46219  12.328   4.636   0.139 -0.1972 -0.2126  0.0578
29373W        W46220  18.173  17.044   9.332 -0.0699 -0.0601 -0.1950
29374W        W46221   1.725   7.860   2.291 -0.0100  0.2260  0.1028
29375W        W46222   9.171   2.817  11.442 -0.3728 -0.3251  0.0507
29376W        W46223  12.926  11.444  12.219 -0.3693 -0.0372 -0.0080
29377W        W46224  13.971  17.485  13.163  0.2996  0.0582 -0.0676
29378W        W46225   8.237   1.922   0.925 -0.4497 -0.4113  0.4688
29379W        W46226  17.445  14.342   2.312 -0.1138 -0.2813  0.1694
29380W        W46227  13.269  13.106  10.688  0.0150 -0.0867  0.2905
29381W        W46228   8.602   2.076   3.275  0.3157 -0.0782  0.0822
29382W        W46229  13.479  18.653  11.266  0.0282 -0.1394  0.1299
29383W        W46230  16.518  10.212  13.251  0.1884  0.1416  0.1043
29384W        W46231  17.689  11.858   1.254  0.1095  0.1164  0.4463
29385W        W46232   2.827  15.477  14.163 -0.0318 -0.1358 -0.4020
29386W        W46233   0.571  13.357  13.473  0.0656  0.0520 -0.1576
29387W        W46234  16.191  11.981  10.405  0.4108  0.0973  0.0274
29388W        W46235   8.290  18.708   9.265 -0.1002  0.2097  0.0378
29389W        W46236   6.845   5.429  13.550 -0.0377  0.1494  0.2429
29390W        W46237  16.487  12.157   2.590  0.1414  0.1531  0.1490
29391W        W46238  17.925  10.259   1.222 -0.2613 -0.0258  0.4030
29392W        W46239   3.529  10.490  10.716 -0.1897  0.0667 -0.1453
29393W        W46240  13.681   7.674  13.281  0.1505  0.3415  0.1884
29394W        W46241   5.933   0.839   4.738  0.3696  0.1705 -0.0679
29395W        W46242  16.476   8.320   3.547  0.0446  0.5673  0.5717
29396W        W46243   8.778  11.408   0.829 -0.3536 -0.2491  0.1758
29397W        W46244   7.944   1.859   0.072 -0.1356 -0.1791  0.2135
29398W        W46245   4.340  10.866  12.977 -0.1648 -0.0563  0.3099
29399W        W46246  17.465  19.006   1.585 -0.3145 -0.0415 -0.0468
29400W        W46247  16.420  18.553  13.792 -0.3130  0.3662 -0.1669
29401W        W46248  15.627  16.048  11.229  0.1460  0.2048 -0.2555
29402W        W46249  15.593  14.925  11.535  0.0305 -0.0418 -0.0334
29403W        W46250  11.877   5.402   4.985 -0.0416 -0.0685 -0.4187
29404W        W46251   0.750   7.136  14.450 -0.1415 -0.3138  0.1455
29405W        W46252  10.917  16.638  13.696 -0.2684 -0.1287 -0.0316
29406W        W46253  13.342  12.324  13.160  0.0212  0.0763 -0.1631
29407W        W46254  15.746   4.476   1.352 -0.0149  0.2317  0.1829
29408W        W46255   6.201  12.737  12.299 -0.0445  0.0576  0.2981
29409W        W46256  14.905  13.352  12.855  0.0725 -0.2960  0.0249
29410W        W46257  14.708   8.187   2.511 -0.4099  0.2896 -0.0143
29411W        W46258   7.234   6.075   1.765  0.1788 -0.0341 -0.2148
29412W        W46259   9.777  18.924   1.177 -0.1268 -0.0393  0.0623
29413W        W46260  15.859   7.720  12.884  0.0962  0.1742  0.2577
29414W        W46261  15.435  11.688   9.496 -0.0644  0.2692 -0.3281
29415W        W46262  19.621   2.556   9.954  0.0936  0.2134  0.0783
29416W        W46263   0.499  15.852   2.460  0.0642  0.1178  0.0484
29417W        W46264   3.474   7.550   2.490 -0.0044 -0.1433 -0.0230
29418W        W46265  14.512   7.765  11.148  0.0140 -0.0462 -0.1911
29419W        W46266   7.295   7.741   4.447  0.0876  0.0728  0.1498
29420W        W46267   2.252   4.166   3.775  0.2047 -0.0228 -0.1523
29421W        W46268  13.254   2.416   1.576  0.0313 -0.0998 -0.1452
29422W        W46269  13.155  17.633  11.592  0.2521  0.0503  0.0193
29423W        W46270  16.272   1.224   1.570 -0.0099  0.0160 -0.0245
29424W        W46271  12.741  19.176  14.328  0.0697  0.2348 -0.3144
29425W        W46272   4.758   6.711  13.827  0.1130  0.0330 -0.1291
29426W        W46273  11.852   2.761  13.124 -0.2173  0.1351 -0.1347
29427W        W46274  10.380  15.038  10.773 -0.0240 -0.4110  0.1479
29428W        W46275  13.729   5.794  14.518  0.0921 -0.0284  0.4928
29429W        W46276  15.498  17.721   1.879  0.1584 -0.1434  0.2744
29430W        W46277  17.335   8.100  10.478  0.0204 -0.1514  0.2498
29431W        W46278  12.256   4.942   2.408  0.0359 -0.0288 -0.0779
29432W        W46279  12.039  15.839  11.751  0.1821  0.1701  0.2519
29433W        W46280  10.025   0.958   1.998  0.0425  0.2685  0.4454
29434W        W46281  18.954   7.717   1.584  0.4711 -0.2505  0.0955
29435W        W46282   2.862  12.225   0.870 -0.1284  0.1560  0.1594
29436W        W46283  11.365   9.822  13.632 -0.0937  0.2842 -0.2142
29437W        W46284   9.331   4.937   4.325 -0.3041 -0.0034  0.1467
29438W        W46285   0.571  12.361   1.903 -0.0445  0.2093  0.0312
29439W        W46286   8.431  19.287   3.102  0.2894 -0.4196 -0.1314
29440W        W46287  18.846   2.666   4.687  0.2991  0.2088  0.0621
29441W        W46288   6.630   0.660  12.946 -0.1541  0.0807 -0.0504
29442W        W46289  17.350   0.107   3.714  0.0294 -0.3300  0.0341
29443W        W46290   9.067  17.726   9.648  0.2300 -0.1226  0.1688
29444W        W46291   0.861   1.868  10.726 -0.0748  0.1548  0.0625
29445W        W46292   2.924   4.723   0.937 -0.2341  0.1786 -0.2211
29446W        W46293  13.669   9.214  10.322 -0.1830 -0.0192 -0.1756
29447W        W46294   5.402  18.613  10.264  0.2317  0.0296 -0.0816
29448W        W46295   6.816  11.992   3.715 -0.1214 -0.1483 -0.0056
29449W        W46296   4.844  12.130  10.616  0.0517 -0.2598 -0.1017
29450W        W46297   9.004  14.328   4.471 -0.1551 -0.1583 -0.0993
29451W        W46298  12.321   4.605   1.479 -0.0247 -0.2709  0.0382
29452W        W46299   4.662   4.146  11.070  0.0201 -0.0902 -0.1930
29453W        W46300   5.941   0.768   2.456  0.2369  0.0500  0.1688
29454W        W46301   4.997  10.059   2.559  0.0119  0.1822 -0.2118
29455W        W46302   1.329  16.345   2.059  0.3077  0.0212 -0.1142
29456W        W46303   0.061  13.317   1.238  0.1578 -0.0570 -0.2596
29457W        W46304  14.906   4.961   4.051 -0.1345  0.2516 -0.0565
29458W        W46305   1.701   5.427   2.042 -0.1739 -0.4995  0.1635
29459W        W46306  11.151  17.640   1.610 -0.3072  0.1375 -0.0317
29460W        W46307  14.564   9.959   3.291 -0.0610  0.0965 -0.1448
29461W        W46308   9.447   2.441  11.768  0.0374 -0.0465 -0.1594
29462W        W46309   7.600  16.243   1.212  0.0144 -0.2000  0.1696
29463W        W46310  19.072  13.732  12.018  0.3656  0.1819 -0.2393
29464W        W46311   5.761  13.442  10.514  0.2138  0.2040 -0.2656
29465W        W46312   5.206  17.636   1.323 -0.0943 -0.2698  0.2912
29466W        W46313   2.618   4.653   3.867 -0.1826  0.5883  0.0464
29467W        W46314  17.788  17.319  14.289 -0.0187  0.1521  0.0567
29468W        W46315   1.204   5.326  14.109  0.4618 -0.0072 -0.0350
29469W        W46316  17.415   1.291  11.608 -0.0486  0.0339  0.2834
29470W        W46317  18.829  10.206  12.256 -0.6707  0.2256 -0.3543
29471W        W46318  17.503  14.762   0.953 -0.2849 -0.1309 -0.3711
29472W        W46319  18.986  18.210   2.924  0.1108  0.0506 -0.0568
29473W        W46320  19.245  16.743   3.663  0.0484 -0.0983 -0.0423
29474W        W46321   5.083  14.128  14.117 -0.1549 -0.4197  0.2313
29475W        W46322  19.113   3.455  12.025  0.0832  0.0336  0.0899
29476W        W46323  17.786  10.297  13.730 -0.0272 -0.2986 -0.0221
29477W        W46324  19.377   3.956   4.064 -0.0810 -0.0380  0.2875
29478W        W46325  13.758   3.200   0.369  0.2619 -0.0112 -0.0661
29479W        W46326   2.579  11.487   1.924 -0.2169  0.1826 -0.3321
29480W        W46327   3.675   2.785  11.351 -0.1026 -0.0399 -0.0147
29481W        W46328   8.548  10.773  13.202 -0.0336 -0.0334 -0.2251
29482W        W46329   3.234   8.069   1.671 -0.0446  0.0991 -0.0289
29483W        W46330  15.490   0.766  12.764 -0.1014  0.0328  0.3208
29484W        W46331  14.206  16.094   1.529 -0.1820  0.0560  0.0742
29485W        W46332   8.193  16.001  12.130 -0.1791  0.0045  0.0976
29486W        W46333   5.948   9.793   5.060 -0.0225 -0.0974 -0.3275
29487W        W46334  19.526  11.537  12.855 -0.0450  0.3283 -0.1419
29488W        W46335   9.419   8.782   3.178 -0.2131 -0.0516  0.2528
29489W        W46336  14.878  12.106   3.244 -0.1306 -0.0755  0.0425
29490W        W46337   5.181  15.281  13.950 -0.0392  0.0554  0.0516
29491W        W46338   1.667   9.114  11.962  0.0107 -0.2356 -0.1558
29492W        W46339   3.032  19.219   3.459 -0.0554  0.1981  0.2905
29493W        W46340  15.202  14.092  14.036 -0.2467 -0.0473 -0.2712
29494W        W46341  11.072   4.339  10.138  0.1457  0.0610  0.0830
29495W        W46342  14.306   2.281   2.135 -0.2021 -0.0451  0.0692
29496W        W46343   0.561  16.889  11.964  0.0718  0.1293 -0.0438
29497W        W46344  12.725   5.541   9.514  0.1151  0.0379  0.1023
29498W        W46345  17.953  12.947  12.885  0.0743  0.1212  0.0914
29499W        W46346   6.877   3.871   0.944 -0.1135 -0.0809  0.0885
29500W        W46347   2.671  16.049   1.220  0.0927  0.4781 -0.0188
29501W        W46348   9.427   7.112   0.391 -0.0482  0.0121  0.0255
29502W        W46349   8.719   3.843   0.937  0.4154  0.1885  0.3308
29503W        W46350   9.020  17.091  10.544 -0.0333 -0.3277  0.0778
29504W        W46351  16.927  17.839   1.563  0.0046 -0.0532  0.1217
29505W        W46352  13.535  19.437   2.509 -0.0178 -0.1972 -0.2215
29506W        W46353  11.233   9.843   2.588  0.1100  0.2904  0.0923
29507W        W46354  17.448  11.866  14.284 -0.1867 -0.5969  0.2128
29508W        W46355   6.459  16.496   0.250 -0.2934  0.0175  0.0995
29509W        W46356   7.868   5.000   1.021  0.1446  0.0338 -0.0124
29510W        W46357  12.330   1.885   4.668 -0.3378  0.0745  0.0463
29511W        W46358   2.744  14.610   3.157 -0.0061 -0.0299 -0.2285
29512W        W46359   3.641   0.649  13.754  0.0338 -0.0021  0.2710
29513W        W46360   8.750   9.096   0.215  0.2778  0.0719  0.2411
29514W        W46361  18.287   5.299  14.053  0.3196  0.3279 -0.0970
29515W        W46362   1.206   2.923  12.680  0.0019 -0.1398  0.3062
29516W        W46363   7.998  12.033   1.768 -0.0905 -0.0238  0.0451
29517W        W46364   7.663  18.871   1.688  0.2972 -0.0254 -0.1544
29518W        W46365   3.705   1.911   2.748  0.1655 -0.0636 -0.1564
29519W        W46366  16.644   6.603  10.449  0.1190 -0.0052 -0.1672
29520W        W46367   2.325   7.674  12.004 -0.0022  0.1795  0.0860
29521W        W46368  11.659  11.950   0.724  0.0957 -0.2804  0.0221
29522W        W46369  14.007  13.872  13.775  0.1878 -0.0877 -0.0063
29523W        W46370   2.982   7.559   1.802 -0.2790 -0.0507  0.0582
29524W        W46371  10.470   8.155   3.166  0.2816 -0.3346  0.0795
29525W        W46372   1.646  17.347  12.571 -0.0058 -0.2741  0.4054
29526W        W46373  12.699   4.667   9.403 -0.0245  0.1654 -0.1205
29527W        W46374   2.997  14.288  12.521 -0.1206 -0.1467 -0.1572
29528W        W46375  17.774  13.242   0.450  0.2090 -0.1723 -0.1352
29529W        W46376  18.216  11.601   3.106 -0.3281 -0.1205  0.4421
29530W        W46377   2.539  17.983  14.213  0.2643 -0.0875  0.1598
29531W        W46378   1.093   9.187  14.344 -0.0312  0.0503 -0.1114
29532W        W46379   4.069   9.957   2.769  0.0970 -0.0189  0.0960
29533W        W46380   0.222   1.901  11.533 -0.1072  0.1140 -0.1991
29534W        W46381   1.827  13.123   2.902  0.4898  0.1620 -0.0710
29535W        W46382  17.714  12.133  12.935  0.1213 -0.1488  0.0164
29536W        W46383  11.146   4.682   0.890 -0.0756 -0.4829  0.1833
29537W        W46384   1.589  11.368  11.309 -0.1864 -0.2502 -0.0518
29538W        W46385   7.766  10.591   4.266  0.0210 -0.3948 -0.0512
29539W        W46386   7.310   5.743  11.545 -0.1955 -0.1809  0.1632
29540W        W46387  18.323  11.993  12.825  0.1890  0.1421 -0.0296
29541W        W46388   6.937   0.226  10.387 -0.0534 -0.1898  0.2958
29542W        W46389  11.379   4.791   1.478  0.0175 -0.2596 -0.2274
29543W        W46390  12.424   5.117   4.163  0.2865  0.2093 -0.4010
29544W        W46391  13.939   1.224  11.958  0.1278  0.0890 -0.1709
29545W        W46392   8.376   1.203   1.765  0.5891  0.1185  0.1217
29546W        W46393   8.604  12.204   3.242 -0.0572  0.1265 -0.2474
29547W        W46394  12.020  12.255  12.863  0.0093 -0.4124  0.0087
29548W        W46395   3.248   9.990  12.121  0.1030  0.2130  0.1476
29549W        W46396   2.872  12.391  11.130  0.0579  0.2552 -0.0439
29550W        W46397   7.834  18.465  10.229  0.1748 -0.1754  0.0685
29551W        W46398   5.203   8.380  10.735  0.0708  0.0004 -0.0958
29552W        W46399   6.576   5.256  11.344 -0.1378 -0.0438 -0.3583
29553W        W46400   1.504   9.684   2.976 -0.2598  0.1887 -0.1712
29554W        W46401   4.466   6.870   3.698  0.0143 -0.0092 -0.0816
29555W        W46402  19.342  14.222  12.792 -0.1023  0.1158  0.0268
29556W        W46403  10.002   9.856  13.821 -0.3168 -0.1276 -0.2016
29557W        W46404   1.490  12.780   3.347  0.0535 -0.0816  0.1240
29558W        W46405  11.877   4.027   1.834  0.2109 -0.3249  0.1449
29559W        W46406  11.428   5.568   0.701 -0.1386  0.0504 -0.0416
29560W        W46407  14.724   6.981   9.912  0.1278 -0.0866  0.0841
29561W        W46408   8.906   6.109   2.788  0.0194 -0.2033  0.2789
29562W        W46409  13.758   7.152   1.848  0.0286 -0.0824 -0.1066
29563W        W46410  13.350  13.840   1.452  0.2554 -0.0969 -0.0210
29564W        W46411   1.231   7.204  13.604  0.0457 -0.2182  0.0028
29565W        W46412   6.249  18.419   4.198  0.0010 -0.1562  0.1321
29566W        W46413  15.180   9.618   3.126  0.1476  0.0602  0.3687
29567W        W46414   9.529   2.380  13.974  0.0674  0.0635 -0.2913
29568W        W46415   6.540   4.158   5.237 -0.0689 -0.3572  0.0519
29569W        W46416   3.509  18.946  10.338  0.1106 -0.3025  0.2983
29570W        W46417   4.483   0.253   4.210  0.0138 -0.0610 -0.1164
29571W        W46418   9.100   3.560   0.396 -0.0851  0.0250  0.0715
29572W        W46419  11.087  18.301   0.979 -0.2703 -0.2048  0.1417
29573W        W46420  16.987   8.373   2.624  0.3167 -0.2823 -0.1909
29574W        W46421   9.517   0.988   3.150  0.0177  0.1104 -0.0642
29575W        W46422   3.125  17.838   1.347 -0.2711  0.0227 -0.3720
29576W        W46423  11.656   1.827  10.123 -0.1026  0.3665  0.2695
29577W        W46424   4.680   7.250  11.068  0.3413  0.0122  0.0539
29578W        W46425  12.623   0.560  10.883 -0.1128 -0.0611  0.2893
29579W        W46426   1.111  11.649   1.370 -0.3788 -0.3890  0.1263
29580W        W46427   2.738  10.506   4.101  0.1591 -0.3038 -0.0410
29581W        W46428   6.996  10.814  13.334  0.0889 -0.1574 -0.3505
29582W        W46429   4.471   7.296   0.480  0.0617  0.0147  0.1307
29583W        W46430  15.698  19.516   3.847  0.2950 -0.1257 -0.1984
29584W        W46431  17.896  17.077   2.524  0.1407  0.1673  0.0391
29585W        W46432  14.095   7.482  11.966  0.0853  0.1537  0.1122
29586W        W46433  15.812  17.278   4.733  0.3563  0.3104 -0.1818
29587W        W46434   2.985   6.684   4.714 -0.3139  0.0373  0.0681
29588W        W46435   9.113   1.997  10.101  0.1244 -0.0645 -0.2516
29589W        W46436   8.827  17.405   3.975 -0.3740  0.2796 -0.1308
29590W        W46437  14.459   4.913  12.128  0.1452  0.0424  0.0853
29591W        W46438  16.431   7.433   0.597 -0.1474 -0.1724 -0.4695
29592W        W46439   4.508  11.375   2.861  0.0849 -0.0082  0.0347
29593W        W46440  12.308   0.235   0.297 -0.0622 -0.2490 -0.1101
29594W        W46441   9.394  19.506  12.692  0.1049  0.0899 -0.2905
29595W        W46442  15.334   6.591  12.274 -0.2785  0.0573 -0.1636
29596W        W46443   2.389   5.995  11.986  0.1633  0.0378  0.2443
29597W        W46444  11.411  18.340   4.128 -0.2394  0.2801 -0.0273
29598W        W46445   2.663  18.713  12.790 -0.2976 -0.1920  0.0318
29599W        W46446   7.497   9.914  10.450  0.1956  0.2799  0.1683
29600W        W46447   0.162  18.424   3.387 -0.1305 -0.2314 -0.0890
29601W        W46448   8.603  14.058   1.710 -0.1139 -0.1083 -0.0483
29602W        W46449  16.458   1.480   0.704  0.1629  0.0330  0.2613
29603W        W46450  19.165  15.481   4.007  0.0899  0.2161 -0.0246
29604W        W46451   8.300   4.043   2.530 -0.3769  0.0832 -0.0550
29605W        W46452   7.240  12.293   3.182  0.0277  0.1914  0.1604
29606W        W46453  11.705  15.119   0.880  0.1557  0.0533 -0.1057
29607W        W46454  14.966  15.586  11.287 -0.2833 -0.1047  0.1387
29608W        W46455  13.616  17.460   4.112  0.1273 -0.0547  0.0535
29609W        W46456   9.321  13.007  11.336 -0.0438  0.2470  0.0157
29610W        W46457  18.976  13.405   4.393 -0.0098  0.1427  0.0637
29611W        W46458  19.476   2.906  10.989 -0.2287 -0.0226 -0.1221
29612W        W46459   5.584   3.554  11.703  0.1739  0.0992 -0.2016
29613W        W46460   8.924   8.877   0.594 -0.2158  0.1447 -0.0689
29614W        W46461  17.948  14.567   3.931 -0.0494  0.1745  0.3318
29615W        W46462   9.914   5.274   0.957  0.2175  0.0991  0.0081
29616W        W46463   6.900  13.672   2.148 -0.2234 -0.0960  0.0664
29617W        W46464   8.311  12.220   0.442 -0.0162  0.1442  0.2024
29618W        W46465   1.960  10.091   2.898  0.0658 -0.0099 -0.2884
29619W        W46466  10.344   6.016   2.247 -0.2123 -0.1501  0.5109
29620W        W46467  17.991  10.632  13.032  0.1392 -0.4248 -0.0910
29621W        W46468  11.763   2.752  13.990  0.0685  0.3904  0.3996
29622W        W46469   9.905   2.725  12.744  0.0242 -0.0427  0.2628
29623W        W46470  19.110   6.909  12.327  0.2033 -0.2187  0.1388
29624W        W46471   7.672  18.920   3.803 -0.1533  0.2409  0.0065
29625W        W46472   3.662   8.432  13.912 -0.2204  0.1761 -0.3342
29626W        W46473  12.058  17.534   3.673  0.2072 -0.0479  0.0306
29627W        W46474   4.339  16.006  10.662  0.0851  0.4233 -0.0690
29628W        W46475  13.658  15.153   0.414 -0.1183 -0.0347  0.1271
29629W        W46476   6.002   4.705   0.219  0.1335  0.1082  0.1790
29630W        W46477   9.061   0.994  13.476 -0.4600  0.0108  0.1268
29631W        W46478   7.965  12.403  12.170  0.0771  0.2846  0.0855
29632W        W46479   2.271   8.516   2.617 -0.0476  0.0218  0.1745
29633W        W46480  13.963   0.592   4.085  0.0783 -0.1345  0.1838
29634W        W46481   6.202   5.765   4.198  0.4186 -0.4139  0.2242
29635W        W46482  11.941  18.469   3.943 -0.0395 -0.0840 -0.1256
29636W        W46483   4.213  17.275  12.736 -0.2759 -0.0200 -0.0456
29637W        W46484   5.153  11.416   0.169 -0.3477 -0.2856  0.4005
29638W        W46485  17.644  19.131   2.129  0.0688  0.2229  0.3980
29639W        W46486   8.245  10.256   5.149  0.1976 -0.1254 -0.0433
29640W        W46487   5.359   0.024   2.235  0.2503 -0.2245 -0.1607
29641W        W46488  19.399  16.550   1.241  0.2895 -0.5830 -0.0832
29642W        W46489  16.653  19.323   1.218  0.2301  0.0508 -0.2092
29643W        W46490   3.891  19.566  14.144 -0.2894 -0.0886  0.0287
29644W        W46491   4.272   2.840  10.163 -0.1681  0.1522  0.1373
29645W        W46492   7.930   8.477  10.535 -0.0851 -0.0407  0.0663
29646W        W46493   6.890   0.404  14.546  0.3364 -0.3311  0.1560
29647W        W46494  14.540   4.923   2.933  0.0737 -0.2163 -0.0167
29648W        W46495   7.396  12.706   0.235 -0.3780  0.0617  0.3224
29649W        W46496   6.705  14.822  12.086  0.0120 -0.3464 -0.0244
29650W        W46497  14.596  18.870   0.563 -0.1588  0.1821  0.0698
29651W        W46498   0.233  12.757   4.345  0.0403 -0.2978 -0.1382
29652W        W46499  15.449  17.067   1.208  0.2530 -0.2117 -0.0612
29653W        W46500   7.849   8.907   1.490  0.1028 -0.0357 -0.3015
29654W        W46501   8.448   7.199   1.567  0.2468 -0.2775  0.1710
29655W        W46502  13.686  14.793  14.072 -0.0561  0.0387 -0.0942
29656W        W46503  17.346  13.078   3.037 -0.3865  0.0329  0.0981
29657W        W46504  13.019  14.348  12.419 -0.1342  0.2326 -0.2625
29658W        W46505  17.020   3.277   2.152 -0.3942 -0.1831 -0.0259
29659W        W46506   6.928   9.548  12.080 -0.4556  0.0488 -0.1370
29660W        W46507   8.230  11.512   0.557  0.0067  0.2121 -0.0426
29661W        W46508  14.359   2.611   9.693  0.0830  0.3377 -0.2568
29662W        W46509   9.479  12.257   1.947  0.1498  0.2035  0.0938
29663W        W46510   0.435   3.925   4.731 -0.3420 -0.2558  0.0234
29664W        W46511  11.662  19.059   0.575  0.0570 -0.0989  0.0437
29665W        W46512  10.848  17.038   3.721  0.1159 -0.2665  0.2699
29666W        W46513  10.182  18.376  10.707 -0.2556 -0.1129  0.2063
29667W        W46514   8.582  14.262   4.125  0.0802  0.3184  0.1331
29668W        W46515  17.835   7.312   0.445  0.2943 -0.0505 -0.1424
29669W        W46516   6.428  11.541  13.372 -0.1602 -0.2398 -0.0075
29670W        W46517  19.560   7.067  12.595  0.2066  0.1477  0.2337
29671W        W46518  19.617   5.326  11.839 -0.0916  0.2464 -0.1094
29672W        W46519   6.263  16.609  13.491 -0.3321 -0.1215 -0.2830
29673W        W46520  10.097   6.671   3.560  0.0959 -0.0004 -0.0186
29674W        W46521   3.277  11.293   2.318  0.0250 -0.0371 -0.1902
29675W        W46522  18.272   3.097   2.388  0.0872  0.2640  0.0194
29676W        W46523   8.737   1.029  11.006  0.2541 -0.0591 -0.0157
29677W        W46524   1.314   4.741  10.577 -0.2565  0.2425 -0.1124
29678W        W46525   6.168  18.900   4.479 -0.3912 -0.2813 -0.1804
29679W        W46526  12.366  10.788   0.805  0.2235 -0.1841  0.2640
29680W        W46527  14.600   6.295   0.637 -0.2648 -0.2685 -0.0426
29681W        W46528   9.086  18.741  14.184 -0.1901 -0.1655  0.0003
29682W        W46529  10.009  15.401   2.660  0.1270  0.0123 -0.2154
29683W        W46530  10.853   2.327  11.100 -0.0376 -0.4052  0.1531
29684W        W46531  10.808  12.592   3.051 -0.0381  0.0620 -0.0513
29685W        W46532  10.701  10.063  10.700 -0.2264 -0.0042 -0.2211
29686W        W46533  14.699   9.992   4.585  0.0548  0.0484 -0.1248
29687W        W46534  18.797   0.561  10.115  0.0643 -0.0841 -0.2078
29688W        W46535   8.557  19.318  13.596  0.2213 -0.2504 -0.1000
29689W        W46536   0.227   0.712   2.904  0.0786  0.0105  0.3470
29690W        W46537  17.221  15.662  14.504 -0.2805 -0.1221  0.2365
29691W        W46538   8.074  10.360  12.203 -0.1823 -0.2185  0.2586
29692W        W46539   6.265   5.270  13.594 -0.2101  0.0854 -0.1362
29693W        W46540   0.366   9.892   5.041  0.0039  0.3873 -0.0328
29694W        W46541   4.044   5.213  10.347  0.0780  0.0434  0.1219
29695W        W46542  16.117   9.586   1.510 -0.2090  0.1180 -0.2113
29696W        W46543   4.102   5.303  13.282  0.0384  0.4008 -0.1655
29697W        W46544  11.816  19.599   2.288  0.3699 -0.1678  0.0011
29698W        W46545  18.706  17.338   2.991  0.1867  0.2013 -0.0255
29699W        W46546   4.859  16.359   3.065 -0.1915  0.2148  0.0437
29700W        W46547   2.836  18.319  10.806  0.3335  0.0067  0.0748
29701W        W46548   0.609   9.247  11.990  0.3760  0.0406  0.1805
29702W        W46549  16.175  16.905   9.791 -0.1392  0.0485 -0.0128
29703W        W46550  18.291   9.662  10.868  0.0411  0.0797 -0.2736
29704W        W46551  10.150   7.925  11.063  0.0189 -0.2598  0.2709
29705W        W46552  13.555  18.739   3.661  0.3800 -0.4779 -0.3866
29706W        W46553   8.013   2.357  14.512 -0.0303  0.2807  0.1163
29707W        W46554   8.421  19.616   2.688  0.2679  0.1290 -0.1391
29708W        W46555   1.096   1.219   4.527 -0.3859 -0.2828 -0.1912
29709W        W46556   1.679  18.587  12.361  0.3052 -0.0891 -0.2937
29710W        W46557  14.354  14.964   9.643  0.2562  0.2641 -0.1209
29711W        W46558   0.242   4.503  12.219  0.1977 -0.0497  0.4575
29712W        W46559   6.476  18.750  13.874  0.0867  0.0891  0.1421
29713W        W46560   7.708   0.037  14.122  0.0596  0.1149  0.0384
29714W        W46561  19.310   3.624  12.560 -0.0085  0.5187 -0.0868
29715W        W46562  14.357  18.945   3.987 -0.0777 -0.0863 -0.1321
29716W        W46563  17.179  12.348   3.783 -0.1728  0.1955  0.3698
29717W        W46564   3.012   7.294   3.319  0.0620 -0.3263 -0.0946
29718W        W46565  11.388   5.990   0.544  0.0298  0.2461  0.2426
29719W        W46566   2.189  15.433   2.162 -0.1788  0.0042 -0.1749
29720W        W46567  13.846   8.775  11.891 -0.1139  0.3574 -0.1070
29721W        W46568  14.348  11.180  14.278  0.1366  0.2358 -0.1178
29722W        W46569  17.712  15.155   4.742  0.1308  0.0212 -0.3833
29723W        W46570   0.528  17.293  14.476  0.4188  0.0444  0.0512
29724W        W46571  15.705  15.711   0.432 -0.0676 -0.0078  0.0637
29725W        W46572   5.477  14.119   0.693  0.3570  0.0139  0.0289
29726W        W46573  12.670   9.401   1.691 -0.1422  0.0421  0.1029
29727W        W46574   0.544   0.165  11.737  0.1653 -0.0316  0.0094
29728W        W46575   3.189   7.789   3.346 -0.2821 -0.1042  0.0396
29729W        W46576   8.830  11.000  14.016 -0.0800  0.1101 -0.1806
29730W        W46577  12.608  13.156  12.874  0.0518 -0.1783 -0.2867
29731W        W46578   3.238  11.512  12.092 -0.3238  0.1048  0.0726
29732W        W46579  19.452  18.980  14.260  0.1220 -0.0933 -0.0864
29733W        W46580   4.905  13.380   2.500  0.0886  0.0909 -0.2528
29734W        W46581  19.184  16.517   4.136 -0.1686  0.2512 -0.0048
29735W        W46582  17.452   8.174   0.614  0.1925 -0.1000 -0.2947
29736W        W46583  10.029   5.180  12.362  0.0041 -0.1749  0.0402
29737W        W46584   9.303   0.692   2.788 -0.2135  0.1483 -0.0513
29738W        W46585  13.032  17.671  13.208  0.0591  0.2342 -0.1212
29739W        W46586   9.131   3.473   5.487  0.1669  0.3867 -0.1034
29740W        W46587   1.040  13.294   3.942 -0.0199 -0.0742 -0.0930
29741W        W46588  17.317   0.819  12.371  0.3266 -0.0904 -0.4430
29742W        W46589  15.151   8.717  11.555 -0.5232  0.0999 -0.3173
29743W        W46590   9.089   8.149  10.595 -0.0093 -0.0293 -0.2951
29744W        W46591   6.188   1.888  10.541 -0.0082 -0.0512  0.0750
29745W        W46592   9.117  11.388  10.687 -0.0389 -0.1177  0.1465
29746W        W46593   3.839  15.707   2.878  0.1039  0.1877 -0.0298
29747W        W46594  12.678  14.331  13.323  0.1893  0.0489  0.0507
29748W        W46595  15.053  15.036   1.171 -0.1385  0.0829 -0.2764
29749W        W46596  16.209  15.164  13.070 -0.1830 -0.1077 -0.1693
29750W        W46597  14.938   8.799  13.129 -0.2042  0.1140 -0.2923
29751W        W46598   5.240  15.462  13.494 -0.0364 -0.1380 -0.1197
29752W        W46599   0.351  13.441  10.913 -0.3256 -0.1371 -0.0854
29753W        W46600  17.186   0.676  14.192 -0.3783  0.1078  0.2408
29754W        W46601  16.050  18.051   5.306  0.1772  0.0281 -0.2828
29755W        W46602  12.020  13.184  11.195 -0.1579  0.2694  0.1431
29756W        W46603  10.695   8.490   3.884  0.0516  0.0488 -0.0021
29757W        W46604   4.237   7.237   2.037  0.0073  0.0605 -0.1328
29758W        W46605  17.801   8.976  13.855  0.1699  0.3765  0.0472
29759W        W46606  10.791   7.286  13.008 -0.0932 -0.3608 -0.3910
29760W        W46607   2.223   4.138   3.219  0.1065  0.0849 -0.0291
29761W        W46608   3.501   9.865   1.553 -0.0882  0.0986  0.0199
29762W        W46609   6.138   3.795   3.305  0.2718  0.1557 -0.1676
29763W        W46610   5.138  13.700  11.936  0.1188 -0.1012 -0.3847
29764W        W46611  10.969   6.941  12.264  0.4352  0.0738 -0.0310
29765W        W46612  13.149  16.180   2.063 -0.1354  0.0413 -0.3900
29766W        W46613  16.203  10.974   0.697 -0.1621 -0.0432  0.1049
29767W        W46614  14.504   6.589  12.127  0.1686  0.0226 -0.1534
29768W        W46615   8.761   0.705  12.897  0.2131 -0.0748 -0.1962
29769W        W46616  18.814  12.599   1.578 -0.3731 -0.0548 -0.3066
29770W        W46617  11.413   7.621  14.005 -0.1402  0.0720 -0.2235
29771W        W46618   8.393  16.808   1.148  0.1470 -0.0833 -0.0164
29772W        W46619  16.242   6.161   2.545 -0.2496  0.0162  0.2064
29773W        W46620   3.177   8.610  13.924  0.2153 -0.5388  0.1735
29774W        W46621   2.945  12.923   4.133  0.2818 -0.0700 -0.0765
29775W        W46622   4.474  13.362   0.151  0.0096  0.1361  0.1625
29776W        W46623   6.349  12.116   9.573 -0.0263 -0.0944  0.3007
29777W        W46624  17.100   4.922   4.021  0.2018  0.3692 -0.1653
29778W        W46625   7.531   9.403   0.706  0.3516  0.1043  0.0280
29779W        W46626  18.889  19.386   2.184  0.4400 -0.2218  0.0283
29780W        W46627   7.319  13.793   1.742  0.3408  0.0054 -0.0238
29781W        W46628  16.663   9.775  11.645 -0.0458 -0.1998 -0.0013
29782W        W46629  15.854  19.138   2.431 -0.4628  0.0507 -0.0277
29783W        W46630  13.558  16.098   9.728  0.0538 -0.3415 -0.0716
29784W        W46631   3.305  16.860  13.281 -0.4868  0.1349  0.0975
29785W        W46632   3.249  17.935  12.666  0.1220 -0.0721 -0.1460
29786W        W46633  14.273  12.610  10.661 -0.2202 -0.0522 -0.0093
29787W        W46634   6.137   2.359  12.695  0.0852 -0.3542 -0.0074
29788W        W46635  12.674  19.238   9.542 -0.2621  0.3494  0.0855
29789W        W46636  16.262  10.977   4.859  0.0990 -0.2425 -0.2570
29790W        W46637   4.684   7.253   0.926  0.1042 -0.2538 -0.0995
29791W        W46638   7.159  11.331   4.774 -0.2679  0.2378  0.1586
29792W        W46639  18.664  17.877   0.108  0.0147  0.2075  0.0402
29793W        W46640   9.167  14.888  13.696  0.3656 -0.0523  0.2263
29794W        W46641   2.756  18.795   3.736  0.0227  0.2935  0.2063
29795W        W46642   5.768   9.796   2.644 -0.0153 -0.0765 -0.0147
29796W        W46643  16.934  16.055   3.545  0.1884  0.4870 -0.3059
29797W        W46644  10.520  13.816   2.893  0.5676  0.1368 -0.1750
29798W        W46645  13.254  14.211   3.972  0.1564 -0.0317 -0.2621
29799W        W46646   5.856   3.057   0.641  0.1405  0.2616  0.1393
29800W        W46647   6.372   2.236   4.036 -0.1021 -0.0626  0.0735
29801W        W46648  14.321  12.170  13.140 -0.1476  0.0164  0.0245
29802W        W46649  16.224  12.622  12.425 -0.1553 -0.0770 -0.1362
29803W        W46650  19.316  14.673   1.965 -0.0929  0.0593  0.2069
29804W        W46651   8.541   6.334  14.441 -0.4666 -0.3081 -0.0014
29805W        W46652   7.720  17.830   0.004  0.1112 -0.2206 -0.0578
29806W        W46653  11.962  14.592   3.170 -0.2865  0.2977  0.1748
29807W        W46654   3.214   7.348   3.837 -0.2007 -0.1121  0.0030
29808W        W46655  18.119   9.266   1.301  0.0274  0.0184 -0.0824
29809W        W46656  10.782   8.587  12.669  0.2519  0.2262  0.1015
29810W        W46657  13.186  14.271   1.184 -0.3375 -0.1446 -0.1888
29811W        W46658  11.885   9.385   4.186 -0.0873 -0.2542 -0.1614
29812W        W46659   0.567  13.283   1.736 -0.1227 -0.0377  0.0429
29813W        W46660  10.636  11.782   0.364 -0.4628 -0.3969 -0.4814
29814W        W46661  11.042   1.525   4.138  0.1708 -0.0418  0.1402
29815W        W46662  15.620   0.302  13.555  0.2080 -0.3766 -0.2723
29816W        W46663  12.808   2.832   1.829  0.1011  0.1708  0.0051
29817W        W46664   6.080   3.486  14.417 -0.0841 -0.1761  0.0687
29818W        W46665  18.270  15.699   9.921 -0.2713 -0.1211  0.0876
29819W        W46666   8.015  15.700   3.231 -0.0104 -0.0684 -0.0152
29820W        W46667   1.195  10.007  12.951 -0.1431 -0.0688  0.0538
29821W        W46668  17.168  10.203   3.796 -0.2097  0.2888 -0.2847
29822W        W46669  15.155   5.701  10.727  0.1911  0.2347 -0.1294
29823W        W46670   4.374  13.491   4.302  0.2237  0.1732  0.2324
29824W        W46671  17.002  13.539  10.463 -0.0321 -0.1196  0.1097
29825W        W46672  13.544   4.881  13.503  0.1496 -0.0366 -0.0975
29826W        W46673   8.457  13.217   2.121  0.0742  0.0244  0.2181
29827W        W46674   3.637   4.753   3.585 -0.0082  0.2698 -0.1489
29828W        W46675  11.647   8.366  12.887  0.2082  0.0492 -0.1798
29829W        W46676  10.111  15.711  10.955  0.0157 -0.0746 -0.2771
29830W        W46677  15.072  14.364   1.605 -0.0378 -0.2647 -0.0176
29831W        W46678  18.767   3.332  11.333 -0.0164 -0.2322  0.1785
29832W        W46679  16.768  10.387  11.267 -0.1488 -0.2080 -0.2144
29833W        W46680   5.119   2.031   1.251 -0.0137 -0.5172 -0.3183
29834W        W46681  13.263  10.652   4.302  0.0912 -0.0565  0.0740
29835W        W46682   7.280  11.635   0.269 -0.3505 -0.0190 -0.1108
29836W        W46683   5.558  16.785  14.573  0.1784  0.4557  0.2917
29837W        W46684  16.090   2.957   2.425 -0.1786  0.2853 -0.0586
29838W        W46685  12.201   8.800   0.262 -0.1097 -0.0926  0.0555
29839W        W46686   8.784   2.972   1.607  0.1575 -0.0725 -0.1369
29840W        W46687   3.215  10.603   4.357  0.0894  0.1578 -0.0423
29841W        W46688   2.286   2.114  14.170  0.0646 -0.3721  0.4312
29842W        W46689   8.404   3.886  13.805  0.1022  0.0634  0.0621
29843W        W46690   5.553   4.793   2.529  0.4381  0.2503 -0.2890
29844W        W46691   0.426   5.430   1.913  0.2859  0.1559  0.0218
29845W        W46692   1.124  11.576  12.679  0.1253  0.0673 -0.0481
29846W        W46693  14.773   8.472   1.547 -0.0510  0.0577 -0.0134
29847W        W46694  13.842  18.636  14.112  0.0879 -0.1586  0.0304
29848W        W46695  15.137  17.943   3.582 -0.2689  0.0055 -0.3186
29849W        W46696  19.477   9.195   2.484  0.0244 -0.0745  0.1119
29850W        W46697  13.718   3.214   2.123  0.0758  0.1531  0.3114
29851W        W46698   8.294   1.562   9.055 -0.1079  0.2005  0.0498
29852W        W46699   4.817   0.003   2.232 -0.0112  0.0987 -0.1969
29853W        W46700  19.008   7.315   0.064 -0.0252 -0.0440 -0.2231
29854W        W46701   1.471  18.633   4.725  0.0457 -0.1177 -0.2349
29855W        W46702  11.928  12.727  14.416  0.0287  0.0688 -0.1441
29856W        W46703  11.705   4.824  14.137  0.0973  0.0182  0.2154
29857W        W46704   6.573   5.404  10.747 -0.0532 -0.3627 -0.0587
29858W        W46705   5.194  14.387   0.342 -0.1193 -0.1174  0.0634
29859W        W46706   9.450  18.538  13.900  0.1430 -0.1404  0.1040
29860W        W46707  10.083   3.607  11.429 -0.1034 -0.1181  0.4641
29861W        W46708   7.545   9.363   1.654  0.2426 -0.0787 -0.1365
29862W        W46709  14.438   9.510  12.385 -0.0834  0.0602 -0.0052
29863W        W46710   9.849   3.833  14.251 -0.0554 -0.2595 -0.0520
29864W        W46711  11.307   0.469   3.996 -0.0044 -0.0568  0.0847
29865W        W46712   7.940  17.044   0.373 -0.0171 -0.3534 -0.0180
29866W        W46713   9.105   3.603   2.726 -0.1442  0.1834 -0.1544
29867W        W46714  13.730  17.297   4.567  0.0563 -0.0965  0.2872
29868W        W46715   6.559   3.086  14.414 -0.2331  0.0659  0.3428
29869W        W46716   7.417   8.835   4.234 -0.4354 -0.1427  0.4029
29870W        W46717   7.861   8.376   3.474  0.1994 -0.3489  0.0862
29871W        W46718   0.811   5.884  13.609  0.2438 -0.2232 -0.1618
29872W        W46719   2.291   5.401   3.897 -0.0195 -0.1780 -0.1933
29873W        W46720   7.649  17.714   4.339  0.1082 -0.0368  0.0379
29874W        W46721   8.474   8.530  10.658  0.1067  0.0524 -0.2721
29875W        W46722   6.445   7.434   3.970 -0.0004 -0.1685 -0.1123
29876W        W46723   6.146   7.622  13.814 -0.2661  0.1451 -0.0401
29877W        W46724   2.044   6.060   2.876 -0.0093 -0.1989 -0.0468
29878W        W46725   1.760  15.067  12.342  0.1222 -0.1996  0.3374
29879W        W46726   2.494  15.215  10.489  0.0354  0.0402 -0.3962
29880W        W46727  14.753  19.023  12.625 -0.1473 -0.1092  0.2861
29881W        W46728  17.839  19.142  10.790  0.0272 -0.0731 -0.0388
29882W        W46729   9.026  15.212   4.799 -0.2937 -0.0541  0.3314
29883W        W46730   4.810  11.213  13.361 -0.1591  0.0224  0.2127
29884W        W46731  19.408   1.161  14.568  0.0503  0.1392  0.3944
29885W        W46732  15.584  15.749  11.694 -0.0059 -0.0914  0.0138
29886W        W46733   9.226  18.673  13.107 -0.2796 -0.0167 -0.1544
29887W        W46734  19.465   5.771   3.468 -0.1141 -0.2889 -0.0203
29888W        W46735  10.650  17.248  13.398 -0.0158 -0.2451  0.0355
29889W        W46736   8.624  17.327  10.979  0.2739  0.1556 -0.1039
29890W        W46737   8.701  13.778   3.928  0.0638 -0.4334 -0.2763
29891W        W46738  14.431   0.656  11.278  0.1593 -0.1631 -0.1250
29892W        W46739   1.901   6.704  11.140 -0.0304  0.0707  0.4084
29893W        W46740  13.616   7.568   3.265 -0.4136  0.0438 -0.1107
29894W        W46741   3.284  14.175   4.684  0.0415  0.1542  0.3042
29895W        W46742  10.600   5.075   4.861  0.0819  0.0181 -0.0011
29896W        W46743  17.046  11.256   1.833  0.1674 -0.0883  0.1200
29897W        W46744  12.354  13.012   2.221 -0.0976  0.3001 -0.4226
29898W        W46745  12.822   5.278  12.360  0.1792 -0.0279 -0.0585
29899W        W46746   6.860  13.811   1.098  0.0112  0.1404  0.1292
29900W        W46747   4.236   7.954   0.829 -0.2778 -0.1957  0.3180
29901W        W46748   7.988   7.119  11.679 -0.1691 -0.0203 -0.1190
29902W        W46749  10.265   7.936   9.476 -0.0329 -0.2837 -0.0040
29903W        W46750  16.715   3.608  13.034 -0.1400  0.3333 -0.2004
29904W        W46751   1.548  14.255   4.812 -0.2986  0.1601 -0.4958
29905W        W46752  15.442   8.393   2.144 -0.4009  0.1036  0.3075
29906W        W46753   7.044   2.450  11.641 -0.1967  0.0480  0.0811
29907W        W46754   0.757   2.119   3.567  0.0988 -0.0004  0.4587
29908W        W46755   9.241  18.350  13.510 -0.2507  0.2145  0.1185
29909W        W46756   4.730   7.459   4.934  0.1044  0.2107  0.1707
29910W        W46757   5.189   7.056  12.393 -0.1112 -0.0858 -0.1800
29911W        W46758   4.558  14.393  10.024 -0.0092  0.1110 -0.0089
29912W        W46759   3.764  13.895   3.900 -0.0083  0.2678  0.0627
29913W        W46760  16.967  13.378  11.656 -0.2452  0.0920 -0.2750
29914W        W46761   8.316  14.331  11.682 -0.0580  0.1060  0.2813
29915W        W46762   4.759  15.872   3.661  0.0730  0.2067  0.2597
29916W        W46763   1.685   5.184   0.744  0.2798 -0.1163  0.0406
29917W        W46764   5.722   1.614   3.693  0.2901  0.2005 -0.0995
29918W        W46765  19.173  15.271   3.551 -0.1031  0.0930  0.0435
29919W        W46766  11.294   6.389   0.848  0.2256  0.0080  0.1031
29920W        W46767   5.336  10.607   4.372 -0.0477 -0.1049  0.1549
29921W        W46768   5.599   2.158   0.274 -0.0087  0.0709  0.0343
29922W        W46769   0.480  10.269  13.542  0.0153  0.0297 -0.3519
29923W        W46770  19.158  13.023  12.903  0.1508 -0.4021 -0.1083
29924W        W46771   5.254  13.236  10.646 -0.1558  0.0511  0.0368
29925W        W46772  16.644  18.911   4.530  0.0173  0.1003  0.2452
29926W        W46773  12.117   5.061   3.275  0.2617  0.2683  0.0478
29927W        W46774  16.679  14.760   3.803 -0.1247  0.0235 -0.0111
29928W        W46775   3.649  14.486   3.192  0.0911  0.1644  0.2682
29929W        W46776   4.588   4.999  10.547  0.2268  0.0027 -0.1635
29930W        W46777   7.601  14.185   0.090 -0.1347  0.1785 -0.0780
29931W        W46778  11.631  16.812   4.557 -0.1996  0.0702 -0.0756
29932W        W46779  14.655   7.405   3.202 -0.0880 -0.5042 -0.1451
29933W        W46780  10.450  18.256  12.831 -0.0197 -0.0508 -0.1531
29934W        W46781  12.142  16.007   4.920  0.0104 -0.1687  0.0217
29935W        W46782  18.698   6.247   2.178 -0.4008 -0.0966 -0.0147
29936W        W46783   8.777   7.349   1.988 -0.0556  0.0696 -0.0500
29937W        W46784   6.715  11.292   5.745  0.3250  0.0954  0.0052
29938W        W46785  18.659   1.864  11.677  0.2835  0.0535 -0.1297
29939W        W46786  13.720   6.354  11.383  0.0487  0.0917 -0.0614
29940W        W46787   3.370   7.211  12.110  0.1466 -0.1607  0.0751
29941W        W46788  13.114   6.092  12.419  0.1642  0.2189 -0.1535
29942W        W46789  17.623   8.394  13.312  0.1524  0.0199  0.0033
29943W        W46790   0.870  13.677  11.365 -0.1916  0.3307 -0.2989
29944W        W46791  10.761   3.138   3.761 -0.0209 -0.0110 -0.0810
29945W        W46792  16.567   1.949  10.951 -0.0016  0.1106 -0.2344
29946W        W46793   0.586  13.939   2.726 -0.0367  0.2141 -0.0811
29947W        W46794  10.084   2.624   2.269 -0.0396 -0.1687 -0.2163
29948W        W46795   2.179  18.849  12.759  0.0850 -0.2435  0.0296
29949W        W46796   0.392   3.533   9.697 -0.0895 -0.0681 -0.0343
29950W        W46797   3.321  11.071   1.380 -0.0791  0.0652 -0.0105
29951W        W46798  13.528   6.196   0.954 -0.1574 -0.1329  0.0016
29952W        W46799   4.208  17.329   3.633  0.4490  0.2038  0.2758
29953W        W46800   7.968   8.834   4.800 -0.0417 -0.0203  0.0853
29954W        W46801  11.168   0.590  13.158  0.0500  0.1624  0.0716
29955W        W46802   3.715   7.201  10.802 -0.1362 -0.2349  0.2859
29956W        W46803   6.548   2.754  13.993 -0.1165 -0.0049  0.0077
29957W        W46804   0.098   9.651   1.244  0.1004  0.0059  0.0317
29958W        W46805  13.048   7.145   0.119  0.1380 -0.1021  0.1367
29959W        W46806   7.832  15.215   0.383  0.0278  0.0031  0.1274
29960W        W46807   1.350   7.899  13.309 -0.0883  0.1030  0.0229
29961W        W46808   1.617  13.147  11.162  0.1845  0.1570 -0.0862
29962W        W46809   5.699   5.249   0.721  0.2570  0.2797  0.0922
29963W        W46810   6.504  13.788  11.822  0.1820  0.1143 -0.2324
29964W        W46811   2.763   6.837   2.446  0.1156  0.3148  0.0740
29965W        W46812  18.741   2.411   3.791  0.2082 -0.1407  0.2157
29966W        W46813   0.143  10.271  14.461  0.0156 -0.1511  0.1856
29967W        W46814   0.736  18.955  11.134 -0.0724  0.0249 -0.1170
29968W        W46815  13.288  16.956   3.278  0.1886 -0.1075  0.3102
29969W        W46816  10.795  11.132  11.449  0.0449 -0.3925 -0.0234
29970W        W46817  19.345  19.584   4.588  0.1801 -0.0870  0.0297
29971W        W46818  12.605  17.496   3.279 -0.0146 -0.5280  0.0004
29972W        W46819  18.918  15.974   3.417  0.0953 -0.0671 -0.0722
29973W        W46820  12.399   6.291   1.625  0.0809 -0.0302  0.1800
29974W        W46821   0.930  14.439  12.721  0.2057  0.1071  0.2156
29975W        W46822  18.641   5.972  13.309  0.4736  0.1426  0.3804
29976W        W46823  17.920  16.524  10.011  0.1172 -0.0294  0.0407
29977W        W46824  15.385  11.788  11.537 -0.0046  0.0241 -0.0317
29978W        W46825  17.692  14.169   0.271 -0.0673  0.0473  0.1831
29979W        W46826   9.225   8.748   0.994 -0.4524  0.3519 -0.3592
29980W        W46827  11.359   2.930   5.149 -0.1851  0.0467 -0.1037
29981W        W46828   5.612   2.953  14.555  0.0147  0.1068  0.0229
29982W        W46829  13.559   9.623   5.651  0.1639 -0.1018 -0.3337
29983W        W46830   9.556  16.508  12.317 -0.3638  0.0087 -0.1621
29984W        W46831   3.001  10.352   2.044 -0.0205  0.0498  0.0997
29985W        W46832  16.523   2.218  13.087  0.2793 -0.0131 -0.1955
29986W        W46833   8.207   8.545  12.477 -0.0874  0.2534  0.1132
29987W        W46834   3.797  15.337  11.155  0.2203  0.1255  0.0234
29988W        W46835  11.227  14.156   0.783  0.0567 -0.1834  0.0532
29989W        W46836   9.595  17.550   4.585 -0.0383 -0.0471 -0.1787
29990W        W46837  17.148  19.435  13.036  0.3926 -0.0445 -0.0030
29991W        W46838   8.104   2.085  11.722  0.1314  0.0017  0.4423
29992W        W46839  10.028   1.255  11.059 -0.1882 -0.0945  0.1984
29993W        W46840  11.842  19.403  14.088  0.0702 -0.0879 -0.1298
29994W        W46841   1.825   6.477   2.931 -0.0690  0.0190 -0.1899
29995W        W46842   0.093  18.803   2.542 -0.0556 -0.0516 -0.0476
29996W        W46843  14.991  12.751   4.620  0.1316  0.1996 -0.1546
29997W        W46844  17.615  18.628  10.013 -0.0860 -0.0879 -0.0864
29998W        W46845   4.020   5.076   5.279  0.3163  0.1133  0.3922
29999W        W46846   8.322   1.166  10.761 -0.0167 -0.0372  0.0194
30000W        W46847   4.160  16.170   9.268  0.1221 -0.3243 -0.1009
30001W        W46848   4.460   3.431   1.958 -0.2319  0.2949  0.2856
30002W        W46849   0.126   3.218   2.559  0.0600  0.0978  0.0750
30003W        W46850  15.213  11.395  12.780  0.1568  0.3268  0.0097
30004W        W46851   7.254  11.043  10.907 -0.2392  0.0296  0.0712
30005W        W46852  13.087  15.643   1.943  0.4705 -0.2778 -0.1708
30006W        W46853   7.856   4.264   0.954  0.0789  0.3188  0.0252
30007W        W46854   6.808   7.195  11.687 -0.1013  0.1903  0.0622
30008W        W46855  10.079   6.068   1.439 -0.4137 -0.2853 -0.2639
30009W        W46856   8.849   3.634  14.592 -0.1598 -0.2207  0.0503
30010W        W46857   9.640  15.882  10.464  0.1520 -0.1862 -0.1049
30011W        W46858  16.971   2.911   2.546  0.1121 -0.2897  0.1123
30012W        W46859   3.046   8.314   4.396  0.2480 -0.1404 -0.3149
30013W        W46860  14.531  11.797   1.504  0.0420  0.3415  0.0580
30014W        W46861  16.219   6.763  11.052 -0.2746 -0.0445  0.0417
30015W        W46862  15.043   1.462   4.849 -0.0791 -0.0724 -0.1495
30016W        W46863   7.049   9.521   1.976  0.1507 -0.1341  0.0008
30017W        W46864   9.383  10.984  13.258 -0.1646  0.2209 -0.3664
30018W        W46865  17.936  16.001   0.449  0.0135  0.0637  0.0007
30019W        W46866  19.354  15.061   4.309 -0.2616 -0.0941 -0.0444
30020W        W46867   0.904  12.030  11.162 -0.2539 -0.0680 -0.0841
30021W        W46868  19.226   3.309  13.519 -0.1003  0.3573 -0.0141
30022W        W46869   8.746  12.308  13.232 -0.3996  0.1926 -0.0107
30023W        W46870   8.075  16.819  11.611  0.1636 -0.0312  0.1793
30024W        W46871  17.558   9.662  10.692  0.1585 -0.1351  0.0566
30025W        W46872   5.187   0.075  14.478  0.1822  0.1006 -0.1638
30026W        W46873  14.201  17.102   4.633  0.0255  0.0822 -0.1698
30027W        W46874  11.585   6.328   5.249 -0.1994  0.0759 -0.0635
30028W        W46875   4.967   1.114  12.005  0.0020 -0.0917 -0.0972
30029W        W46876   0.700  11.740  13.560 -0.0940 -0.0498 -0.1830
30030W        W46877  16.774   3.349   2.552 -0.0734  0.0236  0.0481
30031W        W46878  18.772  19.002  10.053 -0.1710 -0.1333  0.0623
30032W        W46879  12.069   2.051  11.639 -0.0244 -0.1834 -0.0163
30033W        W46880   8.017   5.129   1.499  0.0038  0.0464 -0.3870
30034W        W46881   4.206  19.266   0.285 -0.0019 -0.1695  0.0466
30035W        W46882   3.099  18.825   9.969  0.2538  0.0889  0.2673
30036W        W46883  19.148  16.220  12.565 -0.0949 -0.2251 -0.5747
30037W        W46884  17.829   5.633   4.689 -0.0045 -0.0844  0.2801
30038W        W46885   2.125  11.872  12.760  0.1648 -0.1188  0.0743
30039W        W46886  18.258   5.481  14.602 -0.0066 -0.1041 -0.0365
30040W        W46887   0.797  10.765   1.464  0.1512  0.2301  0.2616
30041W        W46888   1.066  11.278  10.599  0.0406 -0.3080  0.3087
30042W        W46889   6.095   4.142   9.807  0.0399  0.0591  0.1376
30043W        W46890   5.425   1.510   4.419 -0.0638  0.3120 -0.1828
30044W        W46891   0.552   8.860   1.459  0.0458  0.0498  0.1490
30045W        W46892  13.122   6.406   0.770  0.1583  0.1248  0.2359
30046W        W46893  19.169  17.676   2.294 -0.1425 -0.2003 -0.1641
30047W        W46894  18.151  16.752  11.575  0.1477 -0.1018 -0.0317
30048W        W46895   4.830   7.302   3.716 -0.0088  0.3064 -0.0294
30049W        W46896  10.429   7.925   4.532  0.0073 -0.3459 -0.1474
30050W        W46897   4.999  10.070   1.938  0.0729  0.0376 -0.0030
30051W        W46898  10.139  18.122  14.585 -0.5210  0.1231  0.0708
30052W        W46899  15.032  14.399   2.702 -0.3684  0.0136 -0.1382
30053W        W46900   9.532  15.743  10.951 -0.0629 -0.0813 -0.0449
30054W        W46901   3.272  16.929  10.912  0.1765  0.0867 -0.0001
30055W        W46902  14.022   2.455   2.614 -0.2856  0.1922  0.3808
30056W        W46903  16.825  12.095  11.286  0.0882 -0.1259  0.0074
30057W        W46904   5.602  19.433   1.801  0.4585  0.1785 -0.0432
30058W        W46905   7.444  10.909   4.056 -0.1373  0.2534 -0.0271
30059W        W46906  11.190  18.486   2.708  0.1458 -0.1287 -0.1830
30060W        W46907  13.810   2.523  10.410  0.0823 -0.2097 -0.0070
30061W        W46908  15.997   0.767   5.310  0.3565  0.1133 -0.0739
30062W        W46909   9.470   3.631  12.602 -0.0606  0.3018 -0.2459
30063W        W46910  10.131  14.762   3.123 -0.2035  0.3193 -0.0799
30064W        W46911  18.388   8.889   2.577 -0.2459 -0.2200 -0.2202
30065W        W46912   3.499   9.289   3.706  0.0945 -0.2781 -0.0305
30066W        W46913   5.645  14.128  14.037 -0.1044  0.0376 -0.1431
30067W        W46914   7.691  12.426   3.969 -0.2128  0.0981 -0.2883
30068W        W46915  18.539  14.916  11.462  0.0173  0.0167  0.0379
30069W        W46916   7.284  17.515   9.690 -0.0052  0.2061  0.1505
30070W        W46917  15.560   9.106   0.395  0.0878 -0.3772 -0.0911
30071W        W46918  16.012   0.024   0.276 -0.0626 -0.2082 -0.0256
30072W        W46919  10.058  13.839   4.229  0.2009  0.3575  0.1179
30073W        W46920   6.349  18.926  14.389  0.0996 -0.1751  0.0606
30074W        W46921  10.191   7.468  11.367  0.1203  0.1681  0.1437
30075W        W46922  19.477   8.024  14.117 -0.0135 -0.4055 -0.0011
30076W        W46923  12.060   9.060  12.282  0.0436 -0.2915  0.1509
30077W        W46924  16.023  19.109  10.806 -0.0927  0.2569  0.0481
30078W        W46925   1.172  12.035   0.542  0.0074 -0.2147  0.0535
30079W        W46926   1.247   8.736   4.599 -0.3061 -0.1838  0.1349
30080W        W46927  14.364  19.272  14.231 -0.2599  0.3253  0.3476
30081W        W46928   3.797   6.722  12.235 -0.1061 -0.1578  0.0868
30082W        W46929   8.729   8.938  11.107 -0.1396 -0.3009 -0.0519
30083W        W46930   2.454   5.214   4.620  0.0103  0.0173 -0.1001
30084W        W46931   4.923   7.475  11.531 -0.0146  0.2934  0.1275
30085W        W46932   1.021   9.319   3.577 -0.0136 -0.1627 -0.2638
30086W        W46933   2.833   1.693   1.157 -0.0120  0.1154 -0.2754
30087W        W46934  13.890   2.898  14.213  0.0660 -0.0122  0.0182
30088W        W46935  12.507  10.404   1.210  0.0195  0.2423 -0.3393
30089W        W46936  11.130   0.729  12.587  0.1526 -0.1742 -0.0492
30090W        W46937   2.952   0.009   0.037  0.0853  0.4488  0.0699
30091W        W46938   3.405  16.190   2.049 -0.1021 -0.2049 -0.0734
30092W        W46939  11.575   9.631  10.220  0.2428 -0.0261 -0.1575
30093W        W46940  16.496  15.129   1.087 -0.2330  0.1463 -0.5738
30094W        W46941  12.916  18.181  13.942  0.0308  0.0064  0.4049
30095W        W46942   9.575  10.801   4.298  0.0589 -0.3010  0.2151
30096W        W46943   4.327   0.344   1.406  0.1034 -0.0873  0.0579
30097W        W46944  17.660   4.699  13.043  0.3035  0.0205  0.1708
30098W        W46945  11.638   4.200   3.470 -0.0460 -0.0277  0.0151
30099W        W46946  11.805  13.330   2.820  0.0176  0.1040 -0.4093
30100W        W46947  11.273   2.523   1.901  0.1460  0.0715 -0.1063
30101W        W46948   5.314   0.615  10.462  0.0471  0.0553  0.1265
30102W        W46949  19.487   8.257  10.784  0.0052 -0.1323 -0.2458
30103W        W46950  13.981  17.003   2.658 -0.0377 -0.2400  0.1339
30104W        W46951   1.674  18.083  13.783 -0.1211 -0.0087  0.3318
30105W        W46952  14.498   4.223   4.192  0.0874 -0.1479 -0.0674
30106W        W46953  10.105  16.328  13.173 -0.0361 -0.0171  0.2406
30107W        W46954  16.543  11.300   2.005  0.0432 -0.1456  0.2676
30108W        W46955   9.025  13.733   4.367 -0.0439 -0.2953  0.0989
30109W        W46956   0.143   8.118   4.399  0.0579  0.1466 -0.0334
30110W        W46957   4.200  18.643  10.638 -0.0337 -0.0308  0.0254
30111W        W46958  18.008  11.459   2.165 -0.0903 -0.0423 -0.0163
30112W        W46959  18.209  16.842   2.977 -0.1823  0.1560 -0.3088
30113W        W46960   8.007  15.516  14.321  0.0261  0.0891 -0.3990
30114W        W46961  10.401  11.064   9.222  0.0364 -0.1451  0.3820
30115W        W46962   9.424   3.629  12.056 -0.1679  0.0369 -0.3265
30116W        W46963   5.773   4.118  13.972  0.1008  0.0553 -0.0803
30117W        W46964  13.621  13.864   9.850  0.1564 -0.4726  0.0822
30118W        W46965   3.665  13.629   4.476  0.1179  0.1883 -0.2812
30119W        W46966  18.612   5.183   1.525 -0.0668  0.3509  0.0641
30120W        W46967   8.724  12.832  11.407 -0.1397  0.2273 -0.0039
30121W        W46968  17.285   3.485  11.364  0.1893  0.0807 -0.1044
30122W        W46969   0.626   2.580  11.969 -0.0826  0.1479  0.0185
30123W        W46970   7.686  16.045  12.253 -0.1767  0.1981  0.2803
30124W        W46971  13.693  11.158   9.976  0.2245 -0.4755  0.0639
30125W        W46972   1.804   4.799   2.580 -0.0792  0.0533 -0.1773
30126W        W46973  14.017  17.279   0.007  0.0660  0.0373 -0.0239
30127W        W46974  11.124  14.886   3.184  0.0464  0.0449  0.2602
30128W        W46975  16.868  15.553   2.760  0.2654 -0.1148  0.0761
30129W        W46976  11.208  11.457  10.836  0.0358 -0.0900 -0.0090
30130W        W46977  10.482   4.628   3.740  0.1379  0.0575 -0.1169
30131W        W46978  14.702   0.441   4.879 -0.0394  0.3963  0.0115
30132W        W46979   2.924   1.553   2.743  0.1681 -0.0409 -0.2037
30133W        W46980  11.262   8.428  13.592 -0.0862  0.0106 -0.2549
30134W        W46981   0.668   0.299  13.999  0.1605 -0.0651 -0.1471
30135W        W46982   0.556  16.375   2.477 -0.3097 -0.2046 -0.1343
30136W        W46983  12.696  11.961   5.420  0.0930  0.2015 -0.2208
30137W        W46984   7.959  18.234   5.010 -0.1286  0.1825  0.0755
30138W        W46985   0.019   0.851  10.631 -0.1715  0.2727 -0.0112
30139W        W46986   5.935   6.432  12.185 -0.2327  0.1422  0.1601
30140W        W46987   2.763   2.836  11.723 -0.0483  0.0510  0.0293
30141W        W46988  14.455   3.821  12.866  0.2781 -0.1120 -0.1523
30142W        W46989  10.993  14.574   0.012 -0.0208  0.0245  0.2209
30143W        W46990  19.578   5.889   4.141  0.4389 -0.0571 -0.5840
30144W        W46991   6.207  10.799  10.438 -0.0599 -0.0821 -0.0343
30145W        W46992  17.386  17.904   1.714 -0.2104  0.0947  0.0527
30146W        W46993   6.337   5.206   1.617 -0.0522  0.0844 -0.2314
30147W        W46994   9.634   8.298  12.256 -0.1301  0.1356  0.0387
30148W        W46995   2.910  16.608   0.104  0.3403  0.0039  0.3219
30149W        W46996   5.582   8.102  10.948  0.0122  0.1057  0.0609
30150W        W46997  15.391   5.086   9.431 -0.2341  0.0459 -0.3381
30151W        W46998  10.214  12.316  14.249 -0.1455 -0.0892 -0.1955
30152W        W46999  10.535   9.443  12.322  0.3470  0.1856 -0.1425
30153W        W47000   2.741   9.017   1.476  0.1270 -0.3295  0.0496
30154W        W47001   6.870   6.814   2.364  0.4852 -0.2025  0.0135
30155W        W47002  17.992   2.757   4.436  0.2113  0.3621 -0.0083
30156W        W47003   2.663   4.331  13.450 -0.0256  0.2757  0.0810
30157W        W47004   2.592  17.878   2.774  0.2244 -0.2129 -0.0010
30158W        W47005  17.825  15.368  13.824 -0.0592 -0.0954  0.0916
30159W        W47006  19.424  12.396  11.221 -0.1052 -0.1317 -0.1633
30160W        W47007  17.586   7.533   5.598  0.0681 -0.2234  0.0057
30161W        W47008  10.577   9.952  12.254 -0.0149 -0.0978 -0.0463
30162W        W47009  10.123  18.539   2.578  0.3352  0.2755  0.0434
30163W        W47010  14.510  14.490   0.085 -0.1579  0.2746  0.1348
30164W        W47011   8.594  14.981   4.938  0.1536 -0.0683  0.1096
30165W        W47012   9.064   5.134   1.580 -0.0470  0.0835 -0.0421
30166W        W47013   6.599   9.224  11.897 -0.0877  0.1115  0.3046
30167W        W47014  10.911  14.984   4.075  0.2640  0.0941 -0.0838
30168W        W47015  13.820  13.762  12.223  0.1598 -0.3108  0.1156
30169W        W47016   0.898  13.589   0.238  0.1170  0.0922  0.2469
30170W        W47017   4.850   8.767  12.868  0.0821  0.0066  0.0493
30171W        W47018  17.665   8.372  10.717  0.0449  0.0483  0.0641
30172W        W47019   5.729   9.945   1.902 -0.4097  0.0417 -0.0994
30173W        W47020  15.899   6.645   4.520  0.1891  0.1808  0.0010
30174W        W47021   9.167   6.540  13.686  0.0118  0.0632  0.1215
30175W        W47022   7.547  10.558   3.192  0.0022  0.0890 -0.2964
30176W        W47023  16.383  14.504  12.984  0.0214 -0.2350 -0.0423
30177W        W47024   9.082   9.139   2.359  0.0533  0.2596  0.4603
30178W        W47025   6.366  15.396   3.899  0.0193 -0.1333  0.0466
30179W        W47026  12.567  13.501   1.333  0.0163  0.1571  0.3356
30180W        W47027  16.392   3.979   5.276  0.0431 -0.2275 -0.0527
30181W        W47028  12.071  19.469   2.930  0.2281 -0.1410  0.2182
30182W        W47029   0.050  16.853   5.288  0.2019  0.1107 -0.1008
30183W        W47030   5.579   6.285   1.286 -0.0723 -0.1615 -0.1527
30184W        W47031  11.227  12.092  11.804  0.0523  0.0440 -0.0765
30185W        W47032  12.274   5.567   0.713 -0.0494  0.0582  0.1499
30186W        W47033  15.540   3.645  11.164  0.0300 -0.1637 -0.0291
30187W        W47034   2.818  11.087  12.629  0.0241 -0.0292  0.1605
30188W        W47035   4.961  15.774  12.214 -0.0792 -0.2788 -0.0106
30189W        W47036  15.769   0.468   0.395  0.2596 -0.2292 -0.0986
30190W        W47037  12.535   1.996   9.984  0.0952  0.3378 -0.1085
30191W        W47038   0.460  15.932   4.221  0.0629  0.4388 -0.0420
30192W        W47039  18.375  17.193   1.733  0.2149  0.1626  0.4585
30193W        W47040   7.067   4.430   2.542  0.0861  0.1139  0.3737
30194W        W47041  13.218  18.078  10.046 -0.4967  0.0412  0.0477
30195W        W47042   4.883   2.749   4.571  0.2463  0.0364  0.2630
30196W        W47043  16.029   8.027  11.009 -0.1170  0.1596  0.0705
30197W        W47044   9.239  10.820   9.672 -0.1559  0.0692 -0.0971
30198W        W47045   8.965   6.582   0.932 -0.2445  0.1722  0.2363
30199W        W47046  10.673  10.717  11.258  0.2300 -0.1260  0.1632
30200W        W47047   2.900  13.795   1.215  0.2065  0.1439  0.4197
30201W        W47048   5.961   2.220   0.618 -0.0128  0.5902  0.1825
30202W        W47049  16.147   1.603  13.809 -0.1060  0.1577  0.0339
30203W        W47050  15.429   3.239   4.803 -0.1566  0.1958 -0.0670
30204W        W47051  13.561  11.047   3.095  0.1270  0.3314  0.1148
30205W        W47052  12.925   6.981  12.857  0.0862 -0.0861 -0.2455
30206W        W47053   0.407   0.693   0.083  0.1463 -0.0638  0.0124
30207W        W47054   7.785  19.297  14.548 -0.3593  0.1081  0.0428
30208W        W47055   6.932  19.102  14.381 -0.2535 -0.3259 -0.0001
30209W        W47056  18.036   9.118   3.617  0.1132  0.0947  0.0884
30210W        W47057   2.771   1.041   3.384  0.2059 -0.0783  0.2148
30211W        W47058  17.381  19.538  12.125 -0.0149 -0.4855  0.4540
30212W        W47059  10.433  16.285   5.629  0.2869 -0.1032  0.2483
30213W        W47060  15.251  18.217  14.527 -0.2171 -0.2932  0.0143
30214W        W47061  17.058   4.596  14.566  0.0514  0.1337  0.3127
30215W        W47062   6.016   5.020  11.796  0.1269 -0.1665  0.0001
30216W        W47063   1.364   9.462  13.006 -0.1989  0.1784 -0.1830
30217W        W47064  16.814   4.939   3.089 -0.1777 -0.5616  0.0113
30218W        W47065  13.199   2.087   9.725  0.1127 -0.2378  0.1557
30219W        W47066  11.018  17.920  10.734  0.1680 -0.2355  0.1369
30220W        W47067   4.615  18.885   4.322 -0.0489  0.0320 -0.1801
30221W        W47068   9.904  14.169   0.743 -0.5425  0.0218  0.0604
30222W        W47069   0.237   6.907   1.865  0.2518  0.0152  0.1670
30223W        W47070  19.413   8.787  11.880  0.0307  0.1046  0.0408
30224W        W47071   5.909   2.447  14.566  0.0906  0.1063 -0.2699
30225W        W47072   2.484   1.532   1.401  0.2352  0.1511 -0.1112
30226W        W47073  19.543   5.929   1.114  0.0824 -0.0201 -0.3453
30227W        W47074  17.158  11.149  13.749  0.0474  0.0787 -0.1698
30228W        W47075   8.830   4.179  11.002  0.0275  0.1660 -0.0735
30229W        W47076   8.175  18.946  11.805  0.1209 -0.2900 -0.0389
30230W        W47077  15.670  11.827  13.692  0.2742 -0.2195  0.0407
30231W        W47078  13.241   2.466  14.052  0.0325  0.1390  0.0717
30232W        W47079  17.497   4.032   4.051 -0.1454  0.0415 -0.2178
30233W        W47080  12.538  16.074  14.008 -0.1710  0.2139  0.0093
30234W        W47081  18.532  11.539  12.847 -0.2615  0.0285 -0.0980
30235W        W47082  14.067  12.279  13.567  0.3217  0.0352 -0.0850
30236W        W47083  15.814  16.910   2.048  0.1805  0.1788  0.1359
30237W        W47084  14.671  15.762  12.415  0.1059 -0.2595 -0.1110
30238W        W47085   3.117  14.846   2.104  0.2548  0.2657  0.0046
30239W        W47086  14.697  13.921  12.175  0.2518 -0.0191  0.1137
30240W        W47087   7.131   0.902   1.674  0.0128 -0.1995 -0.0597
30241W        W47088  16.086   8.474   5.653  0.4188  0.0065 -0.2380
30242W        W47089   9.763  14.522   2.204  0.2556 -0.2720  0.0277
30243W        W47090   9.280  18.181  10.504  0.1377  0.3653 -0.0316
30244W        W47091   2.542   8.587   2.180  0.1354  0.0486 -0.1995
30245W        W47092   6.021   6.680  14.564 -0.0637 -0.2726  0.0619
30246W        W47093   7.155   1.288  14.439 -0.0914 -0.2122 -0.0605
30247W        W47094   8.053   0.390   2.040  0.2520  0.3316  0.0278
30248W        W47095  16.879  10.984   2.976  0.3747 -0.3391  0.0128
30249W        W47096  10.475  17.045  10.823  0.0688  0.0388 -0.0586
30250W        W47097  16.165  10.399   0.296  0.1557  0.4350  0.1289
30251W        W47098   7.470   6.993   4.800 -0.1844  0.1706  0.0646
30252W        W47099  13.388  18.113   3.345 -0.1641  0.0232  0.1581
30253W        W47100  13.360   7.125   4.152 -0.0531 -0.2796 -0.4950
30254W        W47101   3.116   6.534   1.567 -0.0361  0.1184  0.0756
30255W        W47102   7.363  11.962  10.250 -0.2332 -0.1649 -0.2232
30256W        W47103   0.122  10.617   1.576 -0.0062  0.0143  0.0257
30257W        W47104  11.332   5.316   1.615  0.0403  0.1375 -0.0673
30258W        W47105   1.961  10.168   1.436  0.1797 -0.1965  0.2860
30259W        W47106  18.125   7.516  13.427  0.1303 -0.1167 -0.0476
30260W        W47107  10.506   8.962   0.480 -0.3051  0.1020  0.1360
30261W        W47108  18.827  14.157  12.726 -0.0043  0.0157  0.1293
30262W        W47109   1.859  18.503   2.304  0.0421  0.4892 -0.0513
30263W        W47110  19.365   5.539   1.564  0.0937  0.0475 -0.2847
30264W        W47111   4.659  18.759   2.731  0.0243 -0.2353  0.0105
30265W        W47112  17.304   5.438   4.058 -0.0919 -0.0971  0.0342
30266W        W47113   6.877   8.905   4.345  0.0651 -0.1821 -0.0254
30267W        W47114  18.187   1.693  13.004  0.1758 -0.2521  0.1128
30268W        W47115   6.310   0.575   3.546 -0.0118 -0.0043  0.5648
30269W        W47116  11.563   0.151  14.313  0.1036  0.0381  0.0806
30270W        W47117  16.940  14.896  14.072  0.0995  0.0111  0.1595
30271W        W47118   7.488  17.526   0.382  0.1758 -0.3637  0.4957
30272W        W47119   6.443   0.733   1.714  0.0191  0.0204 -0.2020
30273W        W47120   3.388  12.404   1.358  0.0661 -0.0666 -0.0603
30274W        W47121  15.443  10.120   1.961  0.3098  0.0607  0.3176
30275W        W47122   0.971  17.056  11.505 -0.2106 -0.2167  0.1919
30276W        W47123   0.158   7.951  12.104 -0.3231  0.0255  0.2426
30277W        W47124   7.132   4.281  12.478 -0.1035  0.2538  0.1572
30278W        W47125   8.874   0.201  14.198  0.1750 -0.2249 -0.0143
30279W        W47126  15.971   1.767  11.617  0.0666 -0.0558  0.1777
30280W        W47127   4.598  12.090   1.281  0.2849 -0.4140 -0.3154
30281W        W47128  12.616   8.834   3.639  0.0869 -0.0390  0.1177
30282W        W47129  11.600   6.940   0.003  0.1863  0.1963 -0.0864
30283W        W47130  15.345   0.655  12.251  0.2037  0.0576  0.1530
30284W        W47131  19.146   5.359  11.515  0.1055 -0.2697 -0.1146
30285W        W47132  16.144  10.333  12.857  0.3435  0.0017  0.4244
30286W        W47133   8.978   4.003   0.265 -0.0980  0.1252 -0.1060
30287W        W47134   1.001   3.926   3.150  0.0322  0.2698  0.2371
30288W        W47135  10.246  13.094   3.725 -0.0104  0.2656  0.3815
30289W        W47136   7.284  18.498  12.904 -0.0489 -0.0724  0.0265
30290W        W47137   1.478  13.124  13.290 -0.2651  0.1249 -0.0056
30291W        W47138   3.852   7.129  13.784  0.0852  0.1576  0.1648
30292W        W47139   6.100   7.116   0.170  0.4025  0.1880  0.0769
30293W        W47140   6.968   0.660   1.240  0.1919 -0.1131  0.1955
30294W        W47141   3.939  16.444  12.890  0.3444 -0.0636  0.0753
30295W        W47142  15.459  11.212  13.529 -0.0561  0.0117  0.1419
30296W        W47143   6.277  10.975   4.636 -0.2753  0.1817 -0.2132
30297W        W47144   3.639  18.199  11.411 -0.0943  0.0174 -0.3204
30298W        W47145   1.714  17.620   2.373  0.1696  0.2764  0.0391
30299W        W47146   8.767  15.991   3.994  0.1383  0.0647 -0.2832
30300W        W47147   3.468   2.555   1.877  0.1995  0.1343  0.1082
30301W        W47148   5.755  13.086  11.953  0.2539 -0.2480 -0.0509
30302W        W47149   8.055   4.702  11.901  0.2261 -0.3631  0.2822
30303W        W47150   6.327   3.721   2.829  0.1842  0.0348  0.1503
30304W        W47151  10.885  12.450  11.963  0.4028 -0.4384  0.0136
30305W        W47152   5.365  11.824  13.589 -0.1622 -0.0499  0.2017
30306W        W47153   3.410  15.408  12.160  0.1049 -0.2198  0.2266
30307W        W47154  12.191   4.909  11.730 -0.1880 -0.0052 -0.2420
30308W        W47155  11.430   3.762  13.238 -0.1420 -0.2011  0.3897
30309W        W47156   5.526   6.845  11.908 -0.1044  0.2073 -0.1602
30310W        W47157   5.136   1.137  10.943  0.2472 -0.2230 -0.0349
30311W        W47158  12.429   9.950   3.034 -0.0295  0.0960  0.3800
30312W        W47159  13.380  11.985   2.184 -0.1412  0.0068 -0.3808
30313W        W47160   6.068   5.503   9.804 -0.1009 -0.1991 -0.2040
30314W        W47161   2.491   5.181  13.275 -0.1503 -0.0063  0.1781
30315W        W47162   3.000   2.309  13.715 -0.1449  0.0660  0.2969
30316W        W47163  10.917  15.410   2.233  0.1872  0.2604  0.2827
30317W        W47164  10.322  16.252  12.253  0.0930 -0.0259  0.1386
30318W        W47165   4.092  12.899   4.653  0.0144  0.2649 -0.2003
30319W        W47166  17.049   6.805   0.550 -0.1714 -0.0462 -0.1785
30320W        W47167   1.650   2.881   3.398  0.1205 -0.1321  0.0447
30321W        W47168  14.516   9.092   0.882  0.4201 -0.1536 -0.2198
30322W        W47169  16.455  10.870   0.178 -0.4667 -0.0609  0.3037
30323W        W47170   2.416   9.684  13.484  0.0795 -0.3684  0.0079
30324W        W47171   8.981   3.125  10.686  0.3244 -0.0369 -0.1531
30325W        W47172  17.125   5.932   5.161 -0.2182 -0.1193  0.1468
30326W        W47173  15.611   4.172  11.654  0.0144 -0.1578  0.0593
30327W        W47174   3.478  15.627  11.415 -0.0340  0.1535 -0.2938
30328W        W47175   8.241   8.348  14.275  0.2488 -0.0783 -0.0287
30329W        W47176  10.966  18.690   1.343  0.1100 -0.0834  0.0179
30330W        W47177  15.023   9.395  13.923  0.1205  0.4824  0.1950
30331W        W47178   8.522   0.105   4.871 -0.1135 -0.0384  0.0419
30332W        W47179  17.778  13.632   0.122 -0.0958 -0.4084 -0.0987
30333W        W47180   0.092   4.570   4.222  0.0086 -0.1020 -0.1311
30334W        W47181   3.940   1.177  12.258  0.0090 -0.0005  0.0255
30335W        W47182   2.585   4.365   2.435  0.0242 -0.0959  0.1450
30336W        W47183   8.628  14.745  11.276 -0.0633 -0.1021 -0.2015
30337W        W47184   2.272  18.466   1.950  0.1973  0.2522  0.0366
30338W        W47185   1.238  11.551   1.860 -0.3721 -0.3704  0.0803
30339W        W47186  14.822   0.245   3.618  0.0983 -0.0040  0.0441
30340W        W47187   3.492   6.768   1.257 -0.3825 -0.0813 -0.1178
30341W        W47188  11.868   2.525   0.759  0.1123  0.5101  0.0026
30342W        W47189   9.164   5.987  13.718  0.1550 -0.1487 -0.1804
30343W        W47190   2.682   0.295   1.641 -0.3959 -0.0920  0.1006
30344W        W47191   3.794   6.826   2.362  0.0825 -0.1259 -0.0262
30345W        W47192  16.031   7.140   4.867 -0.0286  0.0085  0.0117
30346W        W47193   1.835  14.648  11.447 -0.1483 -0.1070 -0.3183
30347W        W47194  13.923  16.160   9.373 -0.2569  0.2890 -0.0216
30348W        W47195   6.717   9.297  13.870  0.0265  0.0512 -0.1947
30349W        W47196   0.301   4.875   1.929 -0.1496 -0.0563  0.0357
30350W        W47197   6.952   6.573  11.063 -0.0690  0.0950 -0.2709
30351W        W47198   3.432  14.471   2.178  0.3148  0.4241  0.3120
30352W        W47199  18.797  15.825  11.658  0.2364 -0.2606  0.1677
30353W        W47200  18.049  13.696   2.733  0.0820  0.1313 -0.2615
30354W        W47201   3.130   5.376   2.424 -0.1295  0.1295  0.1580
30355W        W47202   2.305   0.311  12.410 -0.3935 -0.1107 -0.0738
30356W        W47203   2.385   1.635   0.254 -0.1035  0.1629 -0.2900
30357W        W47204  15.336   8.824   4.329 -0.2409 -0.0286 -0.1984
30358W        W47205   5.197   7.397  10.938 -0.0824 -0.2228  0.1076
30359W        W47206   5.678   7.282   1.637  0.0941 -0.0018  0.0892
30360W        W47207   1.093  17.548  11.346  0.1636  0.2592 -0.3448
30361W        W47208  16.988   4.209   2.716 -0.1348 -0.1719  0.1606
30362W        W47209  15.739  11.308  10.568 -0.3384  0.0335  0.0043
30363W        W47210  14.006   9.120   1.329 -0.0763 -0.2535 -0.1626
30364W        W47211   9.826  13.008  13.259  0.1253 -0.1456 -0.0365
30365W        W47212   9.645  12.033   0.643  0.0192 -0.4559  0.2787
30366W        W47213  10.582  17.228   2.029 -0.0429  0.0020 -0.1096
30367W        W47214   3.539   1.110   1.064 -0.2627 -0.2720  0.1657
30368W        W47215  14.687   7.290  13.119  0.0266  0.0059 -0.1573
30369W        W47216  14.444  10.383  11.510 -0.1225  0.2587 -0.0648
30370W        W47217  11.299  15.614   3.173  0.0990 -0.1213  0.0026
30371W        W47218   3.543  18.304  13.722 -0.1324  0.1770  0.3099
30372W        W47219   4.808  18.962   1.960  0.1551  0.1223  0.2323
30373W        W47220   1.517   2.358   2.614 -0.0183  0.0463  0.1731
30374W        W47221  15.905   7.176   3.293 -0.1510 -0.0337 -0.1985
30375W        W47222  12.223  12.828  11.739  0.0788 -0.0377 -0.1157
30376W        W47223   0.747  11.167  11.657 -0.1521 -0.1204 -0.0169
30377W        W47224  14.947   0.995   2.904  0.1236  0.0695  0.0194
30378W        W47225  12.714  10.223   3.334 -0.2305  0.3115  0.0210
30379W        W47226   0.549   8.940   0.941 -0.0217 -0.0549  0.0785
30380W        W47227  15.881  12.415   5.496 -0.0251  0.3092 -0.1594
30381W        W47228  15.829  14.094   4.158  0.0397  0.0691  0.0069
30382W        W47229  12.079  13.946   0.739 -0.0065  0.1040  0.2581
30383W        W47230  10.664   5.157  11.380 -0.1270 -0.1815  0.2594
30384W        W47231   6.965   7.832  12.877  0.2350  0.3094 -0.2877
30385W        W47232  13.679   4.344   1.762 -0.0907 -0.3877 -0.3617
30386W        W47233   9.257   0.231   1.891 -0.0250  0.2407 -0.2512
30387W        W47234   3.950  14.885  11.711  0.0605 -0.0691  0.0458
30388W        W47235   5.638  13.532  12.204 -0.4358  0.1166 -0.0844
30389W        W47236   9.787  13.555  13.321 -0.0232  0.0483  0.1962
30390W        W47237  11.583   5.496   2.565 -0.4064  0.1819  0.1006
30391W        W47238  17.917  14.426  11.816 -0.0533 -0.0363  0.0755
30392W        W47239   3.607  16.106  12.059  0.0568  0.0243  0.0049
30393W        W47240  15.027   7.396   1.996  0.2358 -0.0276  0.0646
30394W        W47241  10.442   9.899   4.485  0.3322  0.4943 -0.1167
30395W        W47242  13.347   9.215  11.270  0.0954 -0.2003  0.0038
30396W        W47243  12.973   5.232  14.100  0.1326 -0.2296  0.3779
30397W        W47244  17.804   9.177   0.161 -0.0211  0.2100 -0.0030
30398W        W47245  19.252   7.951  12.922 -0.1460 -0.0853 -0.2210
30399W        W47246   4.923   8.841   1.724  0.1452  0.1505  0.0542
30400W        W47247   3.044  13.737   0.652  0.0597  0.1418 -0.1308
30401W        W47248   5.730  18.025   3.459 -0.0397  0.1204  0.2369
30402W        W47249  16.391   3.013   3.243 -0.2868  0.1238  0.0409
30403W        W47250   2.918   8.927  11.276 -0.0030 -0.3601  0.1344
30404W        W47251   9.312   3.344   4.569  0.3066  0.0549  0.1734
30405W        W47252  18.975  17.439  12.382  0.3050 -0.1670  0.0294
30406W        W47253   9.021  14.682   9.947  0.1767 -0.0252  0.1527
30407W        W47254   5.746   2.172  13.082 -0.0074 -0.1264 -0.0085
30408W        W47255   9.969   9.089  10.625 -0.0987 -0.1546  0.1759
30409W        W47256   7.063  13.781  11.050 -0.1488  0.3572  0.4116
30410W        W47257   5.814   4.930   3.413 -0.0900 -0.0910 -0.2589
30411W        W47258  16.632  15.858  12.619  0.1499 -0.1376  0.2144
30412W        W47259   7.559   5.610   0.817 -0.1242 -0.2803 -0.0111
30413W        W47260   9.112   2.898  13.905  0.4798  0.3630 -0.3690
30414W        W47261  10.083  11.446   2.284 -0.0029  0.0523  0.2806
30415W        W47262   6.514   7.909  11.763  0.0221 -0.0073 -0.0993
30416W        W47263   4.487  15.500  10.514  0.4736  0.0954 -0.1884
30417W        W47264   5.113   7.704  10.372 -0.2612 -0.0466 -0.2784
30418W        W47265  13.341   1.925   1.724 -0.0569 -0.1740  0.0288
30419W        W47266  10.622  11.483  13.135 -0.0860 -0.1997  0.1220
30420W        W47267   2.749  15.649  13.666  0.2495  0.1810  0.1219
30421W        W47268   7.933   3.714   0.338 -0.0925  0.0104  0.1329
30422W        W47269   4.642  16.851  14.031 -0.2745  0.2067 -0.1339
30423W        W47270  19.359   1.761   0.054 -0.0558  0.3505 -0.3726
30424W        W47271   3.829  19.178  14.468  0.1048  0.1074 -0.0161
30425W        W47272   6.612  19.239  12.207  0.4058 -0.2917 -0.1212
30426W        W47273  11.854  11.176   2.967  0.0291  0.0295 -0.0580
30427W        W47274   4.065   5.116  12.015  0.0230  0.1250  0.0337
30428W        W47275   5.161  19.350   3.327  0.2001  0.1536 -0.0660
30429W        W47276  12.654   9.517  13.258 -0.0660 -0.0165  0.1564
30430W        W47277   7.697   7.375  10.370  0.0989  0.2904  0.0045
30431W        W47278   0.937  12.026   4.372  0.2611  0.0950 -0.2615
30432W        W47279  16.101   8.440   2.120 -0.2937  0.1068  0.3315
30433W        W47280   2.013  19.454   0.412  0.2442  0.3567 -0.0894
30434W        W47281  10.164   9.849  12.526 -0.1457  0.2164 -0.0797
30435W        W47282  12.082   0.874   1.253  0.0498 -0.0457 -0.0810
30436W        W47283  16.732  15.217   4.067 -0.0354  0.1261 -0.0271
30437W        W47284  16.503   8.952   3.532 -0.5170 -0.0260 -0.1282
30438W        W47285   7.715   5.602   4.200 -0.2505  0.1446  0.1382
30439W        W47286   2.610  14.678   1.650  0.1175 -0.0348 -0.0575
30440W        W47287   0.544   7.869   3.926  0.1032  0.3418  0.0187
30441W        W47288  16.598   8.377   2.248  0.2093  0.4454 -0.1255
30442W        W47289  12.595   5.226  11.445 -0.0006 -0.1725 -0.5063
30443W        W47290   1.122   6.917  11.763  0.0896  0.2339  0.0234
30444W        W47291   6.157   7.238   3.038  0.1225 -0.1205 -0.3862
30445W        W47292   4.790   9.246  14.178 -0.0235 -0.0596 -0.2237
30446W        W47293  14.558  12.276  11.923 -0.2443  0.3061 -0.2975
30447W        W47294   6.962   0.766  11.536  0.1995 -0.0816 -0.0679
30448W        W47295  10.357  14.149   1.939  0.2101  0.0390  0.1741
30449W        W47296   6.445  17.193   3.583 -0.0242  0.1303 -0.0676
30450W        W47297   7.042   9.047   3.288  0.1772  0.0173  0.0408
30451W        W47298   0.638  14.971   0.888 -0.0095 -0.1762  0.0652
30452W        W47299  14.230   2.336   3.168 -0.0431 -0.1195 -0.4807
30453W        W47300   6.206   1.753   0.820  0.2245  0.0517  0.0636
30454W        W47301  14.948   7.822   4.355 -0.1319 -0.0060 -0.0481
30455W        W47302  18.636  16.513  13.029 -0.0123 -0.1395  0.2194
30456W        W47303  14.282   2.989   0.515  0.4682 -0.0227 -0.1300
30457W        W47304   7.770  10.217  10.062  0.4416 -0.0964  0.0514
30458W        W47305  11.981  16.249   0.020  0.2806  0.2630 -0.1148
30459W        W47306  14.306  18.645   2.919 -0.1288  0.1687 -0.0204
30460W        W47307  18.451   6.295   2.618 -0.0697 -0.3063 -0.2653
30461W        W47308  12.825   8.637   3.256 -0.0765  0.0180  0.0301
30462W        W47309  17.502  16.114  11.896 -0.0291 -0.1041 -0.2106
30463W        W47310   3.457  18.158  13.208 -0.2813  0.0838  0.2555
30464W        W47311  12.553   6.599   5.107 -0.5173 -0.0642  0.0966
30465W        W47312   2.044  15.621  11.101  0.0506 -0.0182 -0.0286
30466W        W47313   5.931  13.344   1.079 -0.0306 -0.0775 -0.0651
30467W        W47314  12.325   0.489   1.184  0.2030  0.0490  0.2977
30468W        W47315  10.997  10.855   2.833 -0.2027 -0.2711 -0.1747
30469W        W47316   8.165   7.752   4.574  0.1204  0.3596 -0.0601
30470W        W47317  15.367   6.237   0.998  0.0759 -0.0622 -0.1881
30471W        W47318   4.515   7.533   2.454 -0.1984  0.1625  0.3731
30472W        W47319  12.137   8.406  10.333 -0.0364  0.1304  0.2886
30473W        W47320   3.285   5.927   0.767  0.2706  0.2761  0.2382
30474W        W47321   4.781   6.306   1.936  0.0483 -0.1339 -0.0918
30475W        W47322   4.222   2.378  12.010  0.3213  0.0453  0.2287
30476W        W47323  10.527   8.410   4.657 -0.1481 -0.1150  0.3544
30477W        W47324  14.278   6.811  11.728  0.2669 -0.0092 -0.0138
30478W        W47325   5.595  19.184   2.433 -0.2487 -0.1200 -0.0193
30479W        W47326   2.875   0.107  12.005  0.1280  0.1630 -0.3148
30480W        W47327   2.058   9.172  10.780  0.0565 -0.1572  0.2170
30481W        W47328  10.724  19.352   1.945  0.0973 -0.0431  0.1810
30482W        W47329   6.111   0.862   0.080 -0.3526 -0.1438  0.1150
30483W        W47330  10.759   9.211  11.883 -0.2406 -0.5175 -0.0656
30484W        W47331   4.326  18.610   0.137 -0.2523  0.2689 -0.0889
30485W        W47332   7.996   2.088  12.824  0.2401 -0.0609  0.0780
30486W        W47333   1.254  17.143   5.047  0.0737  0.3874 -0.2738
30487W        W47334  16.567  10.869   1.652 -0.2057 -0.0310 -0.0154
30488W        W47335  11.447   4.543  13.156  0.0871  0.0575  0.0477
30489W        W47336  17.689   1.830  14.601 -0.1896 -0.0330 -0.0415
30490W        W47337   2.218   2.412   2.908 -0.1021  0.0762  0.3083
30491W        W47338   3.551   9.753   3.893  0.0129 -0.0692  0.1186
30492W        W47339   0.851  16.018   0.845 -0.3094  0.2916  0.0036
30493W        W47340   9.465  16.436  13.840  0.0650  0.0178 -0.0948
30494W        W47341   1.182   2.579   1.205 -0.1899  0.1381  0.5733
30495W        W47342  13.502  11.435   0.097 -0.3168  0.0764  0.2571
30496W        W47343  19.122   6.995   4.338  0.0698  0.2287  0.0171
30497W        W47344  16.007   7.375  10.454 -0.1078 -0.2499  0.1819
30498W        W47345   6.665  14.769  14.116  0.0689 -0.0276  0.0188
30499W        W47346  17.048  14.665   0.570  0.0353  0.0770  0.0669
30500W        W47347  15.791  10.059   0.860  0.0560  0.0036 -0.0559
30501W        W47348  14.424   6.153  13.178 -0.1792  0.1055  0.1206
30502W        W47349  10.672  14.614   4.594  0.1869  0.0995 -0.1527
30503W        W47350  15.296  18.184   4.267 -0.1841 -0.1390  0.5111
30504W        W47351  18.031  10.375   2.598 -0.1257 -0.0019 -0.2344
30505W        W47352   4.941  13.606   0.149  0.2085  0.1319  0.0383
30506W        W47353   6.274   9.355   0.739  0.2335 -0.0564  0.1419
30507W        W47354   8.447  11.509   0.058 -0.3609  0.1275  0.0589
30508W        W47355  17.453   0.002  11.372  0.3852  0.2375 -0.3618
30509W        W47356  15.285  14.007   9.319  0.0240 -0.0497 -0.0766
30510W        W47357  16.702   0.216  10.931 -0.1042  0.1403 -0.1575
30511W        W47358  14.999  16.771  12.259  0.0381  0.2219  0.0203
30512W        W47359   0.658  11.377  12.719  0.4204 -0.2971  0.0056
30513W        W47360  14.813  15.531  12.821  0.2828  0.2928  0.1079
30514W        W47361   1.886   7.940   1.145 -0.0034 -0.0459 -0.0478
30515W        W47362   8.932   4.531  10.680 -0.2648 -0.2648 -0.1825
30516W        W47363  17.024   6.273  13.516  0.0007  0.2268 -0.3481
30517W        W47364  19.556   7.521  14.037  0.0941 -0.4338 -0.0617
30518W        W47365  11.128  13.797   3.048  0.1900  0.0342 -0.3527
30519W        W47366   8.802   0.062  13.732 -0.0961 -0.0435 -0.1082
30520W        W47367   9.543   7.699   1.576  0.0617 -0.2560 -0.1397
30521W        W47368  12.175   5.757   1.540  0.1029 -0.1106 -0.0338
30522W        W47369  15.109   3.123   2.611  0.4809 -0.3648 -0.1634
30523W        W47370  10.909   0.957  13.333 -0.4265 -0.2939  0.0345
30524W        W47371   5.974  14.690   0.133 -0.2606 -0.1742 -0.1931
30525W        W47372  10.778   4.134  12.469 -0.1287  0.0843  0.0224
30526W        W47373  12.934   1.685  12.024  0.3447  0.0867  0.0875
30527W        W47374   0.490   1.769   0.426  0.1554  0.4750  0.0948
30528W        W47375   6.707   4.364   0.427  0.2483 -0.0288 -0.1158
30529W        W47376   2.551  10.110   3.828 -0.0014  0.1258 -0.0814
30530W        W47377  16.415  15.514  10.350 -0.1222  0.0125  0.0582
30531W        W47378  12.055  19.127  13.731 -0.1389 -0.2627  0.0959
30532W        W47379   5.334   5.764  10.863  0.0600 -0.1152  0.0085
30533W        W47380  11.962  10.407   1.950 -0.0903 -0.0787  0.1002
30534W        W47381   3.220   8.769   3.131 -0.1065  0.0714  0.1750
30535W        W47382  10.857  12.700  11.146  0.1491 -0.2238  0.4081
30536W        W47383  15.944   6.738   2.852  0.1499  0.0120 -0.1355
30537W        W47384  10.778  13.104  13.087 -0.3278 -0.0624 -0.2667
30538W        W47385  10.153   3.759  10.935 -0.0157  0.0547 -0.0434
30539W        W47386  17.464   4.061   2.700  0.1922  0.0030  0.1390
30540W        W47387   8.121  13.673   4.831 -0.0011 -0.0390 -0.2114
30541W        W47388  15.166  10.856   2.972 -0.2046  0.3266 -0.4492
30542W        W47389  10.727   1.525   4.517  0.0458  0.2459  0.4013
30543W        W47390   7.649   9.575  14.142  0.3248  0.2990  0.1725
30544W        W47391  19.028   6.613  11.053 -0.1111 -0.0201  0.1271
30545W        W47392  11.295  14.026  13.740  0.2940 -0.0195  0.1800
30546W        W47393   5.638   0.713   0.266 -0.1945 -0.2771 -0.0756
30547W        W47394  13.820  14.885   0.788 -0.1375 -0.1441  0.2413
30548W        W47395   8.160  15.722  12.985  0.0564 -0.1067 -0.2424
30549W        W47396  10.363   5.922  12.057 -0.0956  0.3719  0.1314
30550W        W47397  17.785  18.174  14.568  0.3329  0.2318  0.2576
30551W        W47398  16.625   7.139  13.540  0.0346 -0.2540  0.1676
30552W        W47399  17.189  15.054  11.451 -0.1351  0.1812 -0.0795
30553W        W47400  16.008  11.276  13.894  0.1706  0.0411  0.2288
30554W        W47401  14.923   0.613  10.047 -0.3793 -0.3742  0.4438
30555W        W47402   9.515   3.477   5.066  0.0427  0.2110  0.0774
30556W        W47403   1.668   0.046   0.692 -0.1338 -0.0087  0.0261
30557W        W47404   6.561   9.271   1.795 -0.0139  0.2432 -0.1958
30558W        W47405  16.581   7.418  11.671 -0.2633 -0.1229  0.0564
30559W        W47406   3.132   8.214  12.537 -0.0470 -0.2499  0.0039
30560W        W47407  19.469   8.368   4.078  0.2090  0.1657 -0.3725
30561W        W47408   4.836  11.075   5.560  0.2575 -0.2446  0.0563
30562W        W47409   0.728   7.416  10.963 -0.1949 -0.2558  0.1141
30563W        W47410   9.727   6.028   2.904  0.1101  0.0983  0.1300
30564W        W47411   6.233  17.353   4.399  0.1277  0.0749 -0.2662
30565W        W47412  18.796   5.341  12.459 -0.1667  0.1081 -0.0785
30566W        W47413  14.134   7.220  14.434  0.1687  0.0464  0.0431
30567W        W47414  15.597  19.373  13.880  0.4428 -0.2579  0.0542
30568W        W47415   1.259  17.954   5.197 -0.2722  0.1940 -0.4295
30569W        W47416  15.873  12.112   0.086  0.0901  0.0169 -0.1437
30570W        W47417   5.642   8.616  11.029  0.1899 -0.0107 -0.3264
30571W        W47418  16.547  17.720   2.967  0.0417 -0.1180 -0.0346
30572W        W47419   9.071   6.056   4.790 -0.2550 -0.4842  0.1549
30573W        W47420  11.960   7.882   3.343  0.4971  0.1112  0.0996
30574W        W47421  14.250  15.891   2.870  0.2473 -0.1466 -0.0640
30575W        W47422  15.694   7.246   2.841  0.3581  0.0899 -0.1918
30576W        W47423   2.949  12.957   3.564 -0.0206 -0.1058  0.0019
30577W        W47424   4.112  10.410  14.583  0.0548 -0.2470 -0.4439
30578W        W47425  17.328  15.276   2.277  0.1843 -0.1680 -0.0235
30579W        W47426  11.490   9.775   4.795  0.1114 -0.0486 -0.1617
30580W        W47427   8.195   3.775   4.034  0.0509 -0.1213  0.1375
30581W        W47428  16.905  15.932  14.293  0.3590  0.0280  0.0469
30582W        W47429  15.136   4.429  10.560  0.0799 -0.2324  0.0149
30583W        W47430  12.461   1.776  11.764  0.0173 -0.2956 -0.0954
30584W        W47431  12.119  14.609  12.339 -0.2057  0.2516  0.2568
30585W        W47432  13.646   3.759   1.817 -0.0459  0.2328  0.0205
30586W        W47433  17.266   8.386  12.353 -0.0155  0.1186  0.0527
30587W        W47434   5.387  16.270   4.818 -0.0246 -0.3246 -0.3679
30588W        W47435  16.004  15.707  11.300 -0.1144  0.0727  0.5040
30589W        W47436   6.848   8.077   2.392  0.3437 -0.2323 -0.0902
30590W        W47437  17.192  15.979   9.121  0.0395 -0.2803 -0.2575
30591W        W47438  19.530  16.553  12.577  0.1805  0.1577  0.0423
30592W        W47439   6.233  14.511  14.108 -0.0622 -0.1019 -0.1184
30593W        W47440   7.220   8.586   0.364 -0.1875 -0.1596  0.0108
30594W        W47441  15.690   6.518  10.372  0.1189 -0.3520 -0.0261
30595W        W47442   6.317  14.002   1.429 -0.5568 -0.4460  0.2931
30596W        W47443   2.350  19.238   2.073  0.1124  0.1989  0.1156
30597W        W47444  14.968   2.909  14.367 -0.1250  0.4018 -0.4452
30598W        W47445  18.162  13.423   1.320 -0.1932  0.1438 -0.1273
30599W        W47446   9.343   5.120  12.344 -0.0789  0.0038 -0.0247
30600W        W47447   9.327   2.188  12.988  0.0924  0.2170 -0.3023
30601W        W47448   4.470  19.154  12.033  0.2121 -0.1033 -0.0122
30602W        W47449  13.809  12.401  10.688 -0.0709 -0.1866 -0.0367
30603W        W47450   7.368  14.616   2.138  0.0269 -0.3163 -0.3426
30604W        W47451   6.729  11.070  11.699 -0.2007 -0.2336  0.2926
30605W        W47452  15.689  18.162   1.760 -0.1087 -0.0432  0.0145
30606W        W47453  15.175   4.970   4.571 -0.1743  0.0177 -0.2725
30607W        W47454   5.068  11.051  12.989  0.2074 -0.0332 -0.0594
30608W        W47455   3.407   1.307  13.413 -0.1633 -0.1121  0.0670
30609W        W47456  17.572  10.357  11.743 -0.0656  0.2215 -0.1589
30610W        W47457  11.932  14.062  13.955  0.1760 -0.2413 -0.3959
30611W        W47458   0.416   8.383  13.329  0.0227 -0.1059 -0.0928
30612W        W47459  19.552   2.723  14.230 -0.0409  0.2913 -0.0811
30613W        W47460   3.227  12.858   4.676  0.1500  0.1506 -0.0008
30614W        W47461   1.706   2.003   5.134  0.0865  0.0351 -0.0683
30615W        W47462   3.215  15.793   1.839  0.0702 -0.0873  0.0938
30616W        W47463   3.358   2.633  12.727 -0.2612 -0.2234 -0.0928
30617W        W47464  19.355   4.323  13.492 -0.4133  0.2051 -0.0508
30618W        W47465  14.201   5.655  14.339 -0.1572  0.2411 -0.0890
30619W        W47466  15.836   8.772   0.052 -0.1090  0.0693 -0.0740
30620W        W47467  17.300   5.144  10.995  0.2546 -0.1669  0.1611
30621W        W47468  14.168  15.637  13.463 -0.1878  0.2612 -0.1268
30622W        W47469   9.841   1.713   4.403  0.0289  0.0125  0.0804
30623W        W47470   5.343  14.135  14.512 -0.0922  0.1562  0.3681
30624W        W47471  14.616  19.013  11.676 -0.1436 -0.0576  0.2187
30625W        W47472  12.364  19.537   4.916  0.0271 -0.2201 -0.0139
30626W        W47473  10.939  18.598   2.276  0.0587  0.3335 -0.3168
30627W        W47474  19.317   7.034   0.312 -0.0851 -0.1339 -0.3168
30628W        W47475   7.921   8.536   2.161  0.3924 -0.0181  0.0963
30629W        W47476   1.410  13.012  11.672  0.2889  0.1808 -0.0051
30630W        W47477   0.391  12.183  12.920  0.0423 -0.3387  0.2635
30631W        W47478  10.408   6.940  13.090 -0.1939 -0.1398 -0.1426
30632W        W47479   7.488   5.678   9.325  0.0098 -0.0652 -0.0618
30633W        W47480  13.341   7.709   4.742  0.0161  0.1045  0.0765
30634W        W47481   9.189  13.027  10.278 -0.2406 -0.1965 -0.1337
30635W        W47482   7.563  16.621  11.525 -0.1390  0.0549  0.0791
30636W        W47483   1.490   5.757   2.886  0.2868 -0.0671  0.3209
30637W        W47484   1.769   0.956  10.037 -0.2688 -0.0687  0.0638
30638W        W47485   6.119   0.982   1.378 -0.2479 -0.2603  0.1274
30639W        W47486  14.296   6.086  14.519  0.1008 -0.2333  0.0874
30640W        W47487  16.408   9.384  10.061  0.1431  0.0336 -0.0586
30641W        W47488  12.827  19.324   9.969 -0.0073 -0.1155 -0.3588
30642W        W47489   1.828  19.077  13.062 -0.0267  0.2163 -0.3897
30643W        W47490   5.249  10.043   0.927  0.1152 -0.3182  0.1056
30644W        W47491  15.706   2.258  10.378  0.1034  0.6308 -0.1516
30645W        W47492  19.559   9.629   4.039  0.2837  0.1077 -0.0002
30646W        W47493  15.045  16.380  12.845  0.0332  0.2337  0.1059
30647W        W47494   8.695  15.994  11.904  0.1150  0.0947  0.2867
30648W        W47495  17.964   6.330   4.526 -0.3793  0.1898 -0.2052
30649W        W47496  12.840   2.661   4.154  0.2165 -0.0325  0.0314
30650W        W47497  13.250   4.131  14.051  0.4829  0.1173 -0.4314
30651W        W47498   1.032  17.553  13.721  0.2391  0.1131  0.0745
30652W        W47499  15.995   0.398  13.894 -0.3780 -0.1193  0.2370
30653W        W47500  12.697   7.892   1.048 -0.2035  0.1040 -0.2535
30654W        W47501  14.288  13.185   0.418 -0.2708  0.1573 -0.3424
30655W        W47502  18.035   0.598   4.112 -0.2257  0.1202 -0.2068
30656W        W47503   6.490   9.418   1.258 -0.1487  0.1305 -0.1453
30657W        W47504  15.869   5.346   4.644 -0.0904 -0.0744 -0.0099
30658W        W47505   9.399  11.873  13.849  0.1943 -0.0665 -0.0902
30659W        W47506   3.471   7.262  13.005 -0.1819  0.0478  0.2007
30660W        W47507   7.845   4.116  12.813 -0.1438 -0.2672  0.0133
30661W        W47508  14.360   4.256   3.531 -0.0303  0.3430 -0.0954
30662W        W47509  13.833   5.240   3.520 -0.1573  0.3944 -0.1460
30663W        W47510  10.281   2.136  11.412  0.2027  0.1893 -0.2971
30664W        W47511  17.151  14.921   3.693  0.2840  0.0354 -0.1541
30665W        W47512   3.999  11.525  11.374 -0.3485 -0.0108 -0.0087
30666W        W47513   1.375  18.174  10.848 -0.1057 -0.1024  0.1320
30667W        W47514  14.098   3.960   4.937  0.1243  0.1343 -0.1713
30668W        W47515  13.494  10.840  12.856  0.0337  0.0741 -0.1692
30669W        W47516  16.137  14.600  10.351 -0.2146  0.1366 -0.3855
30670W        W47517  13.235  10.130   0.277  0.0005 -0.1679 -0.1593
30671W        W47518  16.075   5.691   0.029  0.1470 -0.0401 -0.2268
30672W        W47519   1.821   3.847  11.963 -0.5466 -0.0494  0.1145
30673W        W47520  11.890   1.438   0.581  0.4013  0.0478  0.1030
30674W        W47521   0.820   8.281  11.273  0.2925  0.2078  0.2039
30675W        W47522   4.269   5.204   2.104 -0.0917  0.2043 -0.2688
30676W        W47523   2.830  15.631   3.767 -0.0026  0.1695 -0.1273
30677W        W47524  10.084   8.059  13.795 -0.3000 -0.0370 -0.2506
30678W        W47525   7.980   3.673   3.130  0.0844 -0.2502  0.0270
30679W        W47526  18.517  17.876  12.067  0.1056  0.2452 -0.3974
30680W        W47527   3.210   7.195   0.546 -0.1495  0.3345 -0.1380
30681W        W47528  11.482   0.832  10.501 -0.0515 -0.0163 -0.0646
30682W        W47529  15.721  18.274   1.095 -0.1741 -0.0117  0.3431
30683W        W47530   7.645  10.425  10.590 -0.0795  0.0086  0.2799
30684W        W47531   9.667   5.618   0.007 -0.2587 -0.0283 -0.0851
30685W        W47532   0.287   2.221   0.907  0.0931 -0.0754  0.3017
30686W        W47533  12.199  10.231   2.730 -0.1499  0.2482 -0.1226
30687W        W47534  18.225   1.004  14.435  0.3072 -0.2901  0.2126
30688W        W47535  10.859   9.146  14.096  0.3870 -0.1640 -0.0701
30689W        W47536   0.063   5.331  12.334  0.0556 -0.0504 -0.0711
30690W        W47537   8.663  18.274  13.318 -0.0132 -0.2644 -0.3877
30691W        W47538   2.908   4.138   1.563  0.2181 -0.0149 -0.1955
30692W        W47539   8.856  11.841   4.382  0.3456  0.0720  0.0170
30693W        W47540   1.233  18.085  14.054 -0.1106  0.0821  0.0851
30694W        W47541   3.802  18.659   1.837 -0.0612 -0.0881 -0.1053
30695W        W47542   8.654  13.563   0.833 -0.0821 -0.2184 -0.0570
30696W        W47543   3.924  17.047   2.216  0.3158 -0.0887  0.1629
30697W        W47544  16.086  12.761   0.709 -0.0571 -0.1081  0.3204
30698W        W47545   9.757   5.105   0.086  0.3692 -0.0033  0.0771
30699W        W47546   7.191  16.745   2.770 -0.2101 -0.0089  0.1512
30700W        W47547   0.690  18.924   1.534  0.1582  0.0929 -0.1361
30701W        W47548   0.032  15.019   2.150  0.0917  0.0261 -0.1081
30702W        W47549   4.664   3.783  10.130  0.0968 -0.0318 -0.1633
30703W        W47550  16.289  13.033  12.071 -0.0338 -0.0274 -0.1138
30704W        W47551  15.917   9.043  13.723  0.0107  0.0360  0.2025
30705W        W47552  16.726  12.050   3.110 -0.3429  0.2894 -0.0226
30706W        W47553   8.674   7.317   2.883 -0.3517 -0.4015 -0.1020
30707W        W47554  15.240  12.268   4.699 -0.1774 -0.4070  0.0402
30708W        W47555  15.629   5.044   3.288 -0.0837 -0.2329  0.0583
30709W        W47556  14.007  14.074  14.269 -0.1396 -0.1060  0.0640
30710W        W47557   7.367  18.867  13.789  0.1202 -0.2122  0.0973
30711W        W47558   5.661   3.018  11.335 -0.0157  0.1994 -0.0014
30712W        W47559   7.279   0.705  12.315  0.0955  0.1062  0.0484
30713W        W47560  11.751   3.226  13.138  0.1958  0.1008 -0.1365
30714W        W47561   2.069   3.516  10.851  0.1286  0.1338  0.1978
30715W        W47562  16.430   0.913  13.066 -0.1031 -0.1593  0.1593
30716W        W47563  13.182   8.330  12.429 -0.2415 -0.0141 -0.1731
30717W        W47564   6.877   3.063  12.339  0.1478  0.3595 -0.2671
30718W        W47565   9.445   9.532   0.922 -0.0636  0.3413  0.1595
30719W        W47566   8.087   0.008  11.311  0.1024  0.0625  0.3244
30720W        W47567  19.491  18.008   3.452 -0.2004 -0.1506 -0.3061
30721W        W47568   4.052   2.692  13.983 -0.1132  0.1450 -0.4471
30722W        W47569  19.479   9.939  10.584 -0.0067  0.2346  0.0145
30723W        W47570   3.198  12.391  11.512  0.1355 -0.2759  0.0864
30724W        W47571  10.978  18.289  11.047  0.2602 -0.2732 -0.2272
30725W        W47572   6.019  12.078   1.241  0.3416  0.1090  0.0338
30726W        W47573   1.894  15.867   9.351  0.1291 -0.1248 -0.0374
30727W        W47574  17.953  12.184   3.264 -0.0289  0.1939 -0.1684
30728W        W47575   3.929  13.114  11.457 -0.3266  0.2247 -0.2228
30729W        W47576  19.004  14.576   4.979  0.2215  0.0653  0.3170
30730W        W47577  10.275   0.513   2.148  0.1222 -0.2324 -0.0093
30731W        W47578   2.860  11.877  13.380  0.0028 -0.0662  0.0928
30732W        W47579   6.895   6.083  14.266  0.3348  0.1300  0.3099
30733W        W47580   2.716  12.509  14.193 -0.1861 -0.2007 -0.0808
30734W        W47581   1.728  13.739   1.745  0.1954 -0.6670 -0.1392
30735W        W47582   8.589  12.661  12.874  0.0678  0.0913 -0.2747
30736W        W47583  16.360   8.847   3.028 -0.0660  0.2755 -0.0340
30737W        W47584   8.085  13.105   2.917 -0.3020 -0.0653 -0.0467
30738W        W47585   8.292   4.845   2.147 -0.1743  0.3838 -0.1841
30739W        W47586  15.851  16.319  10.852 -0.0032  0.1096 -0.1787
30740W        W47587   4.006  19.496   5.029  0.1155 -0.1738  0.3005
30741W        W47588   9.623  19.297   1.446 -0.2206 -0.3240 -0.0769
30742W        W47589  14.332  15.152   1.003  0.3064 -0.0373  0.0274
30743W        W47590  11.577   0.094  10.309 -0.0893  0.1557  0.1196
30744W        W47591  10.728   6.071   2.500 -0.1754  0.1580  0.3136
30745W        W47592   3.452  13.096   3.564 -0.3628 -0.1067  0.4135
30746W        W47593  15.455  14.804  11.018  0.1441 -0.0795 -0.0317
30747W        W47594  14.057  12.122  11.011  0.3204 -0.1362  0.1431
30748W        W47595   2.224   1.272   0.626 -0.1046 -0.2405 -0.0874
30749W        W47596   9.088   0.574  10.729 -0.0426 -0.0656 -0.1401
30750W        W47597  14.424  13.573   2.706 -0.1863 -0.0635  0.2453
30751W        W47598  10.667   2.002  13.391 -0.1490  0.0375 -0.2344
30752W        W47599  19.554  12.303   4.232  0.1635  0.0986  0.1141
30753W        W47600  15.368   4.365   0.425  0.3206 -0.2004 -0.2223
30754W        W47601  17.161  15.062   2.742 -0.3459  0.0163  0.4343
30755W        W47602   5.984  14.127   4.014  0.0916  0.1434  0.0582
30756W        W47603  14.954  18.585  12.882 -0.1500  0.0842 -0.0077
30757W        W47604   3.883  18.421  12.352  0.1343  0.1642 -0.0809
30758W        W47605  16.082  15.598  13.453  0.0568  0.2011 -0.2214
30759W        W47606   6.633   4.463  12.557 -0.1915 -0.2457 -0.0410
30760W        W47607  18.960   2.152   3.333 -0.0908 -0.1119 -0.1191
30761W        W47608  19.233   1.518  12.948  0.0102 -0.1287  0.1442
30762W        W47609  11.120   5.339  10.471 -0.1910  0.2659  0.3375
30763W        W47610  17.382  14.776  13.120  0.0223 -0.1367  0.1409
30764W        W47611  11.864  11.551  12.689  0.0594  0.0662 -0.2087
30765W        W47612   8.905  13.306   2.291 -0.4271 -0.0705  0.2165
30766W        W47613  18.984   1.961   3.909 -0.0630  0.3422  0.1256
30767W        W47614   1.239   3.099  10.792  0.3028 -0.2203 -0.3387
30768W        W47615   8.760   0.223   1.046  0.3514  0.2063  0.1501
30769W        W47616  12.505   0.032  13.228 -0.0925  0.1200  0.2081
30770W        W47617  13.164  17.687   0.870  0.2553 -0.0825  0.1593
30771W        W47618   8.752   4.318   2.282 -0.1447  0.2896 -0.0663
30772W        W47619   8.128   4.271   3.914  0.3271  0.0663 -0.0470
30773W        W47620   3.721   8.585  12.625  0.0815 -0.3219 -0.2720
30774W        W47621  18.032   4.208   2.316 -0.0460  0.1425 -0.2795
30775W        W47622   7.704  15.775  13.573  0.1476  0.2747  0.2551
30776W        W47623  15.414  11.841  12.832  0.1363 -0.2770  0.0118
30777W        W47624  17.757   3.430  14.286 -0.1008  0.0793  0.1280
30778W        W47625   1.300   6.362   0.226 -0.1595  0.1198 -0.0272
30779W        W47626  14.085  10.600  10.376  0.0761 -0.0033  0.0279
30780W        W47627  10.463  11.004  10.463  0.1705 -0.1188  0.1506
30781W        W47628   9.291   3.066  10.302 -0.1198 -0.0569  0.0087
30782W        W47629   1.280   2.739  11.311  0.2078  0.1891  0.1660
30783W        W47630  10.216   9.602  14.194 -0.1042  0.0256  0.0771
30784W        W47631  19.097   6.980   4.885  0.0243 -0.0026  0.0339
30785W        W47632  12.908   2.226  12.225  0.1873  0.3106  0.0669
30786W        W47633  17.958   1.104  12.122  0.0418 -0.4047  0.0044
30787W        W47634  18.821  15.758   4.309 -0.2315  0.1747 -0.0660
30788W        W47635  16.616   5.189   2.089  0.0055 -0.0468 -0.1840
30789W        W47636   6.556   9.782  11.874  0.2600  0.0716 -0.2226
30790W        W47637   5.094   1.046  14.152 -0.1815 -0.0366  0.3082
30791W        W47638  16.518  16.053  13.986 -0.0436 -0.0956 -0.0815
30792W        W47639  13.923  13.542  11.407  0.0895 -0.0370  0.1929
30793W        W47640  17.426   1.759   4.075  0.2743 -0.1139 -0.1578
30794W        W47641   9.656   1.674  10.790 -0.0304 -0.0225  0.1676
30795W        W47642  17.036   2.146   3.375 -0.0921  0.0265 -0.0959
30796W        W47643  18.143   8.555   3.840  0.1262 -0.0798  0.0365
30797W        W47644  15.031   9.255   2.310 -0.1097 -0.0795  0.1083
30798W        W47645   1.005   5.083   2.495  0.0960 -0.2019 -0.0401
30799W        W47646  17.133  16.435   1.217  0.3084 -0.1415 -0.0056
30800W        W47647  16.798  16.531   4.440 -0.0175 -0.4219  0.1114
30801W        W47648   7.505  18.913  12.843 -0.3579 -0.1903  0.1737
30802W        W47649  13.149   1.991  13.400 -0.1421  0.0509 -0.0676
30803W        W47650  16.604  19.523   0.260  0.0956 -0.1725 -0.0773
30804W        W47651   7.118  11.263  13.145  0.2615 -0.2584  0.1723
30805W        W47652   5.520  11.917  12.537  0.2957 -0.2743 -0.2911
30806W        W47653   3.513   4.572  14.217 -0.1601 -0.4181  0.2005
30807W        W47654   2.410  17.961   0.152 -0.3777  0.0390 -0.1904
30808W        W47655  11.936   1.503   4.855 -0.3371 -0.3355  0.0543
30809W        W47656   3.929  14.867  10.868 -0.0578 -0.1534 -0.0027
30810W        W47657  11.255   6.619  10.660  0.0370 -0.0170  0.2695
30811W        W47658  16.818  10.015  12.903 -0.1035  0.0164 -0.3222
30812W        W47659  11.577   3.612  12.758 -0.1128 -0.1313  0.1923
30813W        W47660   3.021  14.484   2.423 -0.5721 -0.0876 -0.0760
30814W        W47661  10.662  11.292  13.881 -0.1824 -0.1433  0.3145
30815W        W47662  11.289  12.369   0.909  0.0857 -0.1213 -0.0346
30816W        W47663   9.441  14.167   4.784 -0.1720  0.3004 -0.0041
30817W        W47664  17.739  17.512  10.552 -0.0556 -0.3848  0.2960
30818W        W47665   9.402  18.892   4.176  0.1468 -0.0512  0.0578
30819W        W47666  16.894   3.737  11.730 -0.1011  0.0817  0.0119
30820W        W47667   0.273  13.296   4.329 -0.1415  0.1532  0.3250
30821W        W47668  14.347  17.664   0.223  0.1180 -0.0771 -0.0279
30822W        W47669   7.883   4.103   2.930  0.4322  0.1605  0.3324
30823W        W47670   1.689   8.672   1.881 -0.4008  0.0142 -0.0888
30824W        W47671   5.837   3.015   2.809 -0.2408 -0.1251 -0.0494
30825W        W47672   8.369  12.075  10.412 -0.2299  0.0511 -0.1292
30826W        W47673   9.601  14.973   2.429  0.3884 -0.0451 -0.0689
30827W        W47674  12.659  19.607   2.452 -0.0575 -0.2097 -0.1002
30828W        W47675  18.605  19.311  12.614 -0.1505 -0.1668 -0.0508
30829W        W47676   1.964  13.803   3.838  0.1583 -0.2775  0.0280
30830W        W47677   1.970  13.195  10.155  0.0486  0.1658 -0.1440
30831W        W47678  15.013   3.689   2.349 -0.1263 -0.1331  0.2301
30832W        W47679  16.609  10.380   5.156 -0.2482  0.2937 -0.0184
30833W        W47680  17.988  13.962  13.111 -0.2960 -0.0497 -0.0638
30834W        W47681   2.326   3.270   1.696  0.1112  0.0830 -0.1051
30835W        W47682   6.592  11.572   2.361 -0.1308  0.0376 -0.0911
30836W        W47683  18.219  14.761  11.989  0.0941 -0.1226  0.2000
30837W        W47684   2.915  11.552  12.494 -0.5227 -0.1523  0.1019
30838W        W47685   2.375   7.890  12.505 -0.0449  0.2339  0.2814
30839W        W47686   5.195   9.204   2.096 -0.0169 -0.2063  0.2984
30840W        W47687   8.905   6.176  12.108 -0.1816 -0.2730  0.1134
30841W        W47688   9.208   9.941   0.326 -0.1893  0.0631 -0.0148
30842W        W47689   6.070  11.197   4.223 -0.0986 -0.0535 -0.1056
30843W        W47690   7.132  14.204   3.312 -0.1267 -0.1856 -0.2545
30844W        W47691  10.435   9.437   0.202 -0.0473 -0.3524 -0.0194
30845W        W47692   2.743   0.631  10.960  0.0365 -0.2418 -0.1690
30846W        W47693   6.425  19.332  11.221 -0.1583 -0.3393 -0.0779
30847W        W47694  10.966   7.776  12.838  0.0586 -0.0374  0.1311
30848W        W47695   1.670   0.509   4.092 -0.0514  0.0256 -0.2520
30849W        W47696   9.295   3.136   2.896  0.1154  0.0380 -0.1773
30850W        W47697  15.731   1.122  10.908 -0.0948 -0.2793  0.0706
30851W        W47698   8.910   8.529  10.905  0.1481 -0.0513  0.0344
30852W        W47699  10.240   0.690   0.492  0.1839 -0.0114  0.0384
30853W        W47700   5.495  15.271   3.968 -0.1815  0.0848 -0.0895
30854W        W47701   9.977   3.584  12.859  0.2783  0.2258 -0.3361
30855W        W47702   1.931   0.384   1.124 -0.3469 -0.0619 -0.0239
30856W        W47703   2.224   0.175  10.257  0.3874 -0.3110 -0.1947
30857W        W47704   8.606  11.785  13.050  0.1568 -0.4068  0.1336
30858W        W47705   5.328  15.162   2.214  0.2069  0.0121 -0.2086
30859W        W47706  10.932   8.336   2.935 -0.1998  0.0362 -0.0457
30860W        W47707  14.070  13.583  14.357 -0.0909  0.1723 -0.0950
30861W        W47708  17.267  10.497  12.752 -0.2372  0.2346  0.1849
30862W        W47709  18.966  13.089  11.815  0.0953  0.0505  0.0508
30863W        W47710   9.817  18.927   2.792 -0.1622 -0.0140 -0.5253
30864W        W47711   5.197  18.376   2.629 -0.1582  0.0632  0.1369
30865W        W47712  13.583   7.117  14.609 -0.0803  0.0190 -0.0224
30866W        W47713   2.101  12.362   2.661  0.0829 -0.1646 -0.2744
30867W        W47714  11.606   9.229   1.199  0.1994 -0.2611 -0.0892
30868W        W47715   7.426   8.812   2.130  0.2145 -0.3379 -0.2145
30869W        W47716   3.798   0.796  11.944  0.0228 -0.2287  0.1766
30870W        W47717   7.476  11.959  13.894 -0.0578 -0.5037  0.1713
30871W        W47718   5.269  14.051  13.172 -0.0261 -0.3162 -0.1839
30872W        W47719  11.772   9.114  11.438  0.1438  0.0951 -0.4746
30873W        W47720  10.638   7.470   1.361  0.0623  0.1720 -0.2252
30874W        W47721   9.294  11.783   3.757  0.0907 -0.0341 -0.2252
30875W        W47722  16.804  10.970   5.134 -0.1660 -0.2207 -0.1892
30876W        W47723  14.587   1.839  12.225  0.0144  0.2354  0.0922
30877W        W47724  17.038   5.236   4.419  0.0111  0.1900  0.0533
30878W        W47725   4.131  19.417   0.725  0.0983  0.0168  0.2071
30879W        W47726   5.595  10.042  10.502 -0.0139  0.0462  0.4025
30880W        W47727  12.648   9.858  10.886  0.1035  0.1454 -0.0138
30881W        W47728   8.389   2.324  13.184 -0.0118 -0.0891  0.3805
30882W        W47729   1.477  12.685  14.442  0.0206  0.3036  0.1536
30883W        W47730   9.702   8.712  14.410  0.1810 -0.2759  0.2020
30884W        W47731  15.778   7.379  13.389  0.3353 -0.1208  0.1173
30885W        W47732  10.945  10.283   3.311 -0.1643 -0.1629 -0.1624
30886W        W47733  12.398   9.987  10.455  0.5206  0.0119  0.0580
30887W        W47734   0.322   4.841  10.629  0.3971  0.0995  0.1393
30888W        W47735   9.183   5.928  10.242  0.1151  0.2694 -0.3230
30889W        W47736  15.401  17.967   1.414 -0.0812 -0.2633 -0.0873
30890W        W47737  11.076  19.281   1.536  0.2233  0.0675 -0.0249
30891W        W47738   0.601  14.819  14.526  0.0990 -0.1176  0.2334
30892W        W47739  15.825  14.438   0.847  0.0644  0.0298  0.1774
30893W        W47740   1.099  14.914   2.362  0.0578  0.1453  0.2103
30894W        W47741   3.284  16.756   0.421  0.2031  0.0995 -0.2058
30895W        W47742  11.861  14.743  11.348  0.1431  0.1527  0.1238
30896W        W47743  14.922  16.861   1.989  0.2590 -0.1872  0.0378
30897W        W47744   9.418  18.860  10.803 -0.0073  0.2259  0.1851
30898W        W47745  19.292   6.402  11.457 -0.0125 -0.0371  0.1207
30899W        W47746   2.705  15.960   2.699  0.3349  0.0622 -0.0863
30900W        W47747   7.414   0.466  10.438  0.1395  0.0275  0.0767
30901W        W47748  10.786  17.717  14.581  0.1212 -0.2796 -0.2042
30902W        W47749   9.763  19.393   0.114  0.2879 -0.0109  0.1336
30903W        W47750  11.527  11.784  13.477  0.1924  0.0447 -0.0047
30904W        W47751   3.282  11.091   0.891  0.0831 -0.1328  0.1541
30905W        W47752  17.725  15.447   9.924 -0.0796 -0.3204  0.0413
30906W        W47753  19.030  19.334  14.120 -0.0916  0.1943  0.0658
30907W        W47754   6.500  17.945   3.095 -0.2838 -0.0362 -0.3017
30908W        W47755  16.006  16.560  10.074 -0.0174 -0.0374 -0.1783
30909W        W47756   1.555   7.396  10.588  0.0019 -0.0160  0.0900
30910W        W47757  10.595   6.066   5.097  0.1920 -0.0358 -0.1527
30911W        W47758   7.542   1.402   1.184  0.2554 -0.1352 -0.1713
30912W        W47759   8.356  10.698  12.673 -0.0403 -0.0784  0.0612
30913W        W47760  11.918  15.234   9.805 -0.2205  0.0356  0.2455
30914W        W47761   3.581  15.627   4.212 -0.1526  0.0766 -0.0299
30915W        W47762  11.290   0.376   5.247  0.0582  0.1265 -0.1493
30916W        W47763   8.252   6.758  12.995  0.0229 -0.1258  0.3250
30917W        W47764   3.830   6.540  13.236 -0.1704 -0.0579  0.0696
30918W        W47765   0.289   6.585   3.702 -0.0193  0.1064  0.0507
30919W        W47766  15.044   3.674   1.785  0.2804 -0.0610 -0.1173
30920W        W47767  14.389   7.503   4.802 -0.0990  0.0376 -0.1921
30921W        W47768  19.216   9.462   2.029  0.1461  0.0933 -0.2615
30922W        W47769   2.742  18.170   4.717  0.1395  0.0889 -0.2018
30923W        W47770   2.060   5.317   2.414 -0.0805 -0.2949  0.0088
30924W        W47771  11.287   0.916   2.255  0.1664 -0.1480  0.1364
30925W        W47772   8.813  15.997   3.517  0.1812 -0.3496 -0.0012
30926W        W47773  10.622  18.197  13.341  0.2241 -0.1580 -0.0952
30927W        W47774   3.596  14.726   9.950  0.2449 -0.0579  0.2616
30928W        W47775   4.759   8.102   2.738  0.0175  0.3119  0.0660
30929W        W47776   2.517  15.864  11.054 -0.2653 -0.0159  0.0784
30930W        W47777   5.150  16.372  12.249  0.0440  0.0398  0.1388
30931W        W47778  14.149   2.630  12.889 -0.2146  0.4077 -0.1703
30932W        W47779   0.347   8.163  10.624 -0.0543  0.1519 -0.2037
30933W        W47780   8.788  10.396   3.859  0.3789  0.0403  0.1538
30934W        W47781  10.740  13.350   2.977 -0.4578 -0.1188 -0.2137
30935W        W47782   1.344  17.827   4.329 -0.1435 -0.0738 -0.3023
30936W        W47783   0.843   4.494   5.436 -0.2391  0.0282 -0.2537
30937W        W47784   2.321   5.744   0.243 -0.1589 -0.0940  0.0825
30938W        W47785   6.720  15.732  13.489 -0.2135  0.0952 -0.0443
30939W        W47786   2.963  18.445   9.451 -0.1152 -0.0793  0.5799
30940W        W47787  12.735  16.414  12.623 -0.1985  0.2908  0.3134
30941W        W47788   7.229  13.613  12.876  0.0030  0.1055 -0.0722
30942W        W47789  18.372   4.406  12.771  0.2305  0.0262  0.1746
30943W        W47790  12.364  14.867  11.536  0.1286  0.0281 -0.2425
30944W        W47791   3.269   6.397  12.253 -0.2280  0.0423  0.0333
30945W        W47792   8.747   4.272   0.625 -0.0737  0.0041 -0.3865
30946W        W47793   2.279   2.032  13.662 -0.1314 -0.1497  0.0093
30947W        W47794  11.483   3.025   3.963  0.0334  0.0294 -0.4149
30948W        W47795   2.405  10.107   0.504 -0.0034 -0.0588  0.0472
30949W        W47796  14.802  19.017   2.414 -0.0884 -0.1086 -0.0682
30950W        W47797  16.634   4.349   4.955 -0.1191 -0.1707  0.2945
30951W        W47798  19.591   5.186  11.341  0.2719 -0.3237 -0.1411
30952W        W47799   7.650  18.231   2.425 -0.2281  0.4068 -0.0336
30953W        W47800   5.872  10.068   0.202 -0.2225  0.1449 -0.3318
30954W        W47801  14.534  11.663   5.598 -0.2596 -0.2150 -0.1897
30955W        W47802  17.900   1.672   4.386 -0.3957  0.0554 -0.1272
30956W        W47803  18.514   1.236   1.363 -0.1985  0.0086  0.1007
30957W        W47804  16.526   0.155  11.618 -0.1251  0.0712 -0.0248
30958W        W47805  11.377   4.091  11.440 -0.1047  0.0913 -0.1291
30959W        W47806  12.306   8.149   3.631  0.0107  0.2058  0.2478
30960W        W47807   4.085   9.423  12.466 -0.0095 -0.1114  0.0109
30961W        W47808   2.993  10.570  12.741  0.0490 -0.2462  0.0169
30962W        W47809  17.714  17.290   4.000  0.0783 -0.1168  0.0037
30963W        W47810   3.490   2.220  12.997  0.1355 -0.3959 -0.1910
30964W        W47811   2.061  17.220   2.411  0.1780 -0.2193 -0.1901
30965W        W47812  13.874  12.020  12.187 -0.0380 -0.0316  0.5182
30966W        W47813  11.370   6.465   2.191  0.2221  0.2776 -0.0715
30967W        W47814  13.923  12.272   0.585  0.2122 -0.2600 -0.3289
30968W        W47815  10.320   9.428  12.744 -0.5508  0.1775 -0.0224
30969W        W47816   7.457   4.577   3.980 -0.2366 -0.0755 -0.1115
30970W        W47817   8.074  11.905  12.239 -0.0595 -0.1128 -0.0503
30971W        W47818   2.832  14.326   9.494 -0.0303  0.0622 -0.0334
30972W        W47819   6.510  16.304   9.985  0.2482 -0.1046 -0.0752
30973W        W47820  14.857   6.297   4.587  0.1491  0.0792  0.1457
30974W        W47821   5.883   8.808  13.934  0.1221  0.1638 -0.1217
30975W        W47822   5.677   0.480   3.006 -0.0560  0.0151  0.0893
30976W        W47823   1.247   1.023   2.789  0.0757 -0.0774  0.4171
30977W        W47824  18.342   6.175  14.549  0.0618 -0.2125 -0.0171
30978W        W47825   6.446  13.953  13.705  0.0862 -0.1335  0.2298
30979W        W47826  10.902   9.475   1.859  0.0592 -0.0871 -0.0913
30980W        W47827  19.584  13.724   0.083 -0.3058  0.3552 -0.2417
30981W        W47828  13.218  11.669  12.644 -0.0590 -0.1685 -0.0346
30982W        W47829   0.699   0.893   2.776 -0.1410  0.1754 -0.0413
30983W        W47830  10.747  10.199   1.287  0.0888 -0.0377  0.3835
30984W        W47831  12.739   6.586  11.412  0.0640  0.3275  0.1739
30985W        W47832   4.161  13.719  13.139 -0.0757 -0.0394 -0.0608
30986W        W47833   8.026  17.346   2.527  0.2772  0.0877  0.3019
30987W        W47834  10.974   4.538   4.127  0.3068 -0.0062  0.0660
30988W        W47835  12.156  13.634  13.835  0.2724  0.2354  0.1393
30989W        W47836   4.295   3.319   1.501  0.2421  0.1702 -0.1993
30990W        W47837   3.557   0.975   9.082 -0.0800 -0.0890 -0.0466
30991W        W47838   3.499   0.578   3.436  0.1299 -0.0225 -0.0706
30992W        W47839  13.340   0.127   0.204 -0.0187 -0.1417  0.2934
30993W        W47840   8.891   3.108  13.267 -0.2032  0.2856 -0.0759
30994W        W47841   7.457   6.722  11.915 -0.1815 -0.1038 -0.3891
30995W        W47842   8.749   3.024   2.874  0.2566 -0.0664  0.1808
30996W        W47843   5.130   7.616   0.417 -0.1674  0.0780 -0.2849
30997W        W47844  18.037  13.850  10.706 -0.1916  0.3565 -0.1577
30998W        W47845   0.212   9.533  14.073 -0.1334  0.0533 -0.2204
30999W        W47846   7.343  14.100   5.134  0.0327  0.0359  0.1063
31000W        W47847   9.663   8.394  11.678  0.1191  0.0891 -0.1554
31001W        W47848   1.850  16.610   0.899  0.2954 -0.3110  0.0587
31002W        W47849   2.424  12.024  13.696 -0.3553  0.0892  0.0048
31003W        W47850  13.402  13.765   4.571  0.0939  0.3226 -0.2642
31004W        W47851  17.106  18.926   1.959 -0.0073 -0.4921  0.0293
31005W        W47852  17.716   4.517   2.524  0.0812  0.1151  0.0533
31006W        W47853   1.104  17.392   4.275 -0.1039 -0.2540 -0.2053
31007W        W47854   2.348   5.162  11.740 -0.0513 -0.0551 -0.1361
31008W        W47855   9.931   4.386   4.406  0.0744  0.2022  0.0981
31009W        W47856  10.499  13.727   0.200 -0.3545 -0.1788 -0.2520
31010W        W47857   1.390   6.113  13.020  0.0047 -0.1222 -0.0209
31011W        W47858  17.803   8.356   3.476 -0.2199  0.1134  0.0063
31012W        W47859   4.002   4.899  12.503 -0.0680 -0.1451  0.4096
31013W        W47860   2.793  13.419   1.862 -0.0717  0.3943 -0.0142
31014W        W47861  12.949  16.384  10.328  0.0938  0.1343 -0.0704
31015W        W47862  17.012  12.476  10.526 -0.0294  0.1729  0.1711
31016W        W47863   2.929   1.783   3.820  0.0898 -0.0131  0.1102
31017W        W47864   7.231  11.573  10.870  0.0381 -0.2226 -0.1478
31018W        W47865   2.634   9.682  12.962 -0.1567 -0.2291  0.0356
31019W        W47866   3.654   1.655  10.584 -0.0473  0.0480  0.1962
31020W        W47867  16.591   4.354   0.793  0.0661 -0.1037 -0.1289
31021W        W47868   3.807  10.376   4.337  0.3379 -0.0630  0.2865
31022W        W47869  17.557  14.701  11.565  0.3780 -0.3539  0.1873
31023W        W47870  17.576   0.414  12.692  0.1357 -0.1031 -0.2257
31024W        W47871  12.806  17.624   2.776  0.0186 -0.1486 -0.0252
31025W        W47872  13.759  19.414   5.036  0.2584 -0.1269  0.1222
31026W        W47873   9.876  12.155   2.950  0.2880  0.3065 -0.1969
31027W        W47874  14.188   8.387  11.811 -0.0480  0.0945 -0.1317
31028W        W47875   6.509   2.988   1.810  0.0243 -0.3261  0.1844
31029W        W47876   2.389   3.952   0.392 -0.0605 -0.1037  0.0670
31030W        W47877  15.527  19.311   2.043 -0.0257  0.0706 -0.1263
31031W        W47878  18.574   8.920  12.241 -0.1235  0.0879  0.1002
31032W        W47879   9.405   4.099   4.297 -0.0138  0.0436  0.0893
31033W        W47880  17.885   6.840  13.307  0.2560 -0.3034 -0.1064
31034W        W47881   2.417   5.123   2.033 -0.0453 -0.1922 -0.1860
31035W        W47882  13.752   5.154   0.407 -0.0350 -0.1668  0.3071
31036W        W47883  13.997   4.045  13.460 -0.1142  0.1645 -0.0019
31037W        W47884  15.250   9.779  11.789  0.1861 -0.0831 -0.1199
31038W        W47885  16.994  18.015   3.034 -0.2015 -0.2212 -0.2343
31039W        W47886   9.289  16.386   2.785 -0.2751 -0.1966 -0.0257
31040W        W47887   8.302  14.527   1.655 -0.3215 -0.0689 -0.0375
31041W        W47888  18.615   2.932  14.388  0.2363  0.0518 -0.0017
31042W        W47889  18.790   0.139  11.654  0.2576  0.2541  0.0434
31043W        W47890   9.783   0.091   1.911 -0.1667  0.2980  0.0038
31044W        W47891  12.162   3.648  10.622  0.2421  0.1719  0.2822
31045W        W47892  17.368  10.667  10.936  0.0451 -0.3539  0.0420
31046W        W47893   4.212   7.383  11.740 -0.2925 -0.0583  0.1323
31047W        W47894  17.133   0.499   3.294  0.0773  0.0432  0.1358
31048W        W47895   9.666  11.425   1.367  0.0795 -0.1168 -0.0090
31049W        W47896   8.614   7.111   0.161  0.4400 -0.2462 -0.2375
31050W        W47897   6.131  18.816  11.492 -0.0696 -0.2278  0.0308
31051W        W47898   9.871  12.080   5.370 -0.0512 -0.2446 -0.0977
31052W        W47899   5.863   2.424   4.318  0.2278 -0.0825  0.1365
31053W        W47900   1.407   8.985  13.018  0.2076 -0.1328  0.2839
31054W        W47901   7.608   0.672  12.665 -0.2258 -0.2730 -0.1451
31055W        W47902  16.005   9.392  14.183  0.0089  0.4300 -0.3835
31056W        W47903  13.233  10.332  12.109  0.0330  0.2169  0.0626
31057W        W47904   2.917   1.292   5.242 -0.0853 -0.1124 -0.1541
31058W        W47905  14.232   0.052   1.286 -0.0464  0.1110 -0.1903
31059W        W47906  17.039   7.486   4.745  0.3578  0.0276  0.0305
31060W        W47907  17.059  12.718   0.926  0.0085  0.2418  0.0528
31061W        W47908  10.390   5.385   0.660  0.0795 -0.1984  0.1414
31062W        W47909  15.777   4.139   4.602  0.0639 -0.0515  0.2931
31063W        W47910  18.209  18.507  12.477 -0.0110  0.2238  0.2080
31064W        W47911   3.548  16.034   0.250 -0.2355 -0.0887  0.0226
31065W        W47912   0.800  11.546  14.413  0.0345  0.3069  0.0064
31066W        W47913  18.427   4.923   3.640 -0.1280  0.1014 -0.3221
31067W        W47914  15.423   0.554  11.490  0.0483  0.0445 -0.1452
31068W        W47915  13.885   6.014  12.934 -0.0526 -0.0285  0.0370
31069W        W47916   2.399  14.209   9.848  0.1249  0.1236 -0.3220
31070W        W47917   1.768  14.104   1.406  0.1740  0.0667  0.3492
31071W        W47918  15.127  11.562   0.086 -0.1476  0.1857  0.1782
31072W        W47919   9.604   5.236  10.642  0.3136  0.1798 -0.0274
31073W        W47920   3.801  13.362  10.596 -0.1975  0.3134 -0.0251
31074W        W47921  10.811  18.588  10.132 -0.1451  0.0345  0.0167
31075W        W47922  15.617  10.996  12.689 -0.4236 -0.4743  0.1102
31076W        W47923  10.997   9.432  13.656  0.1617  0.0250 -0.1766
31077W        W47924   3.959  10.734  13.343 -0.2307 -0.4834 -0.3089
31078W        W47925  18.716   9.023  11.228 -0.1424 -0.0249 -0.1136
31079W        W47926   8.189  11.121   1.837  0.1009 -0.1380 -0.1390
31080W        W47927   5.217  16.568  13.244 -0.0479 -0.2835  0.1252
31081W        W47928  19.187   3.642  11.457 -0.0849 -0.3013 -0.1266
31082W        W47929  19.234   8.405   0.765  0.0767 -0.0060  0.1767
31083W        W47930  15.230   6.421  12.859  0.2724 -0.1140  0.1299
31084W        W47931  18.829   4.221  12.241  0.0352  0.0177 -0.3134
31085W        W47932  10.379  14.016   0.597  0.3516 -0.1925  0.0201
31086W        W47933  17.059   5.785  13.703 -0.1379 -0.0374 -0.1713
31087W        W47934  13.422   4.179   2.605 -0.0448  0.1539  0.1398
31088W        W47935   2.459   6.556  13.194  0.4338  0.0806 -0.1193
31089W        W47936  19.167   3.671  14.463  0.0032  0.3004  0.1422
31090W        W47937   4.369  19.102  13.678  0.0840 -0.1265 -0.1570
31091W        W47938   2.889   6.365   2.613  0.0387 -0.4942  0.3330
31092W        W47939   7.352  15.889  13.269  0.3683  0.0020 -0.0022
31093W        W47940  19.198   8.342  11.644  0.0494  0.1102  0.0393
31094W        W47941  12.410  17.355   4.599  0.0216 -0.1713  0.3872
31095W        W47942   2.157   1.326   1.678 -0.0949  0.1435 -0.2199
31096W        W47943  17.703   5.635   3.833 -0.2643 -0.0652  0.0272
31097W        W47944   4.578   8.476   5.747  0.0635  0.0781  0.0657
31098W        W47945  13.154   7.673   3.263 -0.3073 -0.1802  0.0230
31099W        W47946  10.773   1.397   2.499 -0.3376 -0.0175  0.0372
31100W        W47947   0.621  10.740   0.810 -0.0825 -0.0295 -0.0437
31101W        W47948   4.451  10.623  11.274  0.1493  0.1409  0.4607
31102W        W47949   7.154  15.652  10.591  0.0435 -0.1041 -0.3952
31103W        W47950   1.609  19.003  13.720  0.2110  0.2928 -0.1066
31104W        W47951  12.764   3.384  11.256 -0.1545 -0.1143  0.0635
31105W        W47952   5.823   2.868   3.815  0.1044  0.2510 -0.0421
31106W        W47953   5.620  16.467  14.133  0.1217  0.1624  0.3335
31107W        W47954  14.212   9.889   3.933 -0.1092 -0.1435 -0.1179
31108W        W47955   7.388  13.261  13.693 -0.0173  0.2368  0.0149
31109W        W47956  17.727   3.645   2.775  0.2068 -0.0454 -0.0615
31110W        W47957  13.870   0.952  10.902 -0.1523  0.0572 -0.3169
31111W        W47958  17.351   2.676  10.533  0.3089  0.1365  0.0570
31112W        W47959  12.042   5.832   4.164 -0.1318 -0.0905  0.1736
31113W        W47960  14.910   4.469   0.254  0.0566  0.1304  0.0709
31114W        W47961   8.410   3.171   1.943  0.1671  0.3225  0.0747
31115W        W47962   8.707  18.362  10.075 -0.1394 -0.5466  0.0625
31116W        W47963   3.968  10.522  11.556  0.2054  0.2209 -0.0144
31117W        W47964   2.210   3.747   2.078 -0.2783  0.0171 -0.3876
31118W        W47965   6.782  16.687   1.421 -0.1670  0.1050  0.0865
31119W        W47966  15.454   1.837  13.037 -0.1126 -0.0392 -0.2925
31120W        W47967  18.152  18.105   0.820  0.4329  0.0864  0.0709
31121W        W47968  14.402   1.807  10.294  0.0688  0.3344 -0.4633
31122W        W47969   1.871  17.728   3.422  0.0130 -0.0493 -0.2217
31123W        W47970   1.819   8.283   1.516 -0.3204 -0.0954 -0.3337
31124W        W47971   9.937   7.880   5.393 -0.1619  0.1048 -0.0383
31125W        W47972   5.383  16.888   1.586 -0.0980 -0.1600  0.0072
31126W        W47973   0.643  11.279   0.666  0.2314  0.2973  0.2183
31127W        W47974   4.845   5.363  14.209 -0.0900  0.0298 -0.2075
31128W        W47975   2.616   1.929  11.304 -0.0683  0.1746 -0.1937
31129W        W47976  10.316  14.641   3.577 -0.1027  0.0244 -0.0250
31130W        W47977   9.547   7.456   2.515 -0.0999 -0.0740 -0.1575
31131W        W47978   3.088  14.018   2.519  0.0526 -0.0721  0.2368
31132W        W47979   6.028  16.994  12.114  0.0681 -0.0506 -0.0111
31133W        W47980   4.442   2.200   5.204 -0.2778 -0.0948  0.0708
31134W        W47981  14.297  15.096   4.002  0.1045 -0.0321  0.0663
31135W        W47982  10.691   6.144   3.287 -0.0600 -0.3348  0.1300
31136W        W47983  16.345  11.403   4.321 -0.0818  0.1971  0.3830
31137W        W47984  13.593   3.234   1.631  0.1358 -0.0810  0.1304
31138W        W47985  11.523  10.213   1.677 -0.1044  0.1044  0.1390
31139W        W47986  14.014   1.484   3.010  0.0007  0.0369  0.1242
31140W        W47987  16.923   0.364  13.689 -0.6218  0.0092 -0.4216
31141W        W47988  16.282  13.717   0.929 -0.0531 -0.2752  0.0139
31142W        W47989  15.107   3.649   2.901 -0.2428 -0.1094  0.2210
31143W        W47990   9.491  17.200  14.273  0.2042 -0.1307 -0.0219
31144W        W47991   6.517  10.780   2.059 -0.1263  0.1718 -0.1127
31145W        W47992  13.754  12.079  11.424  0.1839 -0.1788  0.1028
31146W        W47993   6.948  17.864   3.936 -0.4220  0.2583  0.0797
31147W        W47994   5.762   3.500   0.817 -0.1379 -0.6966  0.1239
31148W        W47995  12.191   4.108   1.467  0.0796  0.1304 -0.0390
31149W        W47996  17.969   1.924  11.530 -0.0200 -0.0968  0.2500
31150W        W47997  17.038   8.522   0.766 -0.0656 -0.1901 -0.2930
31151W        W47998  18.183  16.173  10.874 -0.1740 -0.0640 -0.0317
31152W        W47999   2.505  13.415  10.204 -0.0720  0.0192  0.0027
31153W        W48000   2.582  19.213  12.666  0.1233 -0.2344  0.4508
31154W        W48001  11.978  19.219  12.917 -0.0827  0.0611 -0.4293
31155W        W48002   0.829   8.479  12.314 -0.0857  0.1032 -0.2509
31156W        W48003   9.360  11.655  11.029  0.0763 -0.2515 -0.0310
31157W        W48004   1.112   7.449   5.094 -0.1480 -0.0451  0.3797
31158W        W48005  18.410   9.772  12.463  0.0940 -0.0672  0.2020
31159W        W48006   6.835   7.596   5.586  0.1299  0.0350 -0.0700
31160W        W48007  16.214   5.368  11.337  0.0096  0.0039 -0.0428
31161W        W48008   9.443   4.117  14.124 -0.1779  0.1857 -0.1489
31162W        W48009   3.808   3.565   1.412 -0.2583 -0.1463 -0.1518
31163W        W48010  16.257   9.838  13.141  0.1359 -0.1050  0.2573
31164W        W48011   0.075   0.233   9.690 -0.0694 -0.2677  0.1568
31165W        W48012   6.616   2.868  11.400  0.1400  0.1470 -0.2051
31166W        W48013   2.206  10.730  10.528 -0.0685 -0.0572 -0.2391
31167W        W48014  18.643   7.882   0.397 -0.0147  0.1482  0.3771
31168W        W48015  17.238   0.919   4.155  0.0468  0.1745 -0.1362
31169W        W48016  15.558  10.574  13.496  0.2049  0.2457  0.0395
31170W        W48017  19.614   6.784   1.449  0.3028  0.1502 -0.0210
31171W        W48018   1.783  18.203  13.166  0.2866  0.1283 -0.1620
31172W        W48019  19.077  12.279  12.518  0.3134  0.0141 -0.1121
31173W        W48020  14.366   5.759   0.683  0.0705 -0.3983  0.0528
31174W        W48021  18.842   4.167   3.648 -0.1785 -0.1815 -0.0109
31175W        W48022  17.992   8.475   0.809 -0.1067 -0.0544  0.1045
31176W        W48023  12.601   0.496  12.733 -0.3100  0.1750  0.2173
31177W        W48024   6.270  16.216   2.347 -0.0394 -0.2925  0.0360
31178W        W48025  18.984  10.563   4.062  0.2946 -0.0639 -0.1081
31179W        W48026   4.770   2.750  13.110  0.2161  0.0905 -0.3005
31180W        W48027   3.593  17.925  10.955 -0.2069 -0.1359  0.0023
31181W        W48028  13.003   8.594   9.212  0.2502 -0.0051  0.0945
31182W        W48029   9.515  12.047   3.346 -0.2793  0.0919  0.0290
31183W        W48030  10.713   8.955   1.014 -0.0617 -0.1406 -0.0897
31184W        W48031   3.290  10.824   2.179 -0.0184 -0.3541  0.0699
31185W        W48032  14.555   9.285   2.110 -0.0842  0.1176 -0.2973
31186W        W48033   1.024  18.936   1.132  0.0686 -0.0114  0.0394
31187W        W48034  16.187   0.854   3.442  0.1160  0.1466  0.1863
31188W        W48035   8.629   5.755  13.160 -0.0666  0.0450 -0.1183
31189W        W48036  17.612   6.053  12.868 -0.0853 -0.0892  0.1420
31190W        W48037  16.563  14.838  13.357  0.0833 -0.0419 -0.2717
31191W        W48038  11.787  16.205  11.473  0.0264  0.0229  0.3104
31192W        W48039   8.707  16.166  10.402 -0.0590  0.4981 -0.3321
31193W        W48040   0.699   8.096  14.592 -0.0201 -0.2213  0.0563
31194W        W48041   4.678  13.657  12.751  0.3213 -0.4393  0.2356
31195W        W48042  14.171   5.167   3.153  0.1746  0.2312 -0.0383
31196W        W48043  12.332  10.241  14.485 -0.0765  0.1702 -0.1114
31197W        W48044  11.829  13.148   4.253  0.1231  0.0775  0.0319
31198W        W48045  10.322  11.724   4.002  0.0887 -0.1889 -0.1858
31199W        W48046  19.128  12.024   2.446  0.1489 -0.2916 -0.2074
31200W        W48047   2.339   8.682  13.691 -0.2158  0.3937  0.2909
31201W        W48048  18.614  10.402  11.546  0.1413 -0.2299  0.3228
31202W        W48049  16.813   2.171  13.644  0.4261 -0.0742  0.0772
31203W        W48050  14.794   9.597   0.903  0.3990  0.2197  0.1382
31204W        W48051   6.578   9.311   2.357  0.1292 -0.0384  0.0120
31205W        W48052  16.868   7.241   5.259  0.1106 -0.1912  0.0562
31206W        W48053  17.795   2.934  13.742  0.1683 -0.0535 -0.5632
31207W        W48054  18.457   7.597   3.064 -0.2370  0.1208 -0.0852
31208W        W48055   4.924   4.723  11.905 -0.0108  0.1163 -0.2057
31209W        W48056  10.805  15.609  13.794 -0.2162  0.2677 -0.0741
31210W        W48057   9.453   1.442   4.201 -0.1056  0.1526 -0.1118
31211W        W48058  15.594   0.707  10.581 -0.0332 -0.1571 -0.3651
31212W        W48059  19.078  12.726   4.721 -0.1086  0.1206  0.0053
31213W        W48060  19.124   7.410   9.436  0.1723 -0.0782 -0.0205
31214W        W48061   3.850   2.463   2.556 -0.0079 -0.3051 -0.3512
31215W        W48062  11.319   4.676   0.421  0.5311 -0.1678 -0.0230
31216W        W48063  16.046  13.535   0.343 -0.3303  0.3903  0.0652
31217W        W48064  17.586  13.895   2.023 -0.2189  0.2399 -0.2608
31218W        W48065   1.399  16.237   4.027  0.3604  0.0965  0.2418
31219W        W48066  18.441   6.547   0.984 -0.0314 -0.0165 -0.2253
31220W        W48067  16.932   2.403  13.221  0.1284  0.1998  0.1166
31221W        W48068   2.241  12.554   2.212 -0.0942  0.0895 -0.2566
31222W        W48069   7.514   9.268   2.836 -0.2051 -0.1246  0.5676
31223W        W48070   0.782  12.205  14.270 -0.1507 -0.0787 -0.1556
31224W        W48071  17.278   2.895   2.956  0.0564 -0.2649 -0.0365
31225W        W48072   9.602  16.552   1.960 -0.0008 -0.1602  0.2352
31226W        W48073  12.063   6.188   4.540  0.0835 -0.0045  0.0208
31227W        W48074  13.245  11.493   3.051  0.6050  0.1227  0.3912
31228W        W48075  10.307   5.626   1.656  0.3102 -0.0700  0.2843
31229W        W48076  15.539   9.445  11.534 -0.1967 -0.0702  0.0272
31230W        W48077   5.731  12.712  10.706 -0.0947  0.0623 -0.0056
31231W        W48078   0.593   3.304  14.022  0.0850 -0.2592  0.1256
31232W        W48079  11.139   5.705   4.481 -0.1979  0.0436 -0.2285
31233W        W48080  17.862   8.598  11.732  0.2384 -0.0652 -0.2069
31234W        W48081  19.475  18.351   1.101  0.1118 -0.0074  0.2299
31235W        W48082   6.843  17.371   3.834 -0.2803 -0.0739 -0.0014
31236W        W48083   9.416  12.716  13.198 -0.1929 -0.1797  0.2849
31237W        W48084  11.243   1.810   4.490 -0.1371 -0.0292  0.0263
31238W        W48085   4.977  11.031   9.911 -0.0586 -0.0699 -0.3396
31239W        W48086   3.232   1.260   3.162  0.1362  0.2789  0.3914
31240W        W48087  12.712   6.101  11.479 -0.1361  0.1029  0.1792
31241W        W48088  11.793  15.135  13.247 -0.0036  0.1313 -0.3632
31242W        W48089  10.216   7.269   1.074 -0.0070 -0.2247  0.0294
31243W        W48090  11.633   2.312  13.166 -0.2530  0.0633  0.4054
31244W        W48091   9.939   6.685  10.009  0.1325 -0.1172  0.2449
31245W        W48092   2.640   7.707  13.343  0.0996 -0.2290  0.3012
31246W        W48093  14.340   8.884  11.877  0.0784 -0.0977 -0.0836
31247W        W48094  19.534   9.307   4.478  0.1531  0.0032 -0.2562
31248W        W48095  14.418  12.871   2.191 -0.1487 -0.0472 -0.1909
31249W        W48096   9.858   6.590   5.627  0.2275  0.0592 -0.0980
31250W        W48097   0.522  17.919   1.795  0.1042 -0.3743 -0.1996
31251W        W48098  14.667  17.769  12.157  0.0181 -0.1057 -0.2501
31252W        W48099   9.857   1.163   3.520  0.1749 -0.2011  0.4048
31253W        W48100   4.742   1.021  12.939 -0.1570  0.1888  0.1125
31254W        W48101   6.734  11.061   4.798  0.0275  0.2891  0.1184
31255W        W48102  10.714  14.889  12.294 -0.1395  0.1245  0.1590
31256W        W48103  17.743  14.149  10.869 -0.0200  0.1702  0.0893
31257W        W48104  13.707   5.133   2.347  0.0017  0.1300 -0.2472
31258W        W48105   5.706   3.579   4.029  0.1669  0.0873  0.0850
31259W        W48106   9.768  13.381   3.980  0.0180  0.0273  0.2799
31260W        W48107   4.786   8.677   4.289 -0.3414 -0.2809 -0.0006
31261W        W48108  10.346   8.225   1.657 -0.4483 -0.1996  0.2369
31262W        W48109   9.936   6.042  13.094  0.2453  0.0956  0.0758
31263W        W48110   4.938   9.143  10.215  0.2073 -0.0348  0.1807
31264W        W48111   4.425  18.593   1.054  0.2472  0.0093  0.0045
31265W        W48112   4.623   2.371   3.818  0.1043 -0.2141 -0.1164
31266W        W48113  12.220  15.947   3.261  0.1633  0.3330 -0.4610
31267W        W48114  19.384   6.538  10.736  0.3849 -0.2414 -0.2385
31268W        W48115   3.958   7.024  13.127  0.3026 -0.0017 -0.2920
31269W        W48116  12.701   1.064  11.744 -0.1825 -0.3375 -0.0307
31270W        W48117  15.410   8.590  10.419  0.0422 -0.1981  0.0310
31271W        W48118   3.052  17.213   0.330  0.0690 -0.0517 -0.1156
31272W        W48119   8.243   0.963   0.819  0.0954 -0.1915 -0.2736
31273W        W48120  17.059   6.904  11.321 -0.1215 -0.1571 -0.2694
31274W        W48121  19.622   5.944  13.968  0.0887  0.1034 -0.1375
31275W        W48122  19.602  15.939   0.598  0.4571  0.3774  0.0248
31276W        W48123   1.472   4.454   2.345  0.2064 -0.1479  0.0187
31277W        W48124  12.725  16.028   0.217  0.4299 -0.2271  0.2535
31278W        W48125   8.031   2.722   1.258  0.2474  0.2370 -0.3626
31279W        W48126   1.672  11.242   2.023  0.1750 -0.0286  0.0678
31280W        W48127  12.683   0.559  10.302 -0.1061  0.1342 -0.3371
31281W        W48128   2.898  15.465  12.640  0.0062  0.1123  0.0463
31282W        W48129  14.502  17.724  13.351  0.0115  0.1789  0.0165
31283W        W48130   6.183  11.568   1.095  0.1025 -0.3540 -0.3366
31284W        W48131  14.139  11.244  13.858  0.0953  0.1072 -0.2721
31285W        W48132  13.327  15.874   3.874 -0.1744 -0.1999  0.1295
31286W        W48133  19.050  11.955  12.033 -0.1016 -0.2128 -0.0800
31287W        W48134  11.960   2.606   4.125  0.1857  0.2923  0.0708
31288W        W48135   7.977  18.795   4.135 -0.2999 -0.2044 -0.0272
31289W        W48136  14.583  12.782   1.704 -0.0513 -0.0702 -0.1019
31290W        W48137   6.971   7.777   0.882  0.1106  0.1348 -0.0738
31291W        W48138   1.167   4.130  13.271 -0.0479  0.0671 -0.0429
31292W        W48139   7.352  14.393  10.371 -0.1243  0.2714  0.2103
31293W        W48140   7.605  15.565  14.043 -0.0383  0.2421  0.0283
31294W        W48141   5.422  10.426  13.426  0.2652 -0.0883 -0.1788
31295W        W48142   5.015   4.865   3.777 -0.1586 -0.0449  0.0184
31296W        W48143  13.292  10.593  13.575 -0.1342 -0.4301  0.0587
31297W        W48144  14.679  13.919  10.847 -0.2056  0.5628  0.0814
31298W        W48145   1.984   0.269  11.075  0.0070 -0.1047 -0.0789
31299W        W48146   7.912   6.598  13.379 -0.3470 -0.0680  0.0267
31300W        W48147  18.586   0.896   2.833  0.0558  0.1430  0.0091
31301W        W48148  14.186   6.554   3.397 -0.0210  0.2090  0.3194
31302W        W48149   6.137   3.153   1.029 -0.1563  0.3244 -0.0679
31303W        W48150   5.772  10.485  14.043 -0.0957 -0.0019  0.1975
31304W        W48151  15.166  10.296  14.420 -0.0547  0.0455 -0.1064
31305W        W48152   7.805  11.976   2.210  0.1910 -0.1530  0.1640
31306W        W48153   1.392  14.516   2.182 -0.1894  0.1094 -0.1996
31307W        W48154  18.574   4.793  10.463 -0.0688 -0.1429 -0.0897
31308W        W48155  14.761  14.957  11.855  0.1356 -0.1756 -0.1170
31309W        W48156  13.497  10.080   3.573  0.1284 -0.4179  0.1123
31310W        W48157   4.127  13.596  11.507 -0.0216 -0.0254 -0.2331
31311W        W48158  11.331  18.091  12.005  0.0366 -0.3485  0.0573
31312W        W48159  13.940   4.908  14.187 -0.1202 -0.1591 -0.1412
31313W        W48160  12.433   5.093   2.867  0.2712  0.1513 -0.1959
31314W        W48161   6.865   8.286  12.723 -0.2497  0.0086 -0.2343
31315W        W48162   7.066  14.331   0.998  0.2499  0.0091  0.0864
31316W        W48163   8.624  18.837  14.283 -0.1546 -0.0451  0.0502
31317W        W48164   1.254   9.779   3.533  0.0220 -0.0075 -0.0680
31318W        W48165   2.844   9.739  11.776 -0.3392  0.2765  0.3741
31319W        W48166   1.881   0.344   4.536 -0.0145 -0.1316 -0.0990
31320W        W48167  11.549   8.181   2.207 -0.2777 -0.0038 -0.0240
31321W        W48168   0.652   7.273   2.655 -0.1445 -0.0508  0.4484
31322W        W48169   1.800  11.404   3.049  0.1242 -0.0440 -0.0704
31323W        W48170  16.447   1.249   3.486 -0.2088 -0.0637 -0.0525
31324W        W48171   5.766  14.484  14.331 -0.1743  0.2867 -0.0412
31325W        W48172  18.081   6.619  14.152  0.0115  0.4490 -0.0257
31326W        W48173  17.552  18.480   3.590 -0.0008 -0.1574 -0.1573
31327W        W48174  16.903  10.159   1.999 -0.0957  0.1130  0.1727
31328W        W48175   4.833   0.352  10.525 -0.0615 -0.0878  0.0328
31329W        W48176  19.350   9.205   3.862 -0.0408 -0.1344 -0.0377
31330W        W48177  16.852   4.709   2.099 -0.1233  0.1100  0.1770
31331W        W48178   8.176  17.287  11.146 -0.0259 -0.0585  0.0053
31332W        W48179  16.219   1.895   3.929  0.0203  0.3434 -0.0769
31333W        W48180   7.785  17.531   1.532 -0.0345  0.2545 -0.2649
31334W        W48181  13.157   1.480   9.556 -0.2241  0.0787  0.0154
31335W        W48182   9.231   2.993   1.874  0.0646  0.0619  0.1722
31336W        W48183   0.341   6.081  11.645 -0.1376 -0.0636  0.2775
31337W        W48184   7.563  10.964  13.174 -0.2406  0.0852 -0.0717
31338W        W48185   4.790   4.980  10.998  0.0338  0.0652  0.1996
31339W        W48186   7.111  16.182  10.449 -0.0579  0.0200  0.1266
31340W        W48187   7.914  10.730   9.921  0.2564  0.2364  0.0841
31341W        W48188  14.422  12.707   0.217 -0.0993 -0.1661 -0.1646
31342W        W48189  11.033   1.704  12.503 -0.2825  0.0613  0.3081
31343W        W48190   8.227   3.671  11.981 -0.1713  0.1302  0.0686
31344W        W48191   0.184   3.200   1.041 -0.1440  0.0290 -0.1203
31345W        W48192   4.819   2.769   2.554  0.5071  0.1018 -0.4990
31346W        W48193  11.245   0.234   3.000 -0.0847  0.0677  0.2373
31347W        W48194  17.078  18.803   3.005 -0.4047  0.0154 -0.1316
31348W        W48195  17.738  10.745  11.499  0.1496  0.0972  0.3316
31349W        W48196   9.786  17.920   3.898  0.0846 -0.0912  0.1190
31350W        W48197  11.390  16.610  11.132 -0.1086 -0.0064  0.1121
31351W        W48198   0.585  16.804   2.138 -0.0332  0.1114 -0.1259
31352W        W48199   7.461   2.467   0.765  0.1560  0.1419 -0.0484
31353W        W48200  10.287  19.597  11.376  0.3708  0.1734  0.3096
31354W        W48201  18.528   1.772  14.154 -0.1636  0.0840 -0.2518
31355W        W48202  18.671   3.764   4.483 -0.0572 -0.1714 -0.0734
31356W        W48203   1.030   4.336  12.813  0.1448  0.0182  0.1636
31357W        W48204  12.471  10.054  13.075 -0.2333  0.1446 -0.0157
31358W        W48205  15.076   0.630  14.162 -0.2763  0.0053  0.1629
31359W        W48206   8.154   4.256  13.606  0.1230  0.1451 -0.1954
31360W        W48207  17.814  14.584  11.121  0.0569  0.0304  0.0068
31361W        W48208  11.089  14.451  13.524  0.2162  0.1809 -0.1761
31362W        W48209   6.672  16.058   1.143  0.1183  0.4465  0.0458
31363W        W48210  18.315  12.844  13.252  0.0034 -0.0205 -0.0870
31364W        W48211   5.635   3.052   4.278  0.1721 -0.1449 -0.0318
31365W        W48212  10.007   1.671   0.576  0.2154 -0.2466 -0.0579
31366W        W48213   3.833   4.925   0.243  0.0533  0.0644 -0.3843
31367W        W48214   6.520   6.914   2.684 -0.0532 -0.0320 -0.3512
31368W        W48215  12.769   4.422   1.623  0.2871  0.0781  0.0499
31369W        W48216   6.881  18.272   3.014  0.0566 -0.0665 -0.1137
31370W        W48217  12.613  12.294  10.706  0.1423  0.0181  0.2375
31371W        W48218  16.461  10.891   1.154 -0.2209 -0.1543  0.1475
31372W        W48219  13.639   9.984  11.751 -0.2399  0.0607 -0.1689
31373W        W48220  14.490  11.286  10.535 -0.2130 -0.1865 -0.2131
31374W        W48221   6.599  17.975  11.903 -0.0121 -0.1824 -0.1312
31375W        W48222  16.725  12.167  10.188  0.2360  0.2007  0.2713
31376W        W48223   3.110  10.686  11.773  0.2826 -0.0004  0.0682
31377W        W48224  15.297   7.646  11.957  0.3581  0.1722 -0.1427
31378W        W48225  19.612   8.194   5.773  0.0614 -0.0475  0.1597
31379W        W48226  11.631   3.475  14.434  0.0999  0.3252 -0.3370
31380W        W48227   2.222  16.763   4.234 -0.2107  0.0286 -0.0924
31381W        W48228  16.475  18.422  14.297 -0.0130  0.0471  0.3234
31382W        W48229  14.512   6.069   4.258  0.2637  0.0167 -0.3560
31383W        W48230  17.945  11.168  14.058 -0.1678 -0.1163  0.1996
31384W        W48231  10.537   2.560   1.974  0.0437  0.0690  0.3067
31385W        W48232  18.944   6.892   3.789  0.3373  0.0185  0.0191
31386W        W48233   4.739   4.320  13.576  0.3355 -0.0984  0.2619
31387W        W48234  13.373   7.627   9.479 -0.0957  0.2027  0.0407
31388W        W48235  15.594   3.889   4.000  0.1334  0.0502  0.0634
31389W        W48236   2.508   4.803   3.038  0.0130  0.0404  0.1905
31390W        W48237  10.407   0.815   0.986  0.1593 -0.2652 -0.1570
31391W        W48238   2.024  14.807  12.656 -0.0186  0.1300 -0.0401
31392W        W48239   7.784  11.820   9.791 -0.0374  0.1291  0.2722
31393W        W48240  13.381  16.372  10.610 -0.1605 -0.1593 -0.0813
31394W        W48241   3.946   8.715   4.988 -0.2237 -0.2543  0.1814
31395W        W48242  18.606  11.570   1.450  0.1934  0.1165 -0.0972
31396W        W48243  11.960   4.058   3.088 -0.1646 -0.1763 -0.0386
31397W        W48244  12.269   7.000   4.205  0.2599  0.0385 -0.2980
31398W        W48245  13.939  16.819   0.405 -0.2006  0.0987 -0.0805
31399W        W48246   9.229  10.026   1.582  0.1888  0.0790 -0.1569
31400W        W48247  13.555   5.188  13.920  0.0332  0.0642  0.0840
31401W        W48248   8.754  18.301   0.938 -0.1417 -0.2355  0.1516
31402W        W48249  11.596   2.799  10.757  0.0968 -0.0124 -0.3505
31403W        W48250   4.679  16.106  12.527 -0.1289  0.0043 -0.0437
31404W        W48251  16.340  11.724   2.890 -0.1332  0.2119 -0.0915
31405W        W48252  12.668  12.652   3.932 -0.0379  0.0535  0.2159
31406W        W48253  13.382  13.848  12.621 -0.4514 -0.1302 -0.0781
31407W        W48254   5.823  15.220   2.127 -0.1922  0.3439  0.0072
31408W        W48255  14.238  12.579  14.356  0.3332  0.1197 -0.0037
31409W        W48256   3.900   0.645   1.321  0.2348  0.0375 -0.0006
31410W        W48257  11.776   5.274  11.960 -0.0956 -0.0423 -0.2139
31411W        W48258  10.247   7.077   1.599  0.1078  0.0218 -0.0535
31412W        W48259   3.765   4.329   3.901 -0.0873 -0.0387 -0.1315
31413W        W48260  13.860   2.527  11.643 -0.0917  0.2335  0.0947
31414W        W48261   3.827  16.807  14.449  0.2246  0.0096  0.0243
31415W        W48262   9.525  17.156  10.669 -0.0608  0.1095  0.0432
31416W        W48263   4.345   4.692  12.165  0.2627 -0.2505  0.0082
31417W        W48264  10.355  10.236  11.089  0.0415 -0.3074  0.0878
31418W        W48265  16.965  14.306   3.967  0.0421 -0.1328 -0.0495
31419W        W48266   2.123   2.105   0.590 -0.0239  0.0194 -0.0333
31420W        W48267   4.283  14.355   3.122  0.1862 -0.1470 -0.0866
31421W        W48268  14.063   5.218   4.291  0.3001 -0.2514 -0.1755
31422W        W48269  16.557   1.092  14.108  0.0244  0.1814  0.0841
31423W        W48270   5.103  12.896   3.506  0.0143  0.0586  0.0685
31424W        W48271   1.774  18.203   5.162 -0.0090  0.4035 -0.0568
31425W        W48272   1.748   8.618   0.156 -0.1268  0.1341 -0.1195
31426W        W48273   8.370   9.454  12.453  0.3336  0.0199 -0.1905
31427W        W48274  13.363  12.408   3.335 -0.1137  0.0478 -0.0595
31428W        W48275  14.940   8.313   9.957  0.2344 -0.0119 -0.4810
31429W        W48276  15.988  15.224  10.665  0.1848 -0.0862  0.0014
31430W        W48277   5.022  12.816   0.793 -0.0899 -0.1272 -0.1090
31431W        W48278  17.949   8.829  14.336 -0.1455 -0.2719 -0.1011
31432W        W48279   5.696   8.159  12.245 -0.0214  0.1530 -0.1856
31433W        W48280  12.647  15.291   2.127  0.0681  0.0838  0.1345
31434W        W48281   9.808   6.967   2.569  0.0123 -0.2291 -0.0956
31435W        W48282   2.366   9.620  11.130  0.3649  0.1354  0.4253
31436W        W48283  19.052  18.718   0.193  0.3978 -0.2918  0.1127
31437W        W48284   6.460   7.892  14.272  0.0102  0.1761  0.1296
31438W        W48285   8.836  18.325   2.956  0.1355  0.2933 -0.2447
31439W        W48286  10.753   4.558   4.636 -0.2896  0.0167  0.2098
31440W        W48287   9.723   0.605  12.931  0.1759 -0.4951  0.1439
31441W        W48288   0.179  14.708   1.811 -0.2307  0.1798 -0.2251
31442W        W48289   7.352   7.510  11.328  0.4827 -0.1744 -0.0261
31443W        W48290  14.695   7.025   9.433  0.1128  0.1272 -0.1227
31444W        W48291   8.493   0.437   1.354 -0.1981  0.2063 -0.4707
31445W        W48292  11.870   7.563  12.190  0.1862  0.1037 -0.4523
31446W        W48293  14.481  15.791   4.873  0.2909  0.1584  0.0300
31447W        W48294  10.500  11.964  13.076  0.0235 -0.0090 -0.1088
31448W        W48295   1.295   9.538   4.603  0.1201  0.2627  0.0187
31449W        W48296   6.797   1.597  11.330  0.1549  0.0779  0.1375
31450W        W48297  12.073   8.430  12.737 -0.3227  0.1768  0.0993
31451W        W48298  18.089  14.265   4.860  0.1302 -0.4955 -0.0782
31452W        W48299  17.684  18.390  13.423 -0.2781  0.0887 -0.0718
31453W        W48300   6.156   7.754  11.516 -0.0660 -0.0544  0.0402
31454W        W48301   2.104   2.741  13.859  0.4062  0.4117  0.2237
31455W        W48302  14.939  18.731  11.798 -0.0741  0.2094 -0.4260
31456W        W48303  10.872  15.156   9.375  0.1121  0.1418  0.1411
31457W        W48304  11.316  14.993  12.512  0.1343  0.1457  0.0561
31458W        W48305   3.599   6.927  13.427 -0.1461  0.0450 -0.2537
31459W        W48306  16.017   3.581   2.673  0.1628  0.1291 -0.0927
31460W        W48307  12.432  11.169   1.879 -0.0521  0.2597 -0.3602
31461W        W48308  13.485  17.862  11.858  0.0231 -0.0545  0.2317
31462W        W48309  13.870   9.782   0.491  0.2903  0.0236  0.0111
31463W        W48310   9.201  13.109  10.808 -0.3233 -0.1143  0.0381
31464W        W48311  17.989   6.880  12.345 -0.0127  0.2966  0.1022
31465W        W48312   3.886  17.501  11.634  0.1305 -0.0065  0.0783
31466W        W48313  15.879  13.971   1.171  0.1963 -0.1830  0.2041
31467W        W48314   6.117  16.856   1.046 -0.1156 -0.3965  0.0187
31468W        W48315   2.048   9.688   5.726 -0.0159 -0.1301 -0.0833
31469W        W48316   0.263   3.621   1.959 -0.2289 -0.1097 -0.0049
31470W        W48317   6.462  15.581  11.989  0.0424 -0.2211  0.5275
31471W        W48318   0.537  16.968  10.892 -0.2462  0.4816 -0.2560
31472W        W48319   2.712   5.740   0.629  0.0135 -0.0445 -0.0392
31473W        W48320   4.897  14.638  12.151 -0.1790 -0.3436  0.1483
31474W        W48321  10.739   8.565   0.251 -0.0021 -0.2409  0.0102
31475W        W48322   6.051   7.821  13.165  0.0548  0.1710  0.1199
31476W        W48323  13.127  13.755   2.211  0.2070  0.0716 -0.0478
31477W        W48324  13.258  16.014  12.620  0.0654  0.0085  0.0417
31478W        W48325   7.064  15.200  12.315  0.2281 -0.1735 -0.1574
31479W        W48326  13.603  18.668  10.734 -0.0696 -0.1158 -0.0092
31480W        W48327  11.184  19.567   2.463  0.1761 -0.3576 -0.1603
31481W        W48328  10.582  18.296  12.364  0.0819 -0.0571 -0.1039
31482W        W48329  16.195   8.495   4.467 -0.1810 -0.1873  0.2139
31483W        W48330   5.747   5.806  12.313 -0.2220 -0.1798 -0.2199
31484W        W48331   3.610  16.162   3.013  0.2519  0.2074  0.1374
31485W        W48332  19.583  17.017   3.897  0.0812  0.2820  0.1206
31486W        W48333   0.927   3.980   1.706  0.2024 -0.0382 -0.1298
31487W        W48334   5.501   3.934   1.013  0.4484  0.3597 -0.0072
31488W        W48335  10.804  17.371   4.207 -0.2622  0.0064  0.0835
31489W        W48336  10.672  18.571   3.325  0.1979 -0.1509 -0.1149
31490W        W48337  18.821  12.933  11.243 -0.2690 -0.2290 -0.2136
31491W        W48338   2.122   9.005  14.125  0.2412 -0.2019  0.0116
31492W        W48339  13.035   2.862   0.813 -0.0359 -0.0668  0.1784
31493W        W48340   8.864  19.061  13.055 -0.0004 -0.0934 -0.1633
31494W        W48341  16.476  12.243   0.108  0.1691  0.1909 -0.0547
31495W        W48342  15.204  19.157   3.978  0.3242  0.2128  0.0893
31496W        W48343  19.068  12.514  13.002  0.0765  0.3186  0.2245
31497W        W48344  18.291   7.123   0.678 -0.3710  0.1629 -0.2567
31498W        W48345   1.178   8.036   5.296 -0.0530  0.4137  0.2046
31499W        W48346   4.526   3.137   2.832 -0.0170 -0.1998 -0.0567
31500W        W48347  12.175   6.737  12.394  0.2090 -0.0102  0.2051
31501W        W48348   6.871  12.419   0.476  0.2061 -0.1657  0.0342
31502W        W48349  17.593  12.589   2.911 -0.2193  0.1871 -0.3026
31503W        W48350   6.334   7.339  14.361 -0.0641 -0.2315 -0.4180
31504W        W48351   0.018   1.988   3.948  0.1305  0.0074  0.1491
31505W        W48352  13.924   3.377   2.681  0.0141 -0.0487  0.0063
31506W        W48353  11.502  15.622  11.317  0.0323 -0.4474  0.1590
31507W        W48354   5.930  13.160   4.307 -0.2580 -0.0153 -0.0489
31508W        W48355  12.217  11.879  11.645 -0.1869 -0.0737 -0.0486
31509W        W48356   3.926   1.200   0.141  0.1654 -0.1765 -0.0669
31510W        W48357  14.823   5.947  10.359  0.1602 -0.0535 -0.1190
31511W        W48358   2.167  18.953  10.956 -0.1457  0.1514  0.1677
31512W        W48359   1.788  10.847  13.856  0.0527 -0.0236 -0.1457
31513W        W48360  18.808  15.842   2.937 -0.0551  0.1574 -0.4679
31514W        W48361  12.136  15.094   4.025  0.0885  0.3590  0.4241
31515W        W48362   6.629  11.682  10.498 -0.0581  0.0523 -0.5034
31516W        W48363   8.263  16.861  10.778  0.1919  0.1140  0.0921
31517W        W48364   0.078   4.313  11.187 -0.1174 -0.0530  0.2193
31518W        W48365  15.609   7.444  12.570 -0.3052 -0.0741  0.1288
31519W        W48366   0.136  15.249  10.752 -0.0115 -0.0354  0.1042
31520W        W48367  12.597  13.308  11.835 -0.0116 -0.1368 -0.1513
31521W        W48368   6.775  19.257   1.151 -0.3272 -0.0928  0.3792
31522W        W48369   4.050   1.070   3.912  0.1450  0.0172  0.3411
31523W        W48370   7.712   3.295  12.748  0.4624 -0.1252 -0.2962
31524W        W48371  17.368   2.230   1.235 -0.0602  0.3164  0.0507
31525W        W48372   7.119   4.622  14.076  0.1306 -0.2049 -0.0371
31526W        W48373  16.301   7.926   0.486  0.2330 -0.0388 -0.2634
31527W        W48374   9.073   4.348  13.919 -0.0380 -0.0220  0.2307
31528W        W48375   6.253  16.733   3.655  0.0985  0.1647  0.0857
31529W        W48376  11.165   1.022  11.545  0.0594 -0.2888 -0.2493
31530W        W48377   0.506   4.243  14.094 -0.1352  0.1846  0.1230
31531W        W48378  11.850  15.316  14.197  0.2226  0.0983  0.0361
31532W        W48379   7.573  13.087  10.846 -0.3088 -0.1730 -0.1131
31533W        W48380   8.339   6.132  12.686 -0.0974 -0.2250  0.3469
31534W        W48381   4.246   1.875  11.835 -0.1048 -0.1447  0.0825
31535W        W48382  17.126   3.644   0.478 -0.2161 -0.3641 -0.0949
31536W        W48383  14.029  14.799   3.688  0.0556  0.0161 -0.1100
31537W        W48384   1.727   7.620  14.133  0.1152  0.1068  0.0187
31538W        W48385  18.619  18.345  12.262 -0.1243 -0.1168 -0.0002
31539W        W48386   4.872   8.978   3.462 -0.2017 -0.0781 -0.0742
31540W        W48387  12.529   6.782  14.183 -0.0967  0.1813  0.0501
31541W        W48388   9.372  13.083  13.505 -0.0127  0.1035 -0.1028
31542W        W48389  14.158   6.693   1.331 -0.3117 -0.3804  0.0572
31543W        W48390  15.087   0.088   0.806 -0.2316  0.0864 -0.1842
31544W        W48391  10.577  11.367   1.201  0.1006 -0.2492  0.1153
31545W        W48392  17.347  11.824  12.332 -0.0345 -0.2310 -0.2901
31546W        W48393   3.457  13.330  12.865  0.2083 -0.1480  0.4760
31547W        W48394   5.172  12.397  14.440  0.0674  0.0870 -0.2456
31548W        W48395   3.625   3.068   4.392 -0.0283 -0.1844 -0.4713
31549W        W48396   4.018  14.156   0.542  0.1120  0.3049  0.4943
31550W        W48397  10.906   3.283   0.402  0.4837 -0.0106  0.3223
31551W        W48398  13.673  15.862   4.279  0.4228 -0.2094  0.4040
31552W        W48399  16.260   1.319  10.214  0.2615 -0.1210  0.1028
31553W        W48400  16.603   1.517  14.335  0.1655 -0.3181 -0.1989
31554W        W48401  11.178   0.209  10.097 -0.0913  0.1799 -0.0282
31555W        W48402  16.573  15.855   1.888  0.3368 -0.1793 -0.4214
31556W        W48403   3.934   1.951  12.211 -0.0474 -0.0715 -0.0594
31557W        W48404  11.448  18.199   2.332 -0.1101  0.2724 -0.2210
31558W        W48405   3.613  19.267  13.628  0.0429 -0.0519  0.1754
31559W        W48406  16.576  15.665   0.626  0.0380  0.1221  0.0501
31560W        W48407   3.519   4.004   0.874  0.0916  0.0390 -0.0438
31561W        W48408   3.547   1.671   0.564  0.2995 -0.0829  0.2591
31562W        W48409   0.527   3.612  10.958  0.0009 -0.0604  0.0080
31563W        W48410   7.194   5.348   0.597  0.3448 -0.1525  0.1118
31564W        W48411  18.992  19.035  12.599 -0.4044  0.0740 -0.1792
31565W        W48412  15.648  15.331   3.638  0.0714 -0.0915  0.1664
31566W        W48413  11.552   3.687   2.322 -0.2489  0.2534 -0.0265
31567W        W48414  17.499  14.812   2.510  0.0759  0.0550  0.1145
31568W        W48415  19.601   3.692   1.083  0.0285 -0.2852 -0.2471
31569W        W48416   7.654  12.563   5.237  0.1038  0.0338  0.0497
31570W        W48417  17.125  13.115  11.242 -0.1284 -0.2472  0.2492
31571W        W48418   5.668   2.091   3.914  0.0193  0.3595 -0.3195
31572W        W48419   8.760   9.387   5.204  0.1109 -0.2660  0.3177
31573W        W48420   5.781  19.118   0.031 -0.2528  0.3886  0.1557
31574W        W48421  17.591   8.806   3.735 -0.0683 -0.2094 -0.1730
31575W        W48422   6.949  17.672   0.382  0.0646  0.2639 -0.0967
31576W        W48423   7.500  16.652   2.356 -0.0988 -0.1101  0.0968
31577W        W48424   6.367  12.555   5.243  0.3229  0.1380 -0.0330
31578W        W48425  12.691   0.742   0.873 -0.0187 -0.2769 -0.0277
31579W        W48426   1.791   3.667  10.395 -0.1770  0.4910 -0.0088
31580W        W48427  15.637   9.649   1.755 -0.2573  0.0305  0.0834
31581W        W48428   0.123  14.263  13.893  0.1225  0.1706  0.2969
31582W        W48429   5.380   5.530   1.711  0.1832  0.1071  0.0394
31583W        W48430   2.362   8.888   0.920  0.0100  0.1484 -0.2556
31584W        W48431   6.360   3.962  10.300  0.0014  0.2323 -0.1355
31585W        W48432  14.161   6.917   2.037 -0.3224 -0.0085 -0.1764
31586W        W48433  16.421   3.498   2.932 -0.0131  0.0449  0.1209
31587W        W48434  18.923   3.921   1.848 -0.1724 -0.1859 -0.1171
31588W        W48435  16.902  15.738  10.322  0.0335  0.0390 -0.1202
31589W        W48436   1.118   1.375  12.537 -0.1593 -0.2456 -0.2115
31590W        W48437   7.632  11.974   3.267  0.0579 -0.0353 -0.1792
31591W        W48438   2.561   0.511   9.942 -0.2482  0.1272  0.1172
31592W        W48439   0.446  18.605  11.791 -0.0048 -0.2694 -0.2977
31593W        W48440   3.384  17.121  12.782 -0.2535 -0.3328 -0.0531
31594W        W48441  18.318  10.573  11.154 -0.0793  0.2239 -0.2892
31595W        W48442   4.739  16.721  12.282  0.2877  0.1068 -0.1279
31596W        W48443   4.299  17.671  14.414 -0.1290 -0.2638 -0.0627
31597W        W48444   5.462   1.990   3.464 -0.1011  0.2227  0.0451
31598W        W48445   1.176   2.493   0.321  0.2547 -0.2183  0.3328
31599W        W48446  12.351  19.197  13.285 -0.0946 -0.0801  0.0022
31600W        W48447   1.612  11.730   2.747 -0.0113 -0.1457  0.0932
31601W        W48448  10.774  12.871   1.709 -0.0747 -0.0845  0.0877
31602W        W48449   2.880   6.005  10.700  0.2679 -0.0328 -0.2186
31603W        W48450  10.550   6.056  10.569 -0.2244  0.0750 -0.1078
31604W        W48451  10.031   1.966  11.799  0.2818 -0.1320 -0.1359
31605W        W48452  13.138  18.148  13.456  0.2012  0.1054  0.0797
31606W        W48453   4.090  11.321   4.314 -0.2244 -0.0035  0.1596
31607W        W48454   5.343  11.181   0.588  0.0393 -0.1422  0.0917
31608W        W48455  12.909  19.001  13.726 -0.0495  0.0784 -0.4657
31609W        W48456   0.285   5.767  11.163  0.3206  0.1722 -0.0547
31610W        W48457   0.536  16.830   1.002 -0.1880 -0.0491 -0.1358
31611W        W48458   7.888   2.755   0.794 -0.1996 -0.0095  0.1488
31612W        W48459  18.544   0.547  11.636 -0.0898 -0.3237  0.2120
31613W        W48460   4.460   0.132   3.379 -0.1690  0.0564 -0.0285
31614W        W48461  14.603  15.147  14.107 -0.1703 -0.1830  0.0312
31615W        W48462   6.606  19.090   3.502  0.0778  0.2456  0.3759
31616W        W48463  19.495  12.304  11.718 -0.1678 -0.0782 -0.2447
31617W        W48464   5.326  18.274  12.997 -0.1121 -0.2069 -0.0507
31618W        W48465  14.420   9.397  11.037  0.3402  0.2922  0.0818
31619W        W48466  17.592   7.159  10.681 -0.0076  0.2078 -0.1489
31620W        W48467   8.557  17.763  10.315 -0.1539 -0.1754  0.1086
31621W        W48468   1.941  14.537   9.926 -0.1785  0.2644 -0.0637
31622W        W48469   6.969  15.284   0.464 -0.0211  0.3073  0.1715
31623W        W48470   7.267   7.105  12.779 -0.1942 -0.0010 -0.2651
31624W        W48471   4.523   8.778   0.810 -0.2107  0.2156 -0.0269
31625W        W48472   5.800   7.269  11.883  0.2011 -0.3666 -0.0681
31626W        W48473   0.878   5.721   0.305  0.1145  0.0234  0.5029
31627W        W48474   0.662   6.768  11.031 -0.1665 -0.1005  0.4474
31628W        W48475   0.808  10.330   0.516  0.3644  0.2448  0.0566
31629W        W48476  12.251   3.104  13.258 -0.1847 -0.0865 -0.0290
31630W        W48477  14.767   3.274   2.244 -0.1539  0.1413 -0.3349
31631W        W48478   1.304  16.271   2.891  0.1786 -0.0186  0.2566
31632W        W48479   2.525   5.271   2.811 -0.4860  0.0673 -0.1573
31633W        W48480  13.228   6.472  11.136 -0.0675 -0.0708  0.0044
31634W        W48481  17.457  16.919   3.654 -0.0721  0.1185 -0.0715
31635W        W48482  17.936   2.387  13.456 -0.0155  0.1579  0.1937
31636W        W48483  14.688  15.592  13.303  0.0504  0.0338  0.0958
31637W        W48484  13.865   7.072   1.386 -0.0948  0.0036  0.1297
31638W        W48485  12.932   4.883   5.364  0.3531 -0.3667 -0.1142
31639W        W48486  16.397   0.289   0.514  0.0621 -0.2937 -0.2115
31640W        W48487   5.508   6.799   1.273 -0.1760  0.3039 -0.2002
31641W        W48488   9.619   7.907   4.234  0.0083 -0.2958  0.2389
31642W        W48489  19.220  17.783   1.279 -0.1096 -0.2916  0.1709
31643W        W48490   1.534   5.920   5.188  0.1003 -0.4107  0.3542
31644W        W48491  16.736   6.158   3.904 -0.2922 -0.0702  0.0917
31645W        W48492  16.656  17.895  14.089  0.1470  0.0587 -0.3092
31646W        W48493  10.802  18.884  10.972  0.1920 -0.2157  0.1528
31647W        W48494   0.059  19.218   3.965  0.0922 -0.0442  0.1313
31648W        W48495   6.762   1.228  11.673  0.0216 -0.0563  0.2109
31649W        W48496   9.803  10.961   0.221  0.0253  0.1104 -0.0013
31650W        W48497  12.178   2.544   1.644 -0.0160  0.1873 -0.4510
31651W        W48498  16.922  19.344   4.204  0.0849  0.2402  0.1294
31652W        W48499   3.065   6.846   3.106 -0.1837 -0.2800 -0.3723
31653W        W48500  16.826   9.023  10.811 -0.2898  0.2431  0.0148
31654W        W48501   7.770   9.163   4.399 -0.1594  0.0482 -0.1428
31655W        W48502  18.496  16.788   1.477 -0.1238  0.2633  0.2105
31656W        W48503   5.973   7.251   3.872  0.0590 -0.2223  0.2922
31657W        W48504  14.010  19.566  12.463 -0.1911  0.1484  0.1531
31658W        W48505   0.001   8.780  10.616 -0.1653  0.0455 -0.0637
31659W        W48506  13.741   3.281  14.486 -0.1475  0.0141  0.2326
31660W        W48507   8.116   3.402   4.406  0.2449 -0.0764  0.2079
31661W        W48508   6.630   2.591   3.778  0.2420 -0.0942  0.2859
31662W        W48509   5.677   6.228  12.731  0.2167  0.4820  0.1793
31663W        W48510   8.399   4.999   1.177 -0.2554 -0.1449 -0.0273
31664W        W48511  17.643  13.976  12.657  0.2315 -0.1902 -0.1659
31665W        W48512  14.144   1.702  12.108  0.1379 -0.0664  0.0316
31666W        W48513   1.099   4.681   0.453  0.0442  0.5451 -0.0163
31667W        W48514   3.913   9.287   3.418 -0.1308 -0.2354 -0.1907
31668W        W48515   3.971  15.181  12.679 -0.3540 -0.2490 -0.1739
31669W        W48516   8.346  17.441   5.019  0.0766 -0.1619  0.3165
31670W        W48517  13.619  16.679   2.747  0.0120  0.1049  0.2886
31671W        W48518   7.939  16.912   2.361  0.0168  0.1353  0.1954
31672W        W48519  14.902   7.417  13.925  0.4322  0.0498  0.2423
31673W        W48520  13.858   1.510  11.494  0.1789 -0.0543 -0.0519
31674W        W48521  17.853  17.992   0.438  0.2222  0.0551 -0.2618
31675W        W48522  12.322  18.924   2.140 -0.0731  0.1370  0.1903
31676W        W48523   8.403   1.494   4.051  0.1988  0.0063  0.2161
31677W        W48524   9.804   2.721   0.884 -0.2203  0.0531  0.1610
31678W        W48525  13.349   7.649  11.485 -0.0810 -0.0954 -0.0613
31679W        W48526   4.281  14.143  11.531 -0.1364 -0.2949  0.0228
31680W        W48527  13.319   6.125   0.348  0.0054  0.0296 -0.0149
31681W        W48528   7.224  16.060   1.480  0.2032  0.1826  0.3076
31682W        W48529   2.259   0.968   2.088 -0.1522 -0.2270  0.3486
31683W        W48530  16.453   7.434   4.932 -0.0215  0.1112  0.1118
31684W        W48531   7.556   2.410  11.738 -0.1962 -0.4211  0.1913
31685W        W48532   9.276   8.131  11.875 -0.1146  0.0668  0.2153
31686W        W48533   1.522   4.899  13.556 -0.0987 -0.4001  0.1083
31687W        W48534  16.095   4.415  13.325 -0.0019  0.0510  0.3353
31688W        W48535   8.556   8.036   4.780 -0.2125 -0.2127 -0.0006
31689W        W48536   2.842   6.469   2.006  0.1897 -0.3459 -0.5637
31690W        W48537  16.912  11.809   2.671 -0.0888 -0.3695  0.0047
31691W        W48538   9.208  12.836  14.438 -0.1421 -0.0983  0.0800
31692W        W48539  19.024   7.927   2.339  0.0292 -0.0563 -0.2112
31693W        W48540   5.551   6.532   4.106  0.1372 -0.0583  0.4526
31694W        W48541  11.881   9.242  10.080 -0.0942  0.1419  0.3927
31695W        W48542   0.017  17.850   1.046  0.0851 -0.1342 -0.0614
31696W        W48543  15.078   0.431  13.380 -0.1788  0.1057 -0.1785
31697W        W48544  14.686  12.303   0.394  0.1958  0.1857 -0.0902
31698W        W48545  12.701  10.519  10.478  0.0390 -0.2287  0.0898
31699W        W48546  15.336  10.135   3.406 -0.0391  0.0463  0.2836
31700W        W48547   6.148   8.136  10.775  0.1369 -0.1764 -0.1690
31701W        W48548   8.393  15.112   2.701 -0.1206  0.0361 -0.1348
31702W        W48549   6.544  17.419  13.342 -0.2649  0.0112 -0.0031
31703W        W48550  14.460   9.900  11.210 -0.0665 -0.1106  0.0660
31704W        W48551  12.047  10.112   1.492  0.0419 -0.0784 -0.1611
31705W        W48552  12.770  11.622  14.307 -0.1151  0.0387  0.1161
31706W        W48553   0.749   0.119   2.536  0.2145  0.1263  0.0475
31707W        W48554   8.138   3.584   2.667  0.4535 -0.1236  0.0900
31708W        W48555  14.893  18.701  11.285  0.0682  0.0013  0.1025
31709W        W48556  17.550   2.971  13.042  0.2046  0.1203 -0.0724
31710W        W48557   1.888   7.036  11.506  0.0718  0.3100  0.0776
31711W        W48558  15.743  12.134   1.403  0.3913 -0.0034  0.1644
31712W        W48559   6.134   0.634   3.026  0.1307 -0.0961  0.0593
31713W        W48560   5.400  17.370   0.843 -0.3843 -0.0286 -0.0878
31714W        W48561   0.299  15.648   1.444 -0.2712 -0.0287 -0.0005
31715W        W48562  10.349  17.206   3.561 -0.1924 -0.0400  0.4685
31716W        W48563  17.377  11.534   1.512  0.2462  0.0839  0.2418
31717W        W48564   4.860   0.394   3.171  0.1064 -0.0563 -0.3791
31718W        W48565   6.477   1.894   3.465  0.2949  0.1174 -0.0539
31719W        W48566  14.534   2.256  13.903 -0.0528 -0.0754 -0.1197
31720W        W48567   7.636   1.384  14.406  0.3934  0.2229 -0.2069
31721W        W48568  10.953   8.128   4.550  0.1407 -0.4290  0.2725
31722W        W48569   7.249   1.076  11.778 -0.0445  0.1339 -0.2159
31723W        W48570  17.036   4.338   1.231  0.0387  0.2821  0.2492
31724W        W48571   8.627   5.366   3.177 -0.2793  0.3880 -0.0905
31725W        W48572  17.855  12.979   1.375 -0.2241 -0.1365  0.2670
31726W        W48573   2.516   6.740   0.118 -0.0200  0.0798  0.0128
31727W        W48574   3.274  14.731  14.026  0.0470  0.0221  0.1167
31728W        W48575  16.695   7.727   3.417  0.0959  0.1199  0.1144
31729W        W48576   4.858  16.200   4.046 -0.0640  0.1573  0.0152
31730W        W48577   5.180   4.854   0.785 -0.2076  0.0773 -0.3346
31731W        W48578   9.370   8.561  10.690  0.0463 -0.2144 -0.1149
31732W        W48579  13.286   3.211   3.913  0.3213  0.0304 -0.0785
31733W        W48580   8.507   9.380  13.151 -0.2049 -0.0916  0.3117
31734W        W48581   0.854   3.133   9.682 -0.0395 -0.3450 -0.3403
31735W        W48582   5.907   5.321   4.328  0.0943 -0.2371 -0.0374
31736W        W48583   7.826   4.605   1.359  0.3642 -0.2741 -0.0800
31737W        W48584  12.792   0.548  13.297  0.2823  0.1642  0.1934
31738W        W48585   7.073  19.167   4.960  0.2451  0.2720 -0.2116
31739W        W48586   1.721  13.162  14.244  0.1466 -0.2193  0.3112
31740W        W48587  11.735  12.927   1.813 -0.2116 -0.2324 -0.3179
31741W        W48588  13.552   2.331   9.980  0.3369 -0.2763  0.2635
31742W        W48589  11.017   7.067  10.533  0.0801  0.4059 -0.0792
31743W        W48590   7.718   4.046   1.341  0.0266  0.2293 -0.1922
31744W        W48591   2.788   5.452   4.911 -0.1111 -0.1574  0.1788
31745W        W48592  14.673   2.615  10.541  0.1925  0.2580 -0.1437
31746W        W48593  17.568  10.881   3.351 -0.2783 -0.2828 -0.1603
31747W        W48594   7.180   8.513  13.044  0.0041  0.0656 -0.0240
31748W        W48595   3.846  18.787   2.360  0.0737 -0.2293 -0.0236
31749W        W48596   6.379  18.748   2.972  0.0158 -0.1418 -0.0803
31750W        W48597   3.239   3.134   9.514  0.0014 -0.2351  0.1474
31751W        W48598  11.573   4.266  12.088 -0.1993 -0.0791  0.2331
31752W        W48599  16.272  18.546   3.245 -0.2455 -0.0678 -0.0706
31753W        W48600  10.934  17.793   4.397 -0.0227 -0.1874  0.2254
31754W        W48601   0.758   5.524  13.923 -0.1775  0.0625  0.0914
31755W        W48602  16.009   7.911   0.122 -0.1699  0.1957 -0.1007
31756W        W48603   2.875   5.617  12.878 -0.3949  0.0869 -0.3238
31757W        W48604   0.219   2.198  12.037 -0.2215 -0.0106 -0.0279
31758W        W48605  16.592   5.408   4.497 -0.2933 -0.0987 -0.1746
31759W        W48606   7.416   3.628   1.302 -0.0296 -0.3507  0.1949
31760W        W48607  12.594   1.655   1.282 -0.0895 -0.3741  0.1194
31761W        W48608   0.864   0.923  11.688 -0.0570  0.4400  0.5239
31762W        W48609   6.879  12.703  11.460  0.0881  0.0452 -0.1800
31763W        W48610   5.113   8.701   3.839 -0.0110 -0.0016  0.0090
31764W        W48611  14.426   4.774  13.809  0.2066 -0.1228 -0.2108
31765W        W48612  10.746  16.623   2.822  0.2575 -0.3289 -0.0021
31766W        W48613  14.154   3.721   1.453 -0.3169  0.1007 -0.0033
31767W        W48614   7.707  11.955  13.283  0.2203  0.1478 -0.0645
31768W        W48615   9.682   3.488   5.513 -0.1166  0.0609  0.0466
31769W        W48616   0.490  16.248   5.509 -0.0641  0.1426 -0.1580
31770W        W48617   5.645   7.953   1.565 -0.3073  0.2374  0.0665
31771W        W48618   4.199  10.651   1.590 -0.0672  0.0210 -0.0853
31772W        W48619  14.781   9.628  11.410 -0.1002 -0.0676 -0.0705
31773W        W48620  15.532  15.824  12.940  0.0177 -0.2107 -0.0554
31774W        W48621   7.701   4.998  13.536 -0.3737  0.2416 -0.0032
31775W        W48622   9.226   5.812   5.202  0.1631 -0.0461 -0.2231
31776W        W48623  10.071   9.057  14.135  0.1695  0.1269  0.0260
31777W        W48624   4.033   3.190  11.583  0.1038  0.1345 -0.1906
31778W        W48625   6.581   6.373  14.549 -0.0489  0.0789 -0.3500
31779W        W48626  10.994   4.540  11.648  0.0203 -0.1364  0.0418
31780W        W48627   2.404   2.495   0.266  0.0228 -0.1495 -0.0966
31781W        W48628  14.464   9.022   0.046 -0.3867  0.0930  0.2624
31782W        W48629   3.269  16.924   3.620 -0.2674 -0.1353  0.2927
31783W        W48630   5.490  16.062   1.017  0.3960 -0.0085 -0.2560
31784W        W48631   1.272   2.117  10.541 -0.0546  0.3559  0.0261
31785W        W48632  11.336   2.840   1.141  0.1820  0.0015 -0.0361
31786W        W48633   9.692  17.985  12.321 -0.0494 -0.0389  0.1896
31787W        W48634  13.652   5.592   2.538  0.1445  0.0376 -0.0509
31788W        W48635   2.870   6.239  13.662 -0.1264  0.1899 -0.0026
31789W        W48636  14.314  16.024  10.304  0.1084  0.0424 -0.0619
31790W        W48637   7.631  14.669  11.739  0.0045  0.1779 -0.4058
31791W        W48638   7.660  17.372  11.032 -0.0723 -0.1613 -0.1550
31792W        W48639  15.865   5.746   1.244  0.2989 -0.0188  0.3073
31793W        W48640   1.910   9.121  13.696 -0.3051  0.1385  0.0685
31794W        W48641  19.290  16.262   0.349  0.1279 -0.0534 -0.3075
31795W        W48642   3.539  12.886  11.578 -0.0839 -0.0673  0.0563
31796W        W48643  18.293   2.709   0.523 -0.1765 -0.1565 -0.2434
31797W        W48644  19.154   3.445   0.394  0.1086 -0.0793 -0.0434
31798W        W48645   5.927  12.651  11.260  0.1398 -0.0857  0.0706
31799W        W48646   9.535   2.282   2.771 -0.1118  0.0778  0.0827
31800W        W48647   4.142   2.698  11.467  0.0431 -0.2360  0.2271
31801W        W48648  11.098  13.542  13.570 -0.1848  0.2167  0.3023
31802W        W48649   9.910  16.979  10.375  0.3134  0.2216 -0.0450
31803W        W48650   1.589   6.430   3.949  0.0515 -0.0285 -0.0823
31804W        W48651   3.085  11.038   0.333  0.0276  0.0762  0.2562
31805W        W48652   9.420   3.705   1.220 -0.2913  0.1185 -0.2803
31806W        W48653  16.327   4.911  11.867 -0.0437  0.1370  0.3340
31807W        W48654   2.140   1.190  11.279 -0.1061 -0.2116 -0.1827
31808W        W48655  11.389  13.242   0.442 -0.1372 -0.3583 -0.2509
31809W        W48656   2.851  12.853  13.390  0.2212  0.2372 -0.0677
31810W        W48657  17.591  16.779  13.898  0.2842  0.3086 -0.1741
31811W        W48658   8.283  15.931  14.404 -0.1971  0.0186 -0.0886
31812W        W48659   7.173  11.780  14.396  0.0282  0.1123  0.0319
31813W        W48660  12.071  10.876  11.529  0.2114  0.0115  0.2008
31814W        W48661   3.942  15.272   2.527 -0.0834 -0.1218  0.1574
31815W        W48662   9.842  14.647   0.969 -0.5965  0.3570  0.0241
31816W        W48663   6.754   7.481  12.122  0.1370  0.0602  0.3481
31817W        W48664  15.311   5.561   0.551 -0.1240 -0.0653 -0.1700
31818W        W48665   4.633   3.849  14.450  0.0651 -0.1684  0.1157
31819W        W48666   7.619  10.663  12.197 -0.0812  0.3682 -0.1358
31820W        W48667   2.978  17.061   1.077  0.2925 -0.2188 -0.1944
31821W        W48668   3.250   8.853  10.854 -0.0269 -0.0310  0.0313
31822W        W48669  16.133   8.853   0.546 -0.0618  0.1256 -0.0975
31823W        W48670   9.323  15.007   9.732 -0.4489 -0.1159 -0.2149
31824W        W48671   8.899  19.605   4.550 -0.2106 -0.0878  0.0517
31825W        W48672   4.484  15.929  13.827  0.0117 -0.1789  0.2502
31826W        W48673   8.821   8.235  11.378  0.0909  0.1069  0.3441
31827W        W48674   8.864   5.600   2.833  0.3382  0.0041  0.0184
31828W        W48675  14.774   7.707   1.189 -0.0030  0.2099 -0.0847
31829W        W48676   4.075  18.774   2.988 -0.0009  0.3796 -0.1212
31830W        W48677  15.540   0.848   0.161  0.1005 -0.0737  0.2366
31831W        W48678  14.215   1.619   0.140  0.3188  0.0358 -0.0127
31832W        W48679   3.727  11.687   5.269 -0.0858 -0.1524 -0.2194
31833W        W48680   0.671   9.885   3.307 -0.1891  0.1527 -0.0929
31834W        W48681  14.558  16.753   0.593 -0.2267  0.0337  0.0929
31835W        W48682   6.112   8.603   2.657  0.2951 -0.2734  0.2589
31836W        W48683   4.339   5.373   4.397  0.2528  0.0736 -0.1392
31837W        W48684   5.631   5.795   0.759 -0.0650 -0.0881 -0.2396
31838W        W48685   0.696   4.842  10.969  0.0024  0.1029 -0.3757
31839W        W48686   7.353   3.280  13.557  0.1300 -0.1156  0.3235
31840W        W48687   6.824   5.331   4.055  0.3539 -0.1906 -0.1745
31841W        W48688   7.652  14.143   3.207  0.0608  0.1398  0.0783
31842W        W48689   1.260  10.636  12.923 -0.2149  0.2321 -0.0243
31843W        W48690  12.280  18.356  10.492 -0.1041  0.5509 -0.3422
31844W        W48691   7.468  13.682   4.190 -0.3890 -0.1241  0.1141
31845W        W48692  10.351  14.080   9.824 -0.0620 -0.0233 -0.3342
31846W        W48693   8.893  12.814   2.244 -0.0688 -0.2887  0.3331
31847W        W48694  15.862  18.582   2.945  0.3823 -0.1849  0.0103
31848W        W48695  10.486  14.837   0.859  0.2922 -0.1287 -0.1798
31849W        W48696  14.484   5.612   5.097  0.1781 -0.1481  0.1732
31850W        W48697   0.030   6.701   3.209  0.0851 -0.2065  0.0028
31851W        W48698  19.309  15.365   2.554 -0.2124  0.1053  0.0901
31852W        W48699   9.153  12.721   3.723  0.1173 -0.3218 -0.1988
31853W        W48700   2.047   5.057   1.056 -0.1441  0.1904  0.1405
31854W        W48701  17.475   6.998  12.101  0.3380  0.3007 -0.3201
31855W        W48702   6.670  13.921   4.582  0.3350 -0.1158 -0.1242
31856W        W48703   5.387   5.942  10.372 -0.0370  0.1404 -0.0207
31857W        W48704   1.875   2.355  12.373  0.1878 -0.1730 -0.0044
31858W        W48705  13.884  14.922  13.021  0.0494  0.3825 -0.2605
31859W        W48706   1.712   9.550  13.852 -0.0607  0.1421  0.1305
31860W        W48707   0.355  13.764  12.352 -0.2185  0.1118 -0.0269
31861W        W48708  11.811   8.170   0.708 -0.5138 -0.2778  0.1496
31862W        W48709  18.894  16.510  12.251 -0.3173  0.0825  0.0757
31863W        W48710  16.034  12.864   2.293 -0.1522  0.1794 -0.1995
31864W        W48711   7.117   8.952  14.603  0.4835 -0.1757 -0.2516
31865W        W48712  14.518   0.042   3.965 -0.1524  0.1991 -0.2074
31866W        W48713   9.709   3.030  10.628 -0.0544  0.5468  0.2345
31867W        W48714  17.377   6.925   2.197  0.3662  0.1012  0.1648
31868W        W48715   8.589   0.926   2.725  0.0021 -0.0986 -0.1646
31869W        W48716   7.177   4.725  14.600  0.2036 -0.0797 -0.1460
31870W        W48717  12.962  16.923  12.517  0.4149 -0.2984  0.0732
31871W        W48718   4.676   7.599   0.137 -0.1649 -0.1380 -0.0200
31872W        W48719   2.765  10.191  10.241  0.1020 -0.1954  0.7423
31873W        W48720   6.013   1.641  14.116 -0.2942 -0.1228 -0.0602
31874W        W48721  11.997   2.367   8.978  0.3238 -0.0320 -0.1944
31875W        W48722  18.733   2.201   4.280  0.1714  0.5067  0.1240
31876W        W48723   7.564   4.811  10.466 -0.2461 -0.1239 -0.3008
31877W        W48724  15.419  12.009  12.350  0.2368  0.0791  0.1881
31878W        W48725  18.969   6.406  13.975  0.1918 -0.2972 -0.1002
31879W        W48726   8.990   4.319  12.687  0.0199 -0.1526 -0.2701
31880W        W48727  15.273   5.363  13.866 -0.2569 -0.1676 -0.2120
31881W        W48728   9.721   8.022  11.315  0.2011  0.0848  0.1068
31882W        W48729  18.760  12.386  11.284  0.1122  0.0895  0.0143
31883W        W48730  12.490   1.902  12.277 -0.0478 -0.0629  0.3420
31884W        W48731  11.307   6.208  14.594 -0.1147 -0.0258 -0.1016
31885W        W48732   5.191  14.887   4.128  0.3388  0.0006  0.0453
31886W        W48733  15.512   8.035  11.555  0.0354  0.1489 -0.0570
31887W        W48734   8.705  12.267  11.377 -0.2091  0.0848  0.0426
31888W        W48735  14.708  15.224   1.462  0.0475  0.1357  0.1022
31889W        W48736   9.613  13.589   4.986  0.1822  0.1054 -0.2432
31890W        W48737   3.846  15.951  11.449 -0.0207  0.2256  0.1737
31891W        W48738  19.438  11.195   5.465  0.0839  0.0006 -0.1703
31892W        W48739  17.466  18.239   2.162  0.1549  0.1867  0.1982
31893W        W48740   4.487   7.839  10.902  0.1752 -0.2545  0.0699
31894W        W48741   9.354   5.142  11.779 -0.0134  0.1926 -0.0505
31895W        W48742   7.813   7.553   1.188 -0.0176 -0.1013 -0.2603
31896W        W48743   1.298   2.834   3.004  0.3388  0.0131 -0.0055
31897W        W48744  12.471   9.858   1.487  0.1067 -0.1829 -0.1276
31898W        W48745   9.532  16.299   4.803  0.0955  0.0276  0.1559
31899W        W48746  12.472  14.460   3.304  0.0430 -0.0951 -0.1777
31900W        W48747  18.028  15.239  11.870 -0.4902 -0.1019  0.1402
31901W        W48748  10.181  18.807   4.757 -0.3841 -0.0215 -0.3176
31902W        W48749  19.632   5.908   5.382  0.0303  0.3792 -0.0035
31903W        W48750   0.732  15.681  11.518  0.1274 -0.3351 -0.2135
31904W        W48751   2.834   1.731   2.237  0.2898 -0.1855  0.1954
31905W        W48752   4.019   8.025   0.024  0.1966  0.0552 -0.1157
31906W        W48753  18.471  11.748   0.158 -0.2398 -0.3632 -0.0507
31907W        W48754  14.883  18.810   3.818 -0.2535  0.2629  0.0677
31908W        W48755   9.053   4.187  11.742 -0.0836  0.0605 -0.1999
31909W        W48756   3.618   4.020   2.201  0.0195  0.1294 -0.1709
31910W        W48757  10.425   1.772   3.106 -0.0265 -0.1111 -0.0220
31911W        W48758  19.474   8.501  14.331  0.3664  0.3928 -0.1185
31912W        W48759   6.227   4.925   5.243  0.2593  0.0164 -0.2898
31913W        W48760   8.427  10.900   3.554 -0.0644 -0.3167 -0.1568
31914W        W48761  17.018  19.029  11.269 -0.4296 -0.3796  0.1947
31915W        W48762   8.510   3.718   4.442 -0.0847 -0.2273  0.3912
31916W        W48763   4.309   0.472   0.047  0.3122  0.0358  0.3061
31917W        W48764  14.743   1.979   1.970 -0.0613 -0.0371  0.1766
31918W        W48765  12.527   7.985  10.057 -0.2319  0.2271  0.2752
31919W        W48766   9.425   0.561   4.137 -0.1430  0.0058  0.0722
31920W        W48767   4.952  13.232  11.548  0.3858  0.4816  0.0107
31921W        W48768  16.526  14.450  11.527  0.1105 -0.2626 -0.1460
31922W        W48769   7.796  15.958  14.261  0.2892  0.2508 -0.2158
31923W        W48770  15.176  19.028   1.647 -0.0340 -0.0512 -0.2153
31924W        W48771   3.783  15.410  14.218 -0.2808 -0.0786  0.3594
31925W        W48772   7.035  16.940  13.746 -0.2511 -0.1517 -0.0733
31926W        W48773  15.280   3.087  12.623 -0.1540 -0.0092 -0.0354
31927W        W48774   5.421   9.128   0.320  0.0615  0.3734 -0.0007
31928W        W48775   0.770  10.815  12.035  0.1188  0.0795 -0.2558
31929W        W48776  15.037   3.681  10.658 -0.1500  0.3319  0.1918
31930W        W48777   9.841   6.179   4.465 -0.1886  0.0668  0.0847
31931W        W48778  17.417   1.301   3.778  0.0245 -0.0950  0.2371
31932W        W48779  10.306   8.573  12.433 -0.0858  0.3592  0.2922
31933W        W48780   8.701  11.586   2.185  0.2663 -0.1207 -0.1676
31934W        W48781  12.626   3.441  13.491  0.1661 -0.0658 -0.0245
31935W        W48782   9.892   9.490   0.542 -0.0494 -0.2042 -0.0710
31936W        W48783  17.483   6.869  12.958  0.1052  0.2335  0.0215
31937W        W48784  12.309   6.395  10.568  0.1123  0.1294 -0.0881
31938W        W48785   1.635   0.612   4.951 -0.1283 -0.0696 -0.2799
31939W        W48786  11.492   2.930  14.385  0.0675 -0.2094  0.1755
31940W        W48787  11.557   0.125  13.627  0.0492  0.2204 -0.4235
31941W        W48788   9.756  11.045   2.377  0.0088  0.1177  0.1515
31942W        W48789   0.757  10.125   2.066  0.1641 -0.0674  0.1726
31943W        W48790  13.920  10.781  12.024 -0.2022  0.1397  0.1235
31944W        W48791  15.584   8.498   5.831 -0.0874  0.2478 -0.1551
31945W        W48792  10.672  16.277  10.471  0.3097 -0.0682 -0.0977
31946W        W48793  14.104  15.040  12.144  0.0345  0.2958 -0.1971
31947W        W48794   3.052   8.454  11.010  0.3069  0.4312  0.2399
31948W        W48795   4.497   3.134   0.322  0.3758 -0.1828 -0.1045
31949W        W48796   4.755  10.666  13.340  0.2139  0.0093 -0.0508
31950W        W48797  14.536  18.658   3.502  0.1228 -0.1560  0.3132
31951W        W48798   2.753   0.624   3.783 -0.1600  0.2609  0.2102
31952W        W48799  17.230  16.096  11.419 -0.0412  0.1507  0.0844
31953W        W48800  10.229   7.951  12.158 -0.6908 -0.1343 -0.5336
31954W        W48801  19.328   9.363   1.194  0.0696  0.1135  0.3164
31955W        W48802  13.826   1.974  11.290  0.3294  0.1473  0.1553
31956W        W48803   2.337   5.753   3.176 -0.4175  0.3040  0.2723
31957W        W48804   4.564  10.637   5.163 -0.0654 -0.0015 -0.2586
31958W        W48805   8.138  17.102  13.317  0.2453  0.0981 -0.0787
31959W        W48806  15.508   6.870   2.560  0.1188  0.2022  0.4680
31960W        W48807  15.953  12.238  13.847 -0.0161 -0.1890 -0.0601
31961W        W48808  14.199   0.916   3.594  0.0709  0.2666  0.2062
31962W        W48809  14.135  11.803   4.379 -0.1092  0.2436 -0.3587
31963W        W48810   1.187   9.155  11.706 -0.1659  0.1072  0.2645
31964W        W48811  10.489  16.957   1.552 -0.0082 -0.0905  0.1294
31965W        W48812   9.514   5.330  13.653 -0.0227 -0.0034  0.0288
31966W        W48813  18.678   3.461  13.596  0.2977  0.1457 -0.2012
31967W        W48814   7.591   6.233   2.095 -0.0686  0.1004 -0.1223
31968W        W48815   3.722  17.377  11.111 -0.3616  0.1336  0.0632
31969W        W48816   7.455   4.465  11.315  0.0736 -0.1706 -0.0154
31970W        W48817  16.546  12.353  12.019 -0.0749  0.1385 -0.0311
31971W        W48818  18.177  18.869   2.979  0.1454 -0.0041  0.1159
31972W        W48819  14.449  14.725  12.809 -0.3632  0.0312  0.2212
31973W        W48820   6.884   4.123   4.567  0.1843  0.2153  0.2115
31974W        W48821   4.119   8.404   1.020  0.0983  0.0569 -0.0511
31975W        W48822   9.185  18.502   0.974  0.1475 -0.1106 -0.2450
31976W        W48823  13.839   9.402  11.175  0.3154  0.3161 -0.0422
31977W        W48824   5.667  17.042   1.214 -0.2888 -0.2042 -0.3635
31978W        W48825  12.705   1.359   0.700 -0.1038 -0.2380 -0.1267
31979W        W48826   3.179   5.540   4.044  0.1316  0.1469 -0.1908
31980W        W48827   4.675  10.986   1.257  0.2314 -0.0892 -0.0520
31981W        W48828   0.461   2.835   4.924  0.0639  0.2404  0.2027
31982W        W48829  18.640  12.591   0.223 -0.0068  0.1025 -0.0542
31983W        W48830   3.238   6.676   2.341 -0.2954  0.0292 -0.1348
31984W        W48831  15.725   4.332  13.767 -0.1349  0.1571 -0.1552
31985W        W48832   6.136   6.524   1.381  0.1703 -0.0452  0.0343
31986W        W48833   7.800   1.965   1.752  0.0324  0.1060 -0.0405
31987W        W48834  16.058  17.573  10.250 -0.0506  0.0186 -0.0740
31988W        W48835  17.265  14.801   1.468  0.1323 -0.0522 -0.0430
31989W        W48836  16.428  16.751  12.897  0.0619 -0.0823 -0.1848
31990W        W48837   9.159  13.574  14.563 -0.1732 -0.1529 -0.0716
31991W        W48838  13.126   0.496   0.499 -0.2350 -0.2507  0.0075
31992W        W48839  19.534   7.836  14.591 -0.1211 -0.1632  0.3129
31993W        W48840   4.122  12.060  11.444  0.4029 -0.1397  0.5326
31994W        W48841  11.626  13.080   9.593 -0.2140  0.3389 -0.2239
31995W        W48842  12.258  12.728  12.664  0.2573 -0.1602  0.1300
31996W        W48843  18.657   2.319  14.345 -0.2277  0.0791  0.1870
31997W        W48844  11.882   9.793  11.358  0.3387  0.0223  0.0671
31998W        W48845   1.323   2.527   4.424 -0.1390 -0.0375 -0.1562
31999W        W48846   9.723   4.566   9.973 -0.3362 -0.1148  0.3838
32000W        W48847  13.727   3.036   3.058  0.2130  0.0132 -0.0977
32001W        W48848  17.603   3.280  10.476  0.1642  0.3074 -0.0707
32002W        W48849  17.012   1.325  14.025  0.0131  0.1799 -0.0510
32003W        W48850   4.562   2.080   2.471 -0.3116 -0.3259 -0.2066
32004W        W48851   1.215   5.359  13.585 -0.1817 -0.0823  0.1731
32005W        W48852  13.647   8.137   2.045  0.2363  0.0737 -0.2612
32006W        W48853  17.666  19.261  13.524  0.1322  0.1733 -0.0329
32007W        W48854  12.679   4.865  11.869 -0.0065 -0.0715  0.3404
32008W        W48855   4.121   6.857  10.776  0.1857 -0.1197  0.3538
32009W        W48856   4.427   2.952   4.728 -0.1216  0.1369  0.1767
32010W        W48857   6.379  12.174   0.343 -0.1190 -0.0102 -0.1351
32011W        W48858   6.923   6.645   0.308 -0.2393 -0.2651  0.0555
32012W        W48859   9.049   9.994  14.468 -0.1599 -0.2785  0.4046
32013W        W48860  10.633  19.300   0.627  0.0312 -0.0312  0.3644
32014W        W48861  10.863  19.542  13.900 -0.1374 -0.0380 -0.1314
32015W        W48862   4.295  16.796  12.558 -0.4593  0.0831  0.0269
32016W        W48863   5.967   7.003   1.084  0.2379 -0.4621 -0.1056
32017W        W48864   4.752   2.536   1.269 -0.2225 -0.2053 -0.2514
32018W        W48865  12.995   9.199   3.015  0.1648 -0.7196 -0.2976
32019W        W48866  11.098  18.025  12.448  0.1273 -0.1985  0.0335
32020W        W48867   4.300  18.882  10.165 -0.2933 -0.2218 -0.0452
32021W        W48868   4.601   2.736  10.505 -0.1868 -0.2120  0.3025
32022W        W48869   1.740   5.496  11.055  0.1547  0.0501  0.1000
32023W        W48870  15.561   0.396   0.915 -0.1301 -0.0029 -0.1035
32024W        W48871   4.466  14.747  10.974  0.1305 -0.0072 -0.1795
32025W        W48872   0.337  17.867   0.003  0.1368 -0.0987 -0.2519
32026W        W48873   7.795   9.467  10.954 -0.0379 -0.1300  0.2506
32027W        W48874  19.560  13.643  12.139 -0.5127 -0.2121  0.2290
32028W        W48875  11.481  19.283  12.955 -0.0286  0.1914  0.1458
32029W        W48876  18.365  17.829  13.412 -0.4047 -0.3399  0.0098
32030W        W48877   3.575  19.195  11.583  0.3287  0.0769  0.1024
32031W        W48878  15.174  12.198   0.509  0.1286 -0.0909 -0.0613
32032W        W48879  15.083  18.464   3.515 -0.2208  0.0477  0.0097
32033W        W48880   7.025  16.767   0.975 -0.2774 -0.0965 -0.1400
32034W        W48881   9.173  16.226  10.178  0.0658  0.1154  0.1079
32035W        W48882  14.134   0.651  11.722 -0.0854  0.1259 -0.3829
32036W        W48883   0.891  12.021   1.682  0.1486 -0.0081 -0.1691
32037W        W48884   2.196  13.948   2.529  0.2990  0.1149  0.0596
32038W        W48885  17.302  18.393   3.118 -0.0850  0.3984  0.0841
32039W        W48886  19.600  18.315   3.839  0.3083  0.0007 -0.3634
32040W        W48887   4.970  17.241   3.576  0.3879  0.3133  0.1288
32041W        W48888   3.731  14.730  12.414 -0.0151 -0.4358 -0.2577
32042W        W48889  16.171  14.245  11.753  0.1350  0.2572 -0.3129
32043W        W48890  16.424  10.164  14.020 -0.0180  0.0273 -0.2035
32044W        W48891  15.979  15.987  13.164  0.0838 -0.1169  0.0312
32045W        W48892   3.666   9.139   2.996  0.2431  0.1915  0.1206
32046W        W48893   0.008   2.700   3.326 -0.2757 -0.0816 -0.3420
32047W        W48894   0.400  12.059  11.112 -0.1796  0.0092 -0.1683
32048W        W48895  12.395  15.064  12.092  0.1710  0.0994  0.1209
32049W        W48896  11.357   4.960  11.959  0.0485  0.3258  0.1253
32050W        W48897  10.276  12.811  11.442 -0.0864 -0.1738 -0.1193
32051W        W48898  13.565  13.672  11.098  0.4199 -0.2579  0.0674
32052W        W48899  10.757   8.603  11.087  0.1058  0.2767  0.0101
32053W        W48900   6.317   2.268  12.176 -0.1629 -0.0295 -0.2494
32054W        W48901   5.046   0.877   2.523 -0.0369 -0.0151  0.0485
32055W        W48902   6.478   1.087   3.266  0.0011  0.4577  0.1147
32056W        W48903   3.786  12.443   0.830  0.1184  0.1097  0.0754
32057W        W48904  12.233  14.380   1.038  0.1100 -0.1329  0.2162
32058W        W48905   6.298   2.778   2.932 -0.0587  0.0677  0.2089
32059W        W48906   4.809  14.240   3.121 -0.1156  0.2378  0.3250
32060W        W48907  13.879   4.609   1.249 -0.1829  0.1926 -0.2032
32061W        W48908  14.690  13.365  13.865  0.1800  0.4076 -0.0852
32062W        W48909  11.409   6.409   3.801  0.1266 -0.1795  0.1320
32063W        W48910  16.511  18.516  12.734 -0.3376  0.1692  0.1052
32064W        W48911  14.941   2.968   0.606  0.0814  0.0638  0.2539
32065W        W48912  14.047  17.116   4.182 -0.0203 -0.3322 -0.0374
32066W        W48913   3.271  18.717   4.513 -0.4643  0.0491 -0.2426
32067W        W48914   6.798  10.589   0.999 -0.0039  0.1357  0.1106
32068W        W48915  11.524  11.900   3.493  0.1487 -0.1164 -0.1409
32069W        W48916  15.463   2.576   2.020  0.0641 -0.1846  0.1361
32070W        W48917  16.208   9.957   3.970 -0.2287  0.1450 -0.1476
32071W        W48918  13.562   2.264   0.730  0.0272 -0.1578 -0.2858
32072W        W48919  19.481  15.257  13.978  0.1255 -0.1755 -0.1281
32073W        W48920  16.240  11.556  10.757  0.0890 -0.0125 -0.1027
32074W        W48921   0.757  11.827  12.549  0.1031 -0.0142  0.2273
32075W        W48922  14.583  14.635   2.406  0.3960 -0.1386 -0.1673
32076W        W48923  18.562  14.694   0.051  0.1789  0.3538 -0.0450
32077W        W48924  13.802   4.958   2.814 -0.1593 -0.1994 -0.3950
32078W        W48925  18.238   1.918  14.515  0.1641 -0.1571  0.1971
32079W        W48926  10.403   2.300   3.638  0.1724 -0.1078  0.2457
32080W        W48927  16.445   5.853   4.248  0.1751 -0.0231 -0.1357
32081W        W48928   2.735  15.076   3.337 -0.3456 -0.2265  0.5822
32082W        W48929   7.815   0.470  12.263  0.0035  0.1553 -0.3206
32083W        W48930  10.093   9.456  11.888 -0.0859  0.1693  0.0132
32084W        W48931  13.647   1.624   2.586 -0.1237  0.0532  0.0075
32085W        W48932  14.871  10.218  11.897 -0.3018 -0.2486  0.0180
32086W        W48933   6.357   1.794   2.638 -0.1076 -0.0481  0.1919
32087W        W48934  15.726   7.786   3.575  0.1592 -0.0693  0.1011
32088W        W48935  13.606   8.643  12.679 -0.0849 -0.0493  0.0183
32089W        W48936   5.047   2.112  10.778  0.2651 -0.1979 -0.0742
32090W        W48937   8.497  10.064   4.068 -0.0990 -0.0501 -0.1887
32091W        W48938   2.654   8.009  12.139  0.0560  0.0963  0.2444
32092W        W48939   4.700   7.977  12.580 -0.2772  0.0209 -0.0456
32093W        W48940   5.716   9.275   2.800  0.2805 -0.3439  0.0506
32094W        W48941   1.712  15.791   4.071  0.0620 -0.1913  0.2636
32095W        W48942   5.494  13.254  13.064  0.0974 -0.0218 -0.0117
32096W        W48943   4.586   7.084  10.610 -0.0364 -0.0485  0.1415
32097W        W48944   7.515   1.133   2.097  0.0972 -0.2057  0.1821
32098W        W48945  15.088   4.666   3.598  0.0484 -0.0671 -0.0932
32099W        W48946   9.558   2.000   2.099 -0.0679  0.1032  0.0973
32100W        W48947   8.330  18.556  13.511  0.0086  0.1644  0.0019
32101W        W48948  16.469  10.528   4.696  0.1074  0.2192 -0.2123
32102W        W48949  16.487   9.026  10.489  0.4640 -0.0970  0.1172
32103W        W48950  17.291   4.183  10.635  0.2679 -0.2331 -0.0144
32104W        W48951   4.977  14.603  10.822 -0.1223 -0.4747 -0.0799
32105W        W48952  10.252   0.075   4.168 -0.1587 -0.0425  0.0433
32106W        W48953   8.291  14.987  14.177 -0.0858 -0.3871 -0.0070
32107W        W48954   3.856   2.669   1.573 -0.0661 -0.0628  0.3658
32108W        W48955   6.418  12.867   1.097 -0.1731  0.2297 -0.3033
32109W        W48956   5.515   9.138   3.267  0.1977  0.1772  0.0751
32110W        W48957  16.688   4.284  12.329 -0.0652 -0.1938  0.1071
32111W        W48958  18.072  16.491  12.663  0.1582 -0.0009 -0.1626
32112W        W48959   3.472  11.117  11.886 -0.0304  0.0910 -0.3682
32113W        W48960   7.667   7.201  12.072  0.2315  0.2792 -0.1003
32114W        W48961  19.028  10.007   0.521  0.1778 -0.1458 -0.2503
32115W        W48962   6.535   2.167   2.356 -0.1603  0.0513 -0.0789
32116W        W48963  15.988   1.612   9.011 -0.1148  0.1182 -0.1738
32117W        W48964   6.207   6.148  10.900  0.1139 -0.0923  0.3064
32118W        W48965  12.817   4.080   1.181 -0.2244 -0.0736 -0.1302
32119W        W48966   3.386  10.043  13.416 -0.0233  0.1545  0.0363
32120W        W48967   1.657  11.141  13.466 -0.2001 -0.0008  0.1045
32121W        W48968  15.205   2.694   1.633 -0.0854  0.0634 -0.0808
32122W        W48969  10.030   0.209   0.232  0.1583 -0.0834  0.1714
32123W        W48970  13.083   2.197  10.191  0.1071 -0.3229 -0.1464
32124W        W48971   3.775   5.310   2.453 -0.1053 -0.4628 -0.0391
32125W        W48972   8.299  17.647   1.801 -0.0695  0.3768 -0.1652
32126W        W48973  13.982  18.555   3.840 -0.2525 -0.2390 -0.0642
32127W        W48974  17.110   4.063  12.439 -0.1216 -0.2374  0.0929
32128W        W48975  13.821   0.901   0.410 -0.0739  0.1116 -0.0486
32129W        W48976  10.511  10.192   0.831 -0.3758  0.0542 -0.0152
32130W        W48977  17.984   1.902  12.608 -0.1476  0.0017  0.3001
32131W        W48978   6.159   6.304  13.513 -0.1894 -0.0007  0.0708
32132W        W48979  11.882   1.253   5.267  0.0929  0.0273 -0.2548
32133W        W48980  17.652  11.308  11.938 -0.0430  0.0145 -0.1800
32134W        W48981   7.851  15.788  11.453 -0.0189 -0.3674 -0.0807
32135W        W48982   5.091   3.553  12.486  0.1427  0.0621  0.1506
32136W        W48983   1.860  11.003   0.103 -0.1202 -0.0296  0.1219
32137W        W48984   8.027   2.045  13.344  0.0108  0.5004 -0.4408
32138W        W48985   7.013  12.227  11.476  0.1757  0.2144 -0.2555
32139W        W48986  18.058  12.256  12.495 -0.2447  0.1854 -0.0004
32140W        W48987  11.326  15.053   0.505 -0.1172 -0.2786  0.0228
32141W        W48988  15.444   2.178   0.279 -0.2309 -0.1379  0.1247
32142W        W48989   4.878   3.199  11.446 -0.1512  0.0643  0.0917
32143W        W48990   6.808   6.506  13.522 -0.0659 -0.0687  0.2121
32144W        W48991   7.695   5.992   2.545  0.2067  0.4202 -0.2755
32145W        W48992  14.222  14.702   9.218 -0.2565 -0.2874 -0.1057
32146W        W48993  11.873   2.717  11.160 -0.0126  0.1223 -0.4898
32147W        W48994  17.615   0.852   1.451  0.1238  0.0387  0.3199
32148W        W48995   0.753   5.085  14.104  0.0675  0.0685  0.1161
32149W        W48996  14.937  15.255  14.563  0.0276 -0.0760 -0.0640
32150W        W48997   9.036  14.271  12.868  0.2138  0.0210  0.2893
32151W        W48998   5.429   2.569   4.061 -0.0484 -0.0789 -0.0476
32152W        W48999   5.634   0.031   2.676  0.0501  0.0743 -0.0552
32153W        W49000   9.146  17.176   3.560  0.0020 -0.1439 -0.0251
32154W        W49001   9.010  14.687   2.233 -0.1420  0.2682 -0.1138
32155W        W49002  13.534   3.688  12.712 -0.1265  0.0095 -0.0195
32156W        W49003  13.770   8.134  12.638  0.0887 -0.0916  0.0165
32157W        W49004  18.337   0.939  10.529  0.0108  0.1488  0.2101
32158W        W49005  17.967  10.040   3.978 -0.0663  0.2836 -0.3265
32159W        W49006   9.416   6.869   0.875 -0.4513 -0.0475 -0.0514
32160W        W49007  18.289   9.051  10.467  0.0892 -0.2649  0.2914
32161W        W49008   8.127  11.325  10.640  0.1287  0.0691  0.1772
32162W        W49009  11.021   5.273  10.949 -0.2693  0.0181  0.1851
32163W        W49010   7.659  17.201   4.194  0.0259  0.0170 -0.0341
32164W        W49011  14.494   7.745   4.214 -0.0120  0.5444 -0.0940
32165W        W49012   0.876   6.409  10.081  0.1820  0.2686 -0.2788
32166W        W49013   1.637  18.614   0.479 -0.0795  0.0777  0.0071
32167W        W49014   1.342  15.974  10.597  0.1363 -0.1120 -0.0957
32168W        W49015   9.240   6.988  13.900 -0.1114 -0.2065  0.0727
32169W        W49016  10.828   1.733  11.222 -0.2248 -0.3601  0.2039
32170W        W49017  14.586   3.633  14.538  0.1879 -0.1566  0.3311
32171W        W49018  17.098  15.759   4.829 -0.1187  0.0349  0.0704
32172W        W49019  13.553  13.440  13.657 -0.0297 -0.2658 -0.0458
32173W        W49020   0.051   2.061  10.256  0.1359  0.0664 -0.1115
32174W        W49021  16.789  10.871  13.414 -0.0765 -0.1578 -0.1220
32175W        W49022  16.281   6.160   1.293  0.3849 -0.0268 -0.1089
32176W        W49023  13.309  10.475   2.342  0.1923  0.0353  0.0591
32177W        W49024  10.087   0.942  13.130 -0.6293  0.2968  0.2801
32178W        W49025  19.091   4.975   0.325 -0.2933  0.0139 -0.0200
32179W        W49026  12.858   7.475   4.920  0.1385 -0.0690  0.3016
32180W        W49027  16.338   7.308   3.962  0.2868 -0.2432 -0.3949
32181W        W49028  10.538   3.455  14.215 -0.1763  0.1217 -0.1140
32182W        W49029  14.878   3.698  13.045  0.1105  0.1283  0.0089
32183W        W49030  14.381   1.840  14.232  0.0932 -0.0499 -0.2440
32184W        W49031  14.905   0.267  14.497  0.1516 -0.1515  0.1058
32185W        W49032   8.461   5.487  11.985 -0.3062 -0.2494 -0.0088
32186W        W49033  14.101   5.643  11.106 -0.2221 -0.0727 -0.3758
32187W        W49034   4.772  18.812   5.185 -0.0925  0.1796 -0.0713
32188ION     NA49035   8.039  14.136   2.874 -0.2642  0.2518 -0.1087
32189ION     NA49036  12.034   1.462   9.287 -0.1251 -0.2559  0.0604
32190ION     NA49037   5.568   8.813   9.261  0.0060 -0.1470  0.0394
32191ION     NA49038   1.153  16.953   9.508 -0.1577  0.0216  0.2139
32192ION     NA49039   9.550   8.674   0.335  0.0910 -0.1937  0.0698
32193ION     NA49040  11.215  19.565   1.014  0.2612 -0.2104  0.1589
32194ION     NA49041  13.021   2.824   3.752 -0.4505 -0.1349  0.2842
32195ION     NA49042  12.445  17.239   2.795 -0.1813 -0.3220  0.0018
32196ION     NA49043   1.457  18.638   0.996  0.3095 -0.1571 -0.0598
32197ION     NA49044   0.373   4.339   9.362  0.1966  0.1184 -0.0441
32198ION     NA49045   1.102   8.408   4.952  0.0209 -0.0679  0.0258
32199ION     NA49046   2.061  17.255   9.598 -0.0859  0.1050  0.0230
32200ION     NA49047  18.647   7.095  14.421  0.0181  0.1415 -0.0217
32201ION     NA49048  16.997   4.487   9.486  0.0848  0.1386 -0.1479
32202ION     NA49049   4.152  15.298   2.972 -0.1171 -0.2469 -0.0199
32203ION     NA49050  15.678  17.758   9.851  0.0944 -0.0730 -0.4254
32204ION     NA49051  14.022  17.361  13.743  0.2111 -0.0281 -0.2845
32205ION     NA49052  14.223  18.797   4.454  0.0776  0.0353  0.0553
32206ION     NA49053   4.903   8.789   2.246  0.2661 -0.1327  0.3018
32207ION     NA49054   7.818   9.912   0.921  0.0644 -0.0151  0.1478
32208ION     NA49055   6.383  16.481   9.493 -0.2030 -0.1524  0.0097
32209ION     NA49056   6.024   6.373   2.614  0.1555 -0.0099  0.0218
32210ION     NA49057   5.694  16.514   0.906  0.3319  0.1875 -0.3536
32211ION     NA49058   1.421  11.620   5.448 -0.0083  0.0595  0.0591
32212ION     NA49059  16.185  14.574   3.521  0.1000 -0.0535 -0.0815
32213ION     NA49060  16.295   7.463  13.249  0.0645 -0.0800 -0.0022
32214ION     NA49061  12.013  10.166  12.252  0.4921 -0.1660 -0.2104
32215ION     NA49062   9.393  12.047   9.395 -0.2174  0.2135 -0.0669
32216ION     NA49063  15.230  12.773   9.069 -0.0559  0.1027 -0.0790
32217ION     NA49064  13.067   3.101   9.488  0.2065 -0.1748  0.2295
32218ION     NA49065   2.098   9.013  11.246  0.1972  0.0052  0.0762
32219ION     NA49066   7.886   9.605   9.562  0.4892 -0.0718 -0.0997
32220ION     NA49067   7.603  12.115   9.239  0.1800 -0.1010  0.0724
32221ION     NA49068   6.961   4.610  11.405 -0.2041  0.0800 -0.0371
32222ION     NA49069   9.792  17.316   9.407  0.2546 -0.1465 -0.1011
32223ION     NA49070  12.878  12.283   1.685  0.1293  0.1189 -0.1312
32224ION     NA49071   2.536   2.805   5.141 -0.0726  0.0522  0.1739
32225ION     NA49072   9.979   1.610  14.356  0.0173 -0.0076  0.0285
32226ION     NA49073   1.987   4.115   1.741 -0.0275 -0.1407 -0.1813
32227ION     NA49074   1.665  12.298   5.717  0.0238  0.0533 -0.1344
32228ION     NA49075   0.661   6.067  14.595  0.1766  0.1452 -0.1932
32229ION     NA49076  12.526   7.504   0.157 -0.2535 -0.1075  0.1807
32230ION     NA49077   7.792  13.949   5.211  0.4364 -0.1505 -0.1066
32231ION     NA49078  19.494  12.414   0.916 -0.0371 -0.1147  0.1673
32232ION     NA49079  14.566   1.193   3.810  0.2027  0.1748  0.1140
32233ION     NA49080  15.803  18.582   9.660  0.1078  0.1220 -0.4306
32234ION     NA49081   5.812   9.345   5.240  0.1256  0.0618 -0.0668
32235ION     NA49082  10.358   0.638   9.210 -0.0092 -0.0046  0.1102
32236ION     NA49083   8.958  18.212   9.582 -0.2369  0.0763  0.1539
32237ION     NA49084   2.251  18.436  12.507  0.3242 -0.0389  0.1622
32238ION     NA49085   4.011   5.730   2.018 -0.1876  0.1348 -0.1132
32239ION     NA49086  10.739   3.109   8.996 -0.1401 -0.1799  0.2751
32240ION     NA49087   3.961  18.572   4.965 -0.2118  0.2596  0.2957
32241ION     NA49088   1.251   4.964   0.881 -0.0755  0.0873  0.1366
32242ION     NA49089   7.079   6.167  13.761  0.1678 -0.0370 -0.0196
32243ION     NA49090   3.589   2.749   3.133  0.1378 -0.3424  0.3292
32244ION     NA49091  16.990  15.929  11.824 -0.0816  0.0668  0.0835
32245ION     NA49092   1.621  19.141   9.523  0.0490  0.2459  0.0805
32246ION     NA49093  15.396   7.442   9.653 -0.0504 -0.1842  0.0924
32247ION     NA49094  11.156  13.743  12.407 -0.2920  0.3946 -0.1640
32248ION     NA49095  10.293  16.043   3.529 -0.2620  0.0812  0.0281
32249ION     NA49096   9.359  18.123  11.641 -0.0377 -0.0328 -0.0131
32250ION     NA49097  17.002  18.236   4.790  0.3237  0.1937  0.3167
32251ION     NA49098   8.765   2.143   9.464 -0.0194  0.4862 -0.1719
32252ION     NA49099   3.304   5.662   5.102 -0.0279 -0.0966  0.0149
32253ION     NA49100   8.166  14.752   9.613  0.1838 -0.0926 -0.0146
32254ION     NA49101   8.422  16.091   9.473  0.2895 -0.0594  0.0577
32255ION     NA49102   9.807  11.712  13.539 -0.0151  0.0269 -0.2469
32256ION     NA49103  15.636  18.525   9.157 -0.0204  0.1627  0.1870
32257ION     NA49104  17.609  15.600  10.794  0.0413  0.2215  0.1107
32258ION     NA49105  12.881   4.377   5.172  0.2219 -0.1947  0.1182
32259ION     NA49106   4.908  13.431   9.754 -0.0840 -0.2416 -0.2181
32260ION     NA49107  13.089   0.708   9.960 -0.4221  0.1189 -0.1853
32261ION     NA49108  19.585  14.347   5.127  0.2356 -0.0215 -0.3378
32262ION     NA49109  17.484   9.311   9.786 -0.0032  0.4967  0.3954
32263ION     NA49110  17.959   5.400   9.359  0.0608  0.0498 -0.0116
32264ION     NA49111   9.099  16.098   2.416 -0.3046  0.2086 -0.1587
32265ION     NA49112   5.983   1.216   9.466 -0.1635  0.1224 -0.0777
32266ION     NA49113  17.768  12.883   2.507  0.0292  0.0808  0.0304
32267ION     NA49114  11.756   8.280   9.393  0.1493  0.0773  0.2020
32268ION     NA49115  16.274   3.932  11.779  0.2558  0.1906 -0.2510
32269ION     NA49116   0.090   0.561   9.310  0.1812  0.0624  0.2042
32270ION     NA49117  15.165  12.108   5.148 -0.3761 -0.0890  0.2571
32271ION     NA49118   9.234   5.227   9.821 -0.1231 -0.1286 -0.2637
32272ION     NA49119   7.639  17.277   9.423 -0.0892  0.2375 -0.0777
32273ION     NA49120   5.855  14.340   9.584 -0.0801  0.3098  0.2383
32274ION     NA49121   4.476  17.043   9.437  0.3790 -0.3641 -0.3417
32275ION     NA49122   4.471   7.541   9.558  0.1956 -0.2148 -0.0451
32276ION     NA49123   3.290  15.649   9.721 -0.0119  0.1816 -0.0285
32277ION     NA49124   8.134   0.485   9.363 -0.1642  0.0957 -0.1767
32278ION     NA49125   3.794  18.754   9.193  0.0050  0.0934  0.3270
32279ION     NA49126   7.359  19.431   4.684 -0.0105  0.1387 -0.0655
32280ION     NA49127   1.864   6.910  12.418 -0.4123  0.2660 -0.1340
32281ION     NA49128   5.426  11.598   4.703 -0.2161 -0.1295  0.0213
32282ION     NA49129   7.214   8.986   9.594 -0.2613 -0.2277  0.0878
32283ION     NA49130  13.042  11.402   3.705  0.3243  0.0018  0.1220
32284ION     NA49131   1.063   3.059   1.245 -0.6767 -0.0534 -0.0622
32285ION     NA49132   6.309   4.498  13.004  0.0906 -0.1252 -0.0289
32286ION     NA49133  10.662  15.008   9.796  0.2613 -0.1344 -0.0082
32287ION     NA49134  11.304   4.705   5.389 -0.0664 -0.2045 -0.0972
32288ION     NA49135  11.466   6.178   9.568  0.0847 -0.3070  0.0753
32289ION     NA49136  13.214   7.505  13.043 -0.1109 -0.3535  0.3644
32290ION     NA49137  18.200  14.751  14.287  0.0136 -0.4852 -0.1101
32291ION     NA49138  13.816  14.295   4.813 -0.1241 -0.2365  0.3770
32292ION     NA49139   6.736  19.079   9.365 -0.1662  0.2819 -0.1082
32293ION     NA49140  14.679  17.703   2.544  0.1659 -0.0864  0.2462
32294ION     NA49141  13.015   8.362  10.474  0.1331 -0.3514 -0.1999
32295ION     NA49142  17.084   5.591   9.723 -0.2552 -0.1258  0.3901
32296ION     NA49143  15.263   8.317   9.543 -0.2468  0.1556  0.3546
32297ION     NA49144  15.908   9.875   2.670  0.0079  0.0421  0.3725
32298ION     NA49145  15.598   0.569   4.984  0.0698 -0.2662 -0.1031
32299ION     NA49146   2.251  15.480   4.920  0.0992 -0.2073  0.1518
32300ION     NA49147  17.560   0.174   4.784  0.3162  0.0034 -0.0100
32301ION     NA49148   8.657  11.610   9.565  0.0556  0.0568  0.0509
32302ION     NA49149  17.470   6.413  13.235  0.0908 -0.2241  0.2809
32303ION     NA49150   4.033  17.776   4.713  0.1691  0.3782 -0.3286
32304ION     NA49151   0.206  19.481   9.336 -0.3903 -0.0086  0.3145
32305ION     NA49152   1.747   2.438   9.323  0.0365  0.1692  0.0084
32306ION     NA49153   1.058   4.493   5.002  0.5607 -0.1494 -0.4547
32307ION     NA49154   8.604   4.683   9.663  0.0241 -0.2206  0.1560
32308ION     NA49155  12.542   2.491   4.833  0.0257 -0.1611 -0.0747
32309ION     NA49156  17.865   4.173   3.545  0.0230 -0.0268 -0.0584
32310ION     NA49157   9.583  12.187  12.548 -0.0668  0.0417  0.0367
32311ION     NA49158  17.457   8.580  10.288  0.3608 -0.1306 -0.1399
32312ION     NA49159  12.018  14.942  14.450 -0.2134 -0.0065 -0.0377
32313ION     NA49160  17.882  13.260   9.114 -0.1371  0.0918  0.4549
32314ION     NA49161   1.662  19.053  11.015  0.1924  0.2924  0.4315
32315ION     NA49162   3.666   0.109   9.285 -0.3011 -0.1047 -0.1001
32316ION     NA49163   3.980   1.909   0.884  0.0662  0.3370 -0.0708
32317ION     NA49164  16.049   7.283  14.133  0.2759  0.1920 -0.1714
32318ION     NA49165   5.471  16.839   9.256 -0.3166  0.1539 -0.4440
32319ION     NA49166  17.137  16.062   4.404 -0.0558 -0.0374  0.0099
32320ION     NA49167   8.842  18.855   5.067  0.1074 -0.1374 -0.0345
32321ION     NA49168  19.274   3.876   5.105  0.3998  0.1107 -0.4392
32322ION     NA49169   2.259   5.527   0.747 -0.3458  0.3997 -0.2102
32323ION     NA49170   9.817  18.295   9.484  0.1611  0.0236 -0.4193
32324ION     NA49171  14.131  12.470   2.319 -0.0920  0.1514  0.1921
32325ION     NA49172   6.212  16.206   4.969  0.1382  0.1078 -0.1756
32326ION     NA49173  19.460  14.300   9.387  0.0948  0.0922  0.4515
32327ION     NA49174  15.910  11.050   9.358  0.1830  0.3354 -0.0684
32328ION     NA49175  12.535   7.570   5.420 -0.1331  0.3213 -0.0779
32329ION     NA49176  11.018  18.192   5.361 -0.0046 -0.1644  0.1150
32330ION     NA49177  18.394   4.613   1.729  0.1203  0.1021 -0.1091
32331ION     NA49178   3.954   0.776  14.474  0.1246  0.3131  0.0038
32332ION     NA49179  15.815   8.951   9.678  0.1246 -0.2631 -0.0723
32333ION     NA49180   2.367  13.873   1.160  0.0783  0.2202 -0.0168
32334ION     NA49181   8.420   7.512  14.123 -0.0875 -0.0634 -0.1551
32335ION     NA49182  15.440  17.156   4.007 -0.2915 -0.2832 -0.0222
32336ION     NA49183  16.292   6.203   5.559 -0.2711  0.0261  0.0042
32337ION     NA49184   5.220   2.497   9.227  0.0705 -0.0056 -0.1703
32338ION     NA49185   0.355  14.541   5.336  0.2658 -0.1306  0.1107
32339ION     NA49186   6.297  11.438  12.845 -0.0846 -0.0375 -0.2414
32340ION     NA49187  11.411  13.212   5.209  0.0441 -0.1081 -0.3498
32341ION     NA49188   7.503   1.468   9.500  0.1458 -0.0105 -0.1274
32342ION     NA49189  18.804  14.710   2.137 -0.1521 -0.3114 -0.2234
32343ION     NA49190  11.337  13.115   1.593 -0.2111 -0.1256  0.0520
32344ION     NA49191  14.435   4.236  13.197 -0.2221  0.1057 -0.0433
32345ION     NA49192  14.511  12.168   9.009  0.3219 -0.0657  0.1426
32346ION     NA49193  12.520  12.103  13.289  0.1011  0.2342  0.2828
32347ION     NA49194   9.998   3.621   9.253 -0.1362 -0.1638  0.0505
32348ION     NA49195   5.732  12.490   1.028 -0.1076  0.0201 -0.0549
32349ION     NA49196  10.799   4.885   3.375  0.0491  0.1049  0.0567
32350ION     NA49197   8.341   9.982   0.429  0.0235  0.0801 -0.3772
32351ION     NA49198   6.618  17.583   2.716  0.2033 -0.1015 -0.0179
32352ION     NA49199  10.027   1.510   1.402 -0.3396  0.0605 -0.2946
32353ION     NA49200  14.230  14.174  10.677  0.2400 -0.0237  0.0442
32354ION     NA49201   2.065  12.624  14.478 -0.3090 -0.1139  0.2101
32355ION     NA49202  14.946   6.577   9.616 -0.1399  0.1536 -0.0672
32356ION     NA49203   2.858   8.517   3.898  0.1995  0.1852  0.1359
32357ION     NA49204  14.666  19.441  10.648  0.1128 -0.0246  0.0998
32358ION     NA49205  18.731   9.679  10.122  0.1246 -0.0285 -0.0768
32359ION     NA49206   7.176  15.303   3.858 -0.0759 -0.0698 -0.1469
32360ION     NA49207   8.570   4.959   5.099 -0.3230  0.1937  0.0237
32361ION     NA49208   1.045  16.074   9.766 -0.2715  0.0151 -0.1170
32362ION     NA49209   5.118   4.618   2.803 -0.3236 -0.1353  0.3921
32363ION     NA49210  17.928  10.715   9.900  0.0979 -0.1026  0.0645
32364ION     NA49211   6.359  15.479   9.951  0.1830  0.0708  0.3794
32365ION     NA49212  18.385   3.111   9.681  0.0566  0.1298 -0.1308
32366ION     NA49213  18.882   7.809   5.445  0.0969 -0.2217  0.5156
32367ION     NA49214   3.314   4.873   4.541 -0.1838 -0.3745  0.0209
32368ION     NA49215  10.728   3.570   1.415  0.0610  0.2090  0.0225
32369ION     NA49216  10.547   3.199   2.828 -0.1516 -0.1217 -0.1059
32370ION     NA49217   0.000  10.033  10.073 -0.0349  0.0392  0.1327
32371ION     NA49218  17.349  12.511   9.372  0.0868  0.2439 -0.0946
32372ION     NA49219   7.650  13.908   9.561  0.0641  0.4465  0.0887
32373ION     NA49220   4.701   8.412   5.235  0.0633 -0.0852  0.1075
32374ION     NA49221  11.918  10.649   5.082 -0.1772 -0.1642 -0.2211
32375ION     NA49222   9.309  10.416   2.967  0.0709  0.1882 -0.1270
32376ION     NA49223  18.887  11.186  13.346 -0.2903 -0.1104 -0.0194
32377ION     NA49224  10.265  12.164   9.612  0.0325 -0.0234 -0.1707
32378ION     NA49225   8.057   6.223   3.113 -0.2172 -0.0700 -0.2532
32379ION     NA49226   6.582  18.479   5.072  0.0741  0.0572  0.1289
32380ION     NA49227   1.775  16.212  10.522 -0.1770 -0.2753  0.0246
32381ION     NA49228  17.962   0.293   4.477  0.1041  0.3793 -0.0072
32382ION     NA49229   3.786   8.471   4.277 -0.0586 -0.1413 -0.0330
32383ION     NA49230   1.692  14.511   4.310 -0.0443 -0.0721 -0.2264
32384ION     NA49231   9.933   8.593   4.964 -0.0326  0.2185  0.0908
32385ION     NA49232  16.652   0.646  11.711 -0.1359  0.0959 -0.0317
32386ION     NA49233  11.114   5.598  11.387 -0.1276 -0.1833  0.0668
32387ION     NA49234   0.840   2.625   5.166 -0.2706 -0.1263 -0.3020
32388ION     NA49235  11.971  10.531   9.309  0.4190 -0.0798 -0.1213
32389ION     NA49236   6.432   5.697   9.478  0.0934  0.2802 -0.0162
32390ION     NA49237   9.536   9.570   4.080  0.0078 -0.0534  0.0910
32391ION     NA49238  18.301  11.612  12.394  0.4799  0.0504  0.1974
32392ION     NA49239   8.745  10.739   9.429  0.1090 -0.1712 -0.2051
32393ION     NA49240   2.406   9.828   9.901  0.1279 -0.2004  0.4430
32394ION     NA49241   2.841  16.868   9.357  0.0790  0.0320  0.0507
32395ION     NA49242   3.736   0.802   5.268  0.0732  0.0746 -0.2954
32396ION     NA49243  12.231   9.200   9.721 -0.2341  0.0624 -0.0703
32397ION     NA49244  11.387  11.339   4.269 -0.2373  0.0547  0.3512
32398ION     NA49245   7.187   2.017   4.664  0.0975 -0.5044  0.2431
32399ION     NA49246   7.705   4.714  12.265 -0.2190 -0.2638 -0.0131
32400ION     NA49247   3.992   0.203   4.028 -0.2909  0.2327 -0.0921
32401ION     NA49248  13.822  13.783   4.972  0.1565 -0.0120 -0.0053
32402ION     NA49249  19.295  17.330   3.577  0.3454 -0.1963  0.1345
32403ION     NA49250   3.580   4.904  11.358 -0.1034 -0.2142 -0.2887
32404ION     NA49251   7.638  11.547  12.013  0.2930 -0.0978  0.0683
32405ION     NA49252   3.934  16.742   4.387  0.0302  0.3402 -0.0570
32406ION     NA49253   9.117   0.539   0.481 -0.0926 -0.6219  0.2220
32407ION     NA49254  13.173   8.732   5.523 -0.0429 -0.2776  0.0578
32408ION     NA49255   9.942   2.586   9.209 -0.2665  0.0313 -0.0113
32409ION     NA49256   3.638   7.213   2.096 -0.2267 -0.1246 -0.1653
32410ION     NA49257  17.115  15.097   9.534  0.1249 -0.0990 -0.0713
32411ION     NA49258   1.372  15.193   5.124  0.0388 -0.1776  0.4918
32412ION     NA49259  10.444   5.101   5.407 -0.2424  0.0847  0.0677
32413ION     NA49260   1.969  11.938  13.879  0.5218  0.1688  0.1475
32414ION     NA49261   8.366  18.614  11.483 -0.0471 -0.0675 -0.0512
32415ION     NA49262  19.268  18.719   9.237  0.0155  0.0294 -0.4586
32416ION     NA49263   8.870  13.335   3.770  0.0741 -0.3646 -0.0377
32417ION     NA49264   5.503  18.879   4.296  0.0672 -0.0021 -0.1215
32418ION     NA49265  15.379   1.870   4.945 -0.0108 -0.0515 -0.2048
32419ION     NA49266  10.881  18.329   9.732 -0.2192  0.0472  0.1133
32420ION     NA49267   4.213   5.586   5.298  0.1208  0.1052 -0.0694
32421ION     NA49268  18.696  10.884   9.989  0.1415 -0.2636 -0.0155
32422ION     NA49269   0.603   7.522   9.463 -0.2271 -0.2595 -0.1776
32423ION     NA49270  10.082   7.792   0.063 -0.0720  0.1429  0.2247
32424ION     NA49271   5.462  14.478   5.063 -0.1128  0.2728  0.0759
32425ION     NA49272   1.330  15.141   9.521  0.2644  0.0500  0.0529
32426ION     NA49273  17.525   7.419   4.615  0.1955  0.1008 -0.0891
32427ION     NA49274   0.362   3.714   9.233 -0.0130 -0.0644  0.1586
32428ION     NA49275  16.891   1.771   9.235  0.0322  0.0534 -0.0874
32429ION     NA49276   2.908   0.289   5.131  0.1068 -0.3436 -0.0364
32430ION     NA49277   8.424   3.872   9.473  0.0677 -0.1256 -0.5204
32431ION     NA49278   6.016  10.430   1.295  0.2950 -0.0039 -0.3582
32432ION     NA49279  12.631  15.760   9.616  0.4067  0.0437 -0.1597
32433ION     NA49280   2.784  12.967  10.354  0.1796  0.1235 -0.2976
32434ION     NA49281  10.562  10.513   2.924 -0.3632 -0.0084 -0.4490
32435ION     NA49282   9.124   2.842  14.442 -0.2213 -0.0687  0.2850
32436ION     NA49283   6.577   8.816  10.652 -0.0571  0.2713 -0.0233
32437ION     NA49284   8.513   9.772   4.938 -0.3389  0.3662 -0.2006
32438ION     NA49285   4.025   9.397   3.892  0.1955  0.0954 -0.0732
32439ION     NA49286  18.946  11.671  10.143  0.0325 -0.0001 -0.2142
32440ION     NA49287  14.133   1.633   9.505 -0.1255  0.0724 -0.0024
32441ION     NA49288   4.112  18.110   0.088 -0.1995  0.2262  0.2002
32442ION     NA49289   9.782   3.485   3.112 -0.1297  0.1801 -0.0640
32443ION     NA49290   7.126   5.185  13.993  0.0396 -0.1590 -0.0522
32444ION     NA49291   4.974   3.143   2.231 -0.0082 -0.1604  0.0037
32445ION     NA49292   1.758   4.046   9.493 -0.1610  0.2536  0.0498
32446ION     NA49293   2.791   0.657   9.423 -0.4951 -0.1233  0.1810
32447ION     NA49294   9.943  14.215   3.487  0.1712 -0.1960 -0.0793
32448ION     NA49295   1.559  11.973  10.128  0.2297  0.1608 -0.0459
32449ION     NA49296   3.758   3.607  10.177  0.2467 -0.0369 -0.1377
32450ION     NA49297  10.619   3.945   4.410  0.1238  0.2951  0.0447
32451ION     NA49298  16.918  17.553   0.307  0.3372  0.1257 -0.1208
32452ION     NA49299   7.357   4.832   4.837  0.0059 -0.1371  0.1107
32453ION     NA49300  16.908  19.360  14.050 -0.0090  0.1075  0.1756
32454ION     NA49301   8.679   7.784   2.765 -0.2570 -0.1341 -0.2138
32455ION     NA49302   7.286  17.732   3.556 -0.3114  0.0191  0.1569
32456ION     NA49303   7.967  10.297   3.451 -0.4125  0.0198  0.2120
32457ION     NA49304   2.415   8.374   9.841  0.2275 -0.2055  0.1871
32458ION     NA49305  11.983  11.614   9.693 -0.2778  0.0807  0.2153
32459ION     NA49306   0.962   1.232   9.507 -0.0916 -0.0918  0.3001
32460ION     NA49307  17.596   8.414   9.805 -0.1445 -0.2059  0.0793
32461ION     NA49308   8.335  13.187   0.606  0.0982  0.0658 -0.0341
32462ION     NA49309   8.323  10.450  13.502  0.1364 -0.2025  0.1685
32463ION     NA49310  14.543  12.499  13.872  0.2633 -0.1177  0.1338
32464ION     NA49311   9.533   6.272  13.354 -0.3418 -0.0689 -0.0987
32465ION     NA49312   1.870  13.731  12.445 -0.1695  0.1147  0.1163
32466ION     NA49313  13.684   4.256   9.805 -0.3096 -0.1674  0.1440
32467ION     NA49314   6.825   3.269   5.163 -0.1553 -0.1644 -0.0635
32468ION     NA49315  12.717   5.662   2.138  0.2751 -0.1938  0.1641
32469ION     NA49316   1.168  18.351   0.596  0.0073 -0.1666  0.1553
32470ION     NA49317   9.447   1.948   4.178 -0.0116  0.4032 -0.0630
32471ION     NA49318  13.034  17.210   9.746  0.1202  0.1260 -0.0906
32472ION     NA49319   8.498  15.241   3.394 -0.1016  0.0122  0.4939
32473ION     NA49320   0.749   6.074   2.387 -0.1702 -0.0780  0.0964
32474ION     NA49321  12.067   9.880   4.002  0.0318  0.0436 -0.1522
32475ION     NA49322   0.117   0.022   1.157  0.1514 -0.0710 -0.0378
32476ION     NA49323   3.392  13.913   5.162 -0.0947 -0.0602 -0.2395
32477ION     NA49324   5.554   1.058   2.174 -0.1983 -0.1399 -0.4090
32478ION     NA49325   4.210  19.107   4.822 -0.0728 -0.0207 -0.1183
32479ION     NA49326  10.234   4.114   5.199 -0.1133 -0.0086  0.1147
32480ION     NA49327   1.883   1.083   9.416  0.1597  0.1254 -0.0370
32481ION     NA49328   1.030   7.736   9.450  0.1258  0.2238 -0.2387
32482ION     NA49329   6.001  10.517   5.052 -0.3805 -0.3001 -0.0183
32483ION     NA49330  19.039  19.439   9.197  0.0900  0.1947  0.2007
32484ION     NA49331   6.864   2.216   9.325 -0.0983 -0.1617 -0.0454
32485ION     NA49332   5.811   8.090   4.395  0.1538 -0.0175  0.0643
32486ION     NA49333   7.373   2.567  12.954 -0.0719 -0.1670 -0.1428
32487ION     NA49334  11.619   3.784   5.189  0.2035  0.0763 -0.0884
32488ION     NA49335   3.553   3.874  11.968  0.0841  0.3026 -0.1034
32489ION     NA49336  18.289  14.090   5.337 -0.1029 -0.1735 -0.0401
32490ION     NA49337  12.847  15.096   9.591 -0.2191 -0.0887 -0.0174
32491ION     NA49338  10.389  19.087   9.607 -0.1564  0.2075  0.2153
32492ION     NA49339  11.264  15.294   0.934 -0.0056  0.1472  0.0096
32493ION     NA49340   3.653   4.337   9.446 -0.4412 -0.1235 -0.0823
32494ION     NA49341   7.171   3.964   2.281  0.2545  0.2791 -0.1187
32495ION     NA49342   2.405   3.846  12.615  0.5533 -0.1011 -0.0532
32496ION     NA49343   0.415   9.820  14.451 -0.0067 -0.2347  0.0764
32497ION     NA49344  13.313   5.589   4.907 -0.0670  0.1424 -0.2669
32498ION     NA49345   4.582  15.997   9.416  0.1548  0.0954  0.1157
32499ION     NA49346   9.084   9.507   1.913  0.2056 -0.2776  0.1996
32500ION     NA49347   4.711   6.019   9.797  0.3139  0.0756 -0.1035
32501ION     NA49348  12.163  15.213   0.624  0.1441 -0.2906 -0.0767
32502ION     NA49349   6.246   3.904   1.351 -0.0392  0.2575  0.0522
32503ION     NA49350  19.183   8.495   9.691 -0.0151 -0.1135  0.3288
32504ION     NA49351  18.951  15.873   0.612 -0.1119 -0.1902 -0.0777
32505ION     NA49352   5.927   8.928   4.915 -0.1549 -0.2808 -0.1867
32506ION     NA49353  12.047  11.933   5.320  0.0732  0.1453  0.1428
32507ION     NA49354  10.893   5.992  13.937 -0.0562  0.0516 -0.0695
32508ION     NA49355   3.146  12.676   5.380 -0.0550  0.1657  0.2791
32509ION     NA49356  14.896  12.982  13.214  0.3681  0.3734 -0.0597
32510ION     NA49357  17.145  19.265   9.751  0.2452 -0.3429  0.3469
32511ION     NA49358   6.828  14.067   5.249 -0.0405  0.0118  0.0324
32512ION     NA49359  14.082   9.914   2.137  0.1173  0.0252  0.1629
32513ION     NA49360   5.573  10.262   5.256  0.0078 -0.1309 -0.6059
32514ION     NA49361  14.860  12.400   0.879  0.0178 -0.3932  0.1699
32515ION     NA49362   3.845   9.043   5.361  0.1520  0.1910  0.0855
32516ION     NA49363  16.860   9.128   1.966  0.0761 -0.0358  0.0921
32517ION     NA49364  19.149  13.294   9.396 -0.2034  0.0287  0.1437
32518ION     NA49365  18.821  10.599   1.704  0.1645 -0.1352  0.0756
32519ION     NA49366   8.786   4.684   1.397  0.0025 -0.0500 -0.2586
32520ION     NA49367   3.890  19.237  10.131  0.3404  0.0759 -0.2884
32521ION     NA49368   0.953  13.679   0.926  0.1011 -0.1181 -0.2339
32522ION     NA49369  14.797  17.787   9.603  0.2340  0.0689 -0.0440
32523ION     NA49370   0.956  13.309   9.678 -0.3389 -0.0868  0.3498
32524ION     NA49371  18.230   2.855   0.046  0.1360 -0.1017  0.0506
32525ION     NA49372   2.809  13.307   4.830 -0.2102 -0.0863  0.1223
32526ION     NA49373   4.960   9.409   5.395  0.2642  0.1195 -0.1372
32527ION     NA49374   7.175  14.944   2.864  0.3028 -0.1778 -0.2003
32528ION     NA49375  19.524   9.215   9.716 -0.0066  0.0393 -0.1962
32529ION     NA49376  13.643  10.210  10.938 -0.3159  0.3878 -0.2118
32530ION     NA49377  11.908  18.271   9.663 -0.0516 -0.4200  0.4170
32531ION     NA49378  16.739  16.903   9.495 -0.3292  0.1878  0.0507
32532ION     NA49379  11.783   2.028  11.183 -0.1390 -0.4437  0.3398
32533ION     NA49380  16.627  14.269   9.515 -0.2054  0.1028 -0.0979
32534ION     NA49381   0.062   4.497  14.369  0.0527  0.2710  0.4294
32535ION     NA49382  19.178  15.939   9.427 -0.1083 -0.1086 -0.2728
32536ION     NA49383   0.095  10.606   1.115  0.1112  0.1727 -0.1802
32537ION     NA49384   4.140   3.838   4.911 -0.1812  0.3699  0.1351
32538ION     NA49385  14.408   5.656   1.781 -0.2407 -0.1863 -0.2447
32539ION     NA49386  18.826   5.334   9.383  0.1231  0.1479  0.0713
32540ION     NA49387   7.432   6.520   4.267 -0.1081 -0.0782 -0.0688
32541ION     NA49388   3.984   9.699   1.126  0.2023 -0.1261 -0.0051
32542ION     NA49389   3.415   3.507   9.219  0.1380  0.0558  0.0820
32543ION     NA49390   4.939  18.707  13.790  0.0239  0.4955  0.2180
32544ION     NA49391   4.747  12.069   5.152  0.3537 -0.1847 -0.1776
32545ION     NA49392   4.745  12.539  10.204 -0.2936 -0.1491 -0.0006
32546ION     NA49393  18.056   7.544   2.665 -0.0072 -0.0728  0.2000
32547ION     NA49394   9.846   6.522   1.030  0.0040 -0.2155  0.2637
32548ION     NA49395  15.745   6.158  10.011 -0.0276  0.1137 -0.1665
32549ION     NA49396   2.043   7.211  13.989  0.1331  0.3043 -0.2797
32550ION     NA49397   4.271  10.990   5.380  0.3345  0.0048  0.2222
32551ION     NA49398   6.964   3.945   9.529 -0.0152 -0.4535  0.1704
32552ION     NA49399  14.681   4.154   2.311  0.0854  0.0719 -0.0058
32553ION     NA49400  11.484   7.327   9.615 -0.0594 -0.1259  0.1454
32554ION     NA49401  12.252  15.295   1.758  0.2766 -0.3501 -0.4726
32555ION     NA49402  17.922   0.301   9.646  0.0022  0.0638 -0.0633
32556ION     NA49403  19.400   6.214   2.131  0.0226  0.1907 -0.2396
32557ION     NA49404  19.198  10.448   5.560 -0.1368  0.1261  0.1659
32558ION     NA49405   8.793  13.482   5.287  0.1268 -0.1366 -0.1633
32559ION     NA49406   4.957   3.669   4.836 -0.2422  0.1678 -0.1306
32560ION     NA49407  10.383   2.730  12.791  0.0077  0.0439 -0.1488
32561ION     NA49408  11.859  19.425   9.472  0.0490  0.0576  0.2981
32562ION     NA49409   1.365   6.067  12.258  0.1434  0.2180  0.1016
32563ION     NA49410   0.777  15.496   1.740 -0.0826 -0.1881  0.3142
32564ION     NA49411   7.443   5.627   5.156  0.3677  0.1178  0.0459
32565ION     NA49412  17.551  11.664   4.922 -0.1454  0.0351  0.0761
32566ION     NA49413   6.134  17.684  14.523 -0.0293 -0.1974  0.0003
32567ION     NA49414  10.170   4.349   2.571  0.0812  0.4478 -0.2124
32568ION     NA49415   8.461  15.289  14.605 -0.0901 -0.5212  0.0413
32569ION     NA49416  15.919  10.222   9.552 -0.0715 -0.1762 -0.0839
32570ION     NA49417  18.452   6.146   9.886 -0.0258 -0.1170 -0.1290
32571ION     NA49418   0.096  18.964  11.910 -0.1161 -0.0831 -0.1715
32572ION     NA49419  14.398  13.176   9.220 -0.1874  0.1863  0.0371
32573ION     NA49420  11.450  11.233   9.476  0.0041 -0.0565  0.0602
32574ION     NA49421  11.679   2.271   1.780 -0.5688 -0.1727  0.1806
32575ION     NA49422   5.743   4.834   2.085 -0.1530  0.1369  0.0145
32576ION     NA49423   3.149  10.659   3.831  0.1361 -0.0063 -0.5576
32577ION     NA49424   8.013   9.824   5.041  0.1529  0.3022  0.0940
32578ION     NA49425  11.173   2.452   5.170 -0.4183 -0.1546  0.1612
32579ION     NA49426   0.024   5.475   5.068 -0.0660  0.3753  0.1526
32580ION     NA49427  15.949   9.479   9.988  0.1888  0.1427  0.0480
32581ION     NA49428  14.890   5.520   5.389  0.2610  0.0038  0.3173
32582ION     NA49429   8.761  17.733   5.023  0.3891 -0.0467  0.0725
32583ION     NA49430  12.173   2.634   0.338  0.0991  0.0761 -0.0941
32584ION     NA49431  12.484   0.532   9.326 -0.2336 -0.0764 -0.2432
32585ION     NA49432   5.384   4.173   3.700 -0.1752 -0.0691 -0.0160
32586ION     NA49433  17.087  13.390  13.131  0.0052 -0.0030 -0.1019
32587ION     NA49434  12.671   2.155   9.213  0.0136 -0.2191 -0.0697
32588ION     NA49435   4.969  18.744   4.682  0.0962  0.0047 -0.2679
32589ION     NA49436  16.391  11.835   9.932  0.0554 -0.1473  0.1531
32590ION     NA49437   5.299  18.860   2.678  0.0909  0.0572  0.0894
32591ION     NA49438   3.916   3.192   0.628 -0.0757  0.0730 -0.2365
32592ION     NA49439   7.375  12.964   9.186  0.2364  0.0661 -0.3374
32593ION     NA49440  18.876   4.816  13.562 -0.1454 -0.2805 -0.1325
32594ION     NA49441   2.919   5.908   2.295  0.1615 -0.1863  0.0842
32595ION     NA49442   1.569  16.678   5.025  0.2414  0.0116 -0.0594
32596ION     NA49443   0.691  16.043  14.592  0.2045 -0.1776  0.3850
32597ION     NA49444   6.639  12.910  12.248  0.0893 -0.1795  0.1828
32598ION     NA49445   6.277  19.090   1.244  0.2068  0.1193  0.2801
32599ION     NA49446   2.629   4.006   9.383 -0.0749  0.1583 -0.3362
32600ION     NA49447  11.712  12.737  12.937  0.0789 -0.0031  0.2414
32601ION     NA49448   3.190   1.603   9.420 -0.0763 -0.4727 -0.1251
32602ION     NA49449  19.397   6.209   3.814 -0.1343 -0.2172  0.2989
32603ION     NA49450   4.866   1.357   0.144 -0.1779 -0.0126  0.1382
32604ION     NA49451   9.318   0.430   9.628  0.4015 -0.0506 -0.3941
32605ION     NA49452  14.062  11.702   0.066 -0.0882 -0.1149  0.2549
32606ION     NA49453  12.012   3.358   9.439  0.4144 -0.1312 -0.1032
32607ION     NA49454  11.315  11.091   5.577 -0.0533  0.0869  0.0587
32608ION     NA49455  10.011  16.298  12.660 -0.0224  0.2239  0.1144
32609ION     NA49456  17.639   4.213   1.337 -0.0490  0.0916 -0.2927
32610ION     NA49457  10.534  12.076   4.416 -0.1685 -0.1201 -0.0308
32611ION     NA49458  17.453  16.069   2.657  0.1540 -0.1340 -0.4449
32612ION     NA49459  17.258   6.409   5.103  0.0573 -0.0004  0.0686
32613ION     NA49460  17.146  12.992   9.321 -0.2202 -0.2410  0.0232
32614ION     NA49461  17.813  12.508  14.571 -0.3644 -0.1793  0.2592
32615ION     NA49462   9.445  17.570   3.671 -0.0320  0.0570 -0.0787
32616ION     NA49463   1.443   0.092   1.358 -0.0927  0.1348 -0.1861
32617ION     NA49464   8.400   4.367   2.957  0.1844  0.1041  0.0275
32618ION     NA49465   5.783  18.847   9.317  0.0020 -0.2431  0.0244
32619ION     NA49466  11.204  14.213   9.849 -0.0968 -0.2055 -0.1851
32620ION     NA49467   2.742  11.241   2.350 -0.0495 -0.0483 -0.3380
32621ION     NA49468  16.064   1.461   5.196  0.2447 -0.0213 -0.0093
32622ION     NA49469   6.912   4.638   1.099 -0.1890 -0.3377 -0.0612
32623ION     NA49470   9.841  13.776   9.703 -0.0280 -0.1660 -0.1018
32624ION     NA49471  12.854  11.680   0.963  0.2843 -0.0612  0.3122
32625ION     NA49472  18.172   6.896   5.288 -0.0314  0.3586 -0.2776
32626ION     NA49473   0.746  10.524   3.161  0.2716 -0.0632  0.4369
32627ION     NA49474  16.253  18.848   4.869  0.3062  0.0912 -0.0887
32628ION     NA49475  13.706   7.806   5.417  0.1188 -0.0299 -0.2362
32629ION     NA49476   9.903   5.463   3.651  0.1282 -0.2285 -0.1366
32630ION     NA49477  15.462  17.963  13.502 -0.1146 -0.0248 -0.3447
32631ION     NA49478  15.327  12.964   0.012  0.1997  0.0411 -0.0785
32632ION     NA49479   1.335  11.143  10.216 -0.1580 -0.2543 -0.2990
32633ION     NA49480   8.974  14.305   9.526  0.1363 -0.0224  0.2383
32634ION     NA49481  14.535   0.929   9.225 -0.2146  0.0699 -0.0826
32635ION     NA49482  10.600  11.337   9.602 -0.2976 -0.1125 -0.0910
32636ION     NA49483   5.658  18.769  13.025 -0.0408 -0.1783  0.1394
32637ION     NA49484   7.421   7.183   9.346 -0.0982  0.0814  0.3323
32638ION     NA49485  14.164   2.751   1.263  0.0531  0.4940  0.4077
32639ION     NA49486   8.414  12.778   5.050  0.1266  0.0175  0.1005
32640ION     NA49487  13.007   6.256   9.602 -0.0777  0.1192  0.0535
32641ION     NA49488   0.923   3.571  13.723 -0.3231  0.1061 -0.1291
32642ION     NA49489  18.740  17.918   9.327 -0.0905  0.0269  0.3297
32643ION     NA49490   1.010   0.282   9.442 -0.1941  0.0603 -0.2667
32644ION     NA49491  13.607   2.586   5.031 -0.1947  0.0170  0.0115
32645ION     NA49492   6.596   9.778   2.109  0.0962 -0.0180 -0.0877
32646ION     NA49493  17.749  12.079   5.167  0.0829 -0.4348 -0.1060
32647ION     NA49494  15.947  19.576   4.257  0.0026 -0.1491 -0.1017
32648ION     NA49495   5.200   2.286   3.207 -0.0589  0.0480  0.0446
32649ION     NA49496  10.892  13.834   2.557  0.3260 -0.1314  0.3494
32650ION     NA49497   2.281   0.005   3.760 -0.0669 -0.2255 -0.2406
32651ION     NA49498   2.647  18.573  13.964 -0.1060 -0.0102 -0.1317
32652ION     NA49499  11.466  10.588   0.658 -0.0091  0.1755 -0.0366
32653ION     NA49500  15.285  17.368   4.502 -0.2605 -0.0748  0.0697
32654ION     NA49501  19.352   7.744   9.766  0.0874 -0.0054  0.0755
32655ION     NA49502  18.146  14.868   4.895  0.2965 -0.0076  0.5157
32656ION     NA49503  12.529  17.686   5.076 -0.0176  0.1790 -0.0274
32657ION     NA49504   3.171  10.486  10.292 -0.0896 -0.1803  0.1044
32658ION     NA49505  19.401  18.829   1.214 -0.2463  0.0591  0.4646
32659ION     NA49506  17.668  17.920   9.652  0.3263 -0.0192 -0.1198
32660ION     NA49507  12.257  13.260   5.503 -0.0287 -0.0759  0.1652
32661ION     NA49508   8.673  16.829   3.013  0.2128  0.1542  0.0504
32662ION     NA49509  16.626  13.980   5.299  0.0876  0.0276  0.0280
32663ION     NA49510   0.257   9.248   1.609 -0.0679 -0.2021 -0.1158
32664ION     NA49511   3.924  13.239   0.325  0.1832 -0.1330  0.1209
32665ION     NA49512  13.560   4.311  13.669  0.3102 -0.3672 -0.0007
32666ION     NA49513  13.310   1.861   0.523 -0.3399  0.2261 -0.2091
32667ION     NA49514  10.987   2.393   9.192  0.4251 -0.2080  0.1877
32668ION     NA49515   6.066   0.248   0.103 -0.2544  0.1615 -0.2271
32669ION     NA49516  15.711  10.606  12.992 -0.0603  0.0570 -0.1045
32670ION     NA49517   9.984  17.166  14.005  0.0223 -0.1523  0.0184
32671ION     NA49518  15.688   2.024   9.847 -0.3431 -0.1372 -0.0689
32672ION     NA49519  17.095  10.189  10.031 -0.0341 -0.0192  0.1037
32673ION     NA49520  14.286   2.153  12.971 -0.1307 -0.0214 -0.1276
32674ION     NA49521  17.261   0.988   9.251 -0.1043 -0.0521 -0.1463
32675ION     NA49522   1.454  13.980   9.745 -0.0163 -0.1840  0.0621
32676ION     NA49523   4.063  14.462  13.959 -0.1311  0.2372 -0.1138
32677ION     NA49524   6.808   4.387  14.506  0.1063  0.2875  0.0795
32678ION     NA49525  10.316   0.863   4.568  0.1295 -0.1193 -0.0542
32679ION     NA49526  16.953  13.686  12.320 -0.1616 -0.0382 -0.2748
32680ION     NA49527   0.260   4.463   4.698 -0.1549  0.0157  0.1114
32681ION     NA49528  16.309   4.364   9.412 -0.0042  0.1368 -0.3643
32682ION     NA49529  19.416  10.295   0.385  0.0938 -0.1044  0.4605
32683ION     NA49530  10.540   7.761  13.755 -0.0468  0.2098 -0.0868
32684ION     NA49531   1.938  10.805   2.369  0.0667 -0.0603  0.0679
32685ION     NA49532  14.737  11.601   2.552  0.1942 -0.0618 -0.1663
32686ION     NA49533   6.314   8.561   9.717  0.0192  0.1231 -0.1312
32687ION     NA49534  14.574   2.418   4.832  0.2404  0.0516  0.1017
32688ION     NA49535  16.708   8.993   9.791  0.3640  0.0260  0.0673
32689ION     NA49536   2.249   3.314   9.479 -0.1700  0.0208 -0.0998
32690ION     NA49537   4.962   9.664   9.557 -0.2912 -0.1307  0.0090
32691ION     NA49538   3.133  14.201   1.420 -0.1291  0.2522 -0.1100
32692ION     NA49539  13.692  18.773   9.784  0.2964 -0.1616 -0.0084
32693ION     NA49540  10.673   4.677   1.960  0.0731  0.0599  0.0625
32694ION     NA49541  12.805  15.946   2.818  0.0229  0.0964 -0.4205
32695ION     NA49542  16.476  12.323   9.264  0.0950 -0.0008  0.2678
32696ION     NA49543  11.233  16.555   0.535 -0.0619  0.1319  0.1043
32697ION     NA49544   2.442   8.160   0.428  0.1243  0.2087  0.1002
32698ION     NA49545   8.799  15.251   5.276  0.1406  0.0599 -0.2077
32699ION     NA49546  12.685  17.874   9.612 -0.1382 -0.2273 -0.0069
32700ION     NA49547   0.560  11.781   5.156 -0.1034 -0.1018  0.2697
32701ION     NA49548  15.052   1.627   9.335 -0.0007 -0.0131 -0.0176
32702ION     NA49549  11.181   0.824   4.846 -0.3608 -0.0331 -0.0594
32703ION     NA49550   4.382   7.951   0.379 -0.1537 -0.0967 -0.1541
32704ION     NA49551   3.074  16.517   1.358  0.2935  0.0068  0.0115
32705ION     NA49552   1.913   0.278   9.376 -0.2541  0.1671 -0.2641
32706ION     NA49553   9.333  15.563   9.519  0.0152 -0.0492 -0.1109
32707ION     NA49554   8.383   7.349   9.651  0.0157 -0.1327  0.0999
32708ION     NA49555   9.100  10.336  11.318  0.0461 -0.1699 -0.0897
32709ION     NA49556  18.300  12.219   9.469  0.1427 -0.0684  0.0464
32710ION     NA49557  18.469  11.603   1.955  0.0752 -0.0225 -0.0792
32711ION     NA49558   6.331   3.434   9.556  0.3567 -0.1732  0.1172
32712ION     NA49559   4.609  10.116   5.391 -0.1304  0.0418  0.2013
32713ION     NA49560   1.442  15.732   0.741  0.1088  0.0149 -0.3400
32714ION     NA49561   7.086  17.457  14.158  0.0798 -0.1643  0.2720
32715ION     NA49562  11.419   6.036  13.170  0.0255 -0.6332 -0.2277
32716ION     NA49563   1.779   5.024   3.689 -0.1092  0.0749 -0.2346
32717ION     NA49564   9.994   7.498   9.794  0.0908 -0.3208 -0.0143
32718ION     NA49565  12.759   3.882   9.730  0.3112 -0.0829  0.0961
32719ION     NA49566  11.887  12.667   9.836 -0.1960 -0.1307  0.0900
32720ION     NA49567  15.721   3.817   9.472  0.1450 -0.0622  0.0164
32721ION     NA49568  17.015   5.245   0.656 -0.0626  0.0320  0.2837
32722ION     NA49569   4.315   2.732   3.472 -0.1604  0.0396  0.1999
32723ION     NA49570  13.070  13.663   5.168 -0.1030 -0.1404 -0.0466
32724ION     NA49571  16.391  14.384  12.265 -0.1002 -0.1092 -0.0378
32725ION     NA49572  11.095  16.188  10.185 -0.1030  0.1044  0.1769
32726ION     NA49573  17.296   6.541   9.763  0.1852 -0.1263 -0.1412
32727ION     NA49574  10.135  15.562   1.229 -0.3260  0.1040 -0.1010
32728ION     NA49575   3.794  13.503  14.079 -0.1824  0.1320  0.1206
32729ION     NA49576  17.317   8.253  14.351  0.2704  0.0597  0.1832
32730ION     NA49577   7.386   8.043   9.451 -0.0401  0.2009 -0.3047
32731ION     NA49578  12.775  14.121   9.513  0.0570  0.0661  0.2211
32732ION     NA49579  15.966   8.716  11.409 -0.1203  0.0100 -0.0445
32733ION     NA49580  10.663  17.447   5.056 -0.1077  0.2489 -0.0098
32734ION     NA49581   1.828  10.753  10.186  0.2953  0.0330 -0.2326
32735ION     NA49582  14.721  10.554   9.481 -0.0384  0.1850  0.3002
32736ION     NA49583  13.048  10.494   9.703  0.1594 -0.0647  0.1462
32737ION     NA49584  14.193  11.717  13.552  0.2447  0.2625 -0.2653
32738ION     NA49585  10.813   9.558   9.577 -0.0998  0.0231  0.0009
32739ION     NA49586  11.886   4.958   1.434  0.1938 -0.0858  0.1959
32740ION     NA49587   2.867  14.948   4.317  0.0187  0.0013  0.0594
32741ION     NA49588   3.208  14.680   9.466  0.1559 -0.0733 -0.0213
32742ION     NA49589   2.418   6.235   9.682 -0.4446  0.1482 -0.1455
32743ION     NA49590   5.310  19.365   9.191 -0.2098  0.0431 -0.3127
32744ION     NA49591  10.188  16.423   0.739 -0.1905  0.3061 -0.0909
32745ION     NA49592  16.744   7.876   9.759 -0.0374  0.4055 -0.1528
32746ION     NA49593   8.336  18.080  13.602  0.0734 -0.2640 -0.1733
32747ION     NA49594   0.815   9.616   9.997  0.0125 -0.4016  0.2713
32748ION     NA49595  19.162  14.652   0.101  0.0570 -0.2705 -0.1960
32749ION     NA49596   8.770  17.872  14.541 -0.1551  0.0060  0.0808
32750ION     NA49597   7.029   0.442   9.418 -0.0577 -0.1702 -0.1003
32751ION     NA49598   9.742  19.351  12.321  0.2305  0.0274  0.1212
32752ION     NA49599  11.048   0.477  11.324 -0.1871 -0.2070  0.6591
32753ION     NA49600   8.639  17.762  11.647  0.0512  0.1527  0.0117
32754ION     NA49601   2.390   5.648  12.913  0.1075  0.0191  0.0868
32755ION     NA49602  12.623  13.221   9.552  0.0184  0.1384 -0.3269
32756ION     NA49603  14.906  15.939   9.219 -0.0235 -0.1269  0.0917
32757ION     NA49604   4.928  10.480   2.864  0.0681  0.3058  0.0368
32758ION     NA49605   3.731  11.330   3.916 -0.2341  0.0086  0.1022
32759ION     NA49606  13.539   2.645   2.496  0.4532  0.0293  0.0173
32760ION     NA49607  10.436  11.487   2.758 -0.0670 -0.0415 -0.0343
32761ION     NA49608   5.801  16.677   2.227  0.1505 -0.0721 -0.0987
32762ION     NA49609   2.643   9.754   5.200  0.1305  0.1469  0.1083
32763ION     NA49610  18.238   7.691   9.670  0.0271  0.3031  0.3469
32764ION     NA49611   5.455  10.854   9.890 -0.2359  0.1653 -0.2624
32765ION     NA49612   2.033   0.191   5.092  0.2083 -0.0878  0.2206
32766ION     NA49613   2.356  17.379   3.660 -0.1934 -0.2266  0.2795
32767ION     NA49614  14.314   3.734  13.922 -0.3784  0.1625 -0.2965
32768ION     NA49615   6.161   2.579   9.267 -0.1343  0.2342 -0.0014
32769ION     NA49616  11.505  12.479  14.247  0.1299  0.0869 -0.0854
32770ION     NA49617  16.999  17.182   5.137  0.0414 -0.1689 -0.0975
32771ION     NA49618  18.723   5.685   4.166  0.1483 -0.2089 -0.2034
32772ION     NA49619   3.237  18.122   4.938  0.0296 -0.0752  0.0600
32773ION     NA49620  10.814   9.894   3.581  0.0033  0.2910  0.0923
32774ION     NA49621  14.118  11.323   9.730 -0.1885 -0.0247  0.2365
32775ION     NA49622  18.709  19.227  14.561 -0.1765  0.0900  0.0600
32776ION     NA49623   6.778   9.354   5.102 -0.2975 -0.3272  0.0663
32777ION     NA49624   3.005   7.638   0.823 -0.0742  0.0668  0.1333
32778ION     NA49625   9.163   3.522  13.016 -0.0985  0.2304  0.0486
32779ION     NA49626   8.894  11.901   1.259  0.2176 -0.2078 -0.0153
32780ION     NA49627  12.834  11.680   4.992  0.0905  0.4656  0.0734
32781ION     NA49628   0.707  19.170  12.988 -0.4469 -0.3450  0.0029
32782ION     NA49629   9.923  10.145   9.434 -0.2342 -0.1707 -0.1274
32783ION     NA49630  15.053   0.608   9.122  0.0090 -0.1064  0.0038
32784ION     NA49631   3.726  12.488   3.797  0.1188  0.2282  0.1813
32785ION     NA49632   4.939   7.612  12.344 -0.0123  0.1513 -0.1812
32786ION     NA49633   6.991   3.124   2.029 -0.1148  0.0539  0.1575
32787ION     NA49634  14.024   4.023   3.981 -0.1679  0.1458 -0.0145
32788ION     NA49635  13.621   5.707   9.569 -0.1879 -0.3294  0.0867
32789ION     NA49636  15.154   2.475   9.329  0.1469 -0.1823  0.1857
32790ION     NA49637  18.113   1.716   2.442 -0.0705 -0.1486 -0.2342
32791ION     NA49638   6.936  14.954   5.101 -0.0659 -0.1723 -0.0622
32792ION     NA49639  18.350  15.692   9.364 -0.0198  0.1406  0.1755
32793ION     NA49640   7.856   6.450   9.585  0.0324  0.0117 -0.0811
32794ION     NA49641  14.838  18.930   9.588 -0.4204 -0.2904  0.0699
32795ION     NA49642   8.128  12.763  12.534 -0.2145 -0.1369  0.1250
32796ION     NA49643  13.197   0.211   5.136 -0.2112  0.0125  0.0080
32797ION     NA49644  11.953   6.928   3.137  0.0903  0.0919 -0.0005
32798ION     NA49645   5.583  10.481   3.155  0.1653 -0.1220  0.1547
32799ION     NA49646   3.006  16.333   5.194  0.1028  0.1142 -0.1252
32800ION     NA49647   6.410   4.685  10.830  0.0077 -0.2162  0.0363
32801ION     NA49648  16.507   8.060  14.605 -0.1023 -0.1341  0.0920
32802ION     NA49649  16.495  18.737   9.514  0.2027 -0.0271 -0.1441
32803ION     NA49650  13.775   0.136   1.129 -0.0450 -0.0158  0.1955
32804ION     NA49651  19.568   0.329  12.545 -0.3373 -0.0813 -0.1278
32805ION     NA49652  10.597   5.939   1.223  0.2161 -0.4039  0.0466
32806ION     NA49653  10.890   4.528  13.128 -0.1621  0.2365 -0.1815
32807ION     NA49654  14.024   6.287  11.774  0.1153 -0.1933 -0.0177
32808ION     NA49655   6.745  15.670  14.320  0.1062  0.0870  0.1597
32809ION     NA49656   4.362   4.728   5.247 -0.3501  0.1151  0.0844
32810ION     NA49657   3.152   8.478  11.504 -0.1444  0.0059  0.0300
32811ION     NA49658   1.928   3.138   4.063  0.0688 -0.2716 -0.0915
32812ION     NA49659   0.634   1.070   0.934 -0.7375  0.1619  0.1282
32813ION     NA49660   2.531   4.295  14.329 -0.0422 -0.0006  0.0668
32814ION     NA49661  11.125  10.800  12.149  0.4702 -0.0367  0.1310
32815ION     NA49662  14.874  14.350   3.669 -0.0264  0.0144  0.0987
32816ION     NA49663   1.897  10.957   0.986  0.3365  0.3072 -0.1893
32817ION     NA49664   4.505  10.676   0.170  0.0262 -0.2814  0.4437
32818ION     NA49665  11.063  10.444   9.335  0.1433  0.1733 -0.0476
32819ION     NA49666  13.769  17.358   9.799  0.1062  0.0249 -0.0976
32820ION     NA49667   9.446  14.534   5.324  0.0797 -0.0202  0.1712
32821ION     NA49668   9.975  16.440   5.212 -0.2850  0.0755 -0.1343
32822ION     NA49669  13.461   7.365   2.258  0.0630 -0.2907  0.2594
32823ION     NA49670   0.244  12.893   9.606  0.0372 -0.1147 -0.0217
32824ION     NA49671  16.404   6.764   9.512 -0.1047 -0.0370 -0.0977
32825ION     NA49672  15.456  11.076   9.661  0.1710  0.0045 -0.0582
32826ION     NA49673  15.728  15.708   4.994  0.2065 -0.2757  0.0965
32827ION     NA49674   7.080   4.847   9.560 -0.1040 -0.0772  0.1018
32828ION     NA49675   4.359  19.250   9.024 -0.0727 -0.0137  0.0398
32829ION     NA49676  13.319  18.046   9.565 -0.0749 -0.2590  0.2680
32830ION     NA49677   6.549  18.018   0.549  0.1221 -0.2025  0.1764
32831ION     NA49678  12.249   5.135   5.357 -0.0596 -0.3805 -0.0646
32832ION     NA49679  13.935   6.934   9.325 -0.0989  0.2526 -0.0713
32833ION     NA49680   8.002  12.131  11.220 -0.1520  0.1084 -0.1967
32834ION     NA49681  11.104   3.419   9.268 -0.0606  0.3344  0.5549
32835ION     NA49682  13.294   1.973   9.188  0.2415  0.0240  0.0142
32836ION     NA49683  16.622   7.959  11.784 -0.5445  0.2540 -0.2583
32837ION     NA49684  16.426   0.621   9.352 -0.1845  0.0117  0.1517
32838ION     NA49685   3.534   2.171   2.327 -0.3974  0.0685  0.4452
32839ION     NA49686  14.451  10.324   3.736 -0.1334  0.0881  0.4420
32840ION     NA49687   0.705  12.760   1.504  0.1065  0.0446  0.1363
32841ION     NA49688   5.170   6.501   5.515 -0.1512 -0.0740 -0.0032
32842ION     NA49689  18.971   0.783   9.190  0.0859 -0.1800  0.0403
32843ION     NA49690  18.279  12.625   4.664  0.0364  0.1861 -0.0819
32844ION     NA49691  14.567   7.742   2.857 -0.3630  0.0157  0.3637
32845ION     NA49692  19.003   8.190   1.782  0.0267 -0.0625 -0.3000
32846ION     NA49693   0.389   8.376   9.722  0.1705 -0.0468  0.1152
32847ION     NA49694   7.124   9.830   9.446 -0.2104  0.2733 -0.1746
32848ION     NA49695   7.930   9.604   3.006 -0.1084  0.0372  0.2195
32849ION     NA49696  17.934   8.760   5.280 -0.2166  0.1065 -0.1696
32850ION     NA49697  10.548  13.414   4.694 -0.2154 -0.0287 -0.0432
32851ION     NA49698   4.706   0.556   5.399  0.2604  0.1311 -0.1318
32852ION     NA49699   5.402  10.350   0.487  0.1245 -0.0010  0.4090
32853ION     NA49700  19.630   5.032  12.930 -0.0534 -0.3765 -0.2492
32854ION     NA49701   8.303   6.282  13.169 -0.1229 -0.3247  0.0295
32855ION     NA49702  15.798   1.277   3.269 -0.0712  0.4691  0.0330
32856ION     NA49703  15.289  19.479   1.602  0.2264  0.2088  0.3396
32857ION     NA49704   6.628   8.653  13.100  0.0369  0.0383 -0.1550
32858ION     NA49705   9.498  13.831   1.264 -0.0601  0.1433 -0.0006
32859ION     NA49706   4.617  11.123   2.290  0.0204 -0.1570 -0.1433
32860ION     NA49707   3.899   5.308   9.901 -0.3058  0.0002  0.0130
32861ION     NA49708  11.289  11.520   0.640 -0.0907 -0.0198 -0.0641
32862ION     NA49709   4.925  14.161  12.774  0.0961 -0.1001 -0.1944
32863ION     NA49710   4.230  13.044   1.423 -0.1998 -0.0012  0.2063
32864ION     NA49711   0.621  14.293   4.428  0.0335 -0.0386 -0.0868
32865ION     NA49712  16.799   3.591   9.295  0.2660  0.4264 -0.0675
32866ION     NA49713   0.464   3.468  11.462 -0.0727  0.1318  0.1005
32867ION     NA49714   1.116  17.682   9.477  0.1834 -0.1362  0.0873
32868ION     NA49715  13.217  17.982   4.711  0.2855  0.2314 -0.0511
32869ION     NA49716  11.812   1.879   5.244  0.1603  0.2479  0.2596
32870ION     NA49717   0.789  10.970   4.088  0.2819  0.3082  0.1375
32871ION     NA49718   5.430  12.417  11.415  0.1693 -0.0207 -0.2156
32872ION     NA49719  15.650  15.358   1.782  0.2450 -0.1313 -0.1202
32873ION     NA49720   6.486   6.734   5.377  0.0259  0.2332  0.0914
32874ION     NA49721   3.554   8.831   1.184 -0.2110  0.2241 -0.0838
32875ION     NA49722   3.677   7.124   9.642 -0.1924  0.1947 -0.2849
32876ION     NA49723  11.667  14.417   4.396  0.0894 -0.2315  0.0938
32877ION     NA49724  14.965  12.530  11.635  0.1502 -0.0884 -0.0761
32878ION     NA49725   2.844   4.892   2.274  0.0768  0.2147 -0.1093
32879ION     NA49726   8.737   6.763  13.805 -0.3704 -0.1356 -0.2518
32880ION     NA49727  15.601   8.403   4.512  0.1481 -0.2695 -0.0195
32881ION     NA49728  12.198  11.193   4.038 -0.3039 -0.0064 -0.2333
32882ION     NA49729   2.334   1.962   5.374 -0.0747  0.1512 -0.1024
32883ION     NA49730  11.966  18.617  12.300  0.0125 -0.1032 -0.0173
32884ION     NA49731   0.468   2.836   0.425  0.0646  0.1450 -0.3493
32885ION     NA49732   9.761   0.183   3.963 -0.0342 -0.2153 -0.0598
32886ION     NA49733   7.859   2.223   9.379  0.1236 -0.1896  0.2044
32887ION     NA49734   9.955  18.349  12.630  0.1939 -0.1648  0.1166
32888ION     NA49735   6.369  10.170   3.455 -0.3758  0.0184  0.1678
32889ION     NA49736  14.215  14.398  13.925  0.2266  0.0867  0.3533
32890ION     NA49737   1.375   6.893   9.412  0.0306  0.1280  0.2258
32891ION     NA49738  16.968  12.034   5.403  0.0349 -0.2856 -0.1450
32892ION     NA49739   8.016  16.750  10.238  0.1188 -0.0037  0.0844
32893ION     NA49740   9.423  13.965   1.792 -0.1068  0.1669 -0.0471
32894ION     NA49741  15.170   9.303   5.203  0.2939  0.2389  0.4152
32895ION     NA49742   4.991  13.554   5.162 -0.0380 -0.1325  0.3645
32896ION     NA49743   8.050  11.148   9.276 -0.2449  0.1692 -0.0254
32897ION     NA49744  10.120  10.695  11.191  0.1210 -0.2182  0.1631
32898ION     NA49745  15.631   1.635   3.828 -0.2527  0.1284  0.2548
32899ION     NA49746  13.941   8.819   9.391 -0.0572  0.0051  0.1755
32900ION     NA49747   8.541   1.323   9.407 -0.1175 -0.2291 -0.0961
32901ION     NA49748   6.349  12.084   1.682 -0.4265 -0.0401 -0.1728
32902ION     NA49749  15.236   5.249   0.157  0.1849 -0.0535  0.3717
32903ION     NA49750  11.961  14.704   9.637 -0.1447  0.1646 -0.3228
32904ION     NA49751  14.644   5.678   9.567 -0.2285 -0.4047 -0.1138
32905ION     NA49752   5.833   2.947  11.864  0.3648  0.0917  0.0673
32906ION     NA49753  16.591   2.889  14.091  0.4656 -0.0271 -0.1133
32907ION     NA49754  11.184  17.379   9.505  0.1589  0.1002  0.1562
32908ION     NA49755   9.993  16.264   2.147  0.0091 -0.0776 -0.1725
32909ION     NA49756   6.276  10.805   9.211  0.0138 -0.2331 -0.1610
32910ION     NA49757  18.208   2.310   9.653 -0.3715  0.0971 -0.2309
32911ION     NA49758   5.567   7.624  13.132  0.3454 -0.4980  0.2606
32912ION     NA49759   1.599  11.799   2.135  0.1776  0.0290  0.2884
32913ION     NA49760   9.692  19.166   0.582  0.3260  0.1198  0.3496
32914ION     NA49761   4.640   0.125   9.600  0.0177 -0.0875 -0.1356
32915ION     NA49762   1.326   5.090  13.135 -0.1611  0.1188  0.0872
32916ION     NA49763  13.397   5.332  13.099  0.0531 -0.3428 -0.1472
32917ION     NA49764  13.578   9.728   9.356 -0.3249  0.0356 -0.3094
32918ION     NA49765  11.853   9.723   0.282  0.2261  0.1153 -0.1439
32919ION     NA49766  13.736   6.388   3.190 -0.0194 -0.1573  0.1852
32920ION     NA49767  15.537  16.242  13.219  0.0764  0.2847  0.1559
32921ION     NA49768   3.478   0.132  13.786  0.2229 -0.1187  0.1711
32922ION     NA49769  17.138  19.244   1.085  0.0030 -0.0730  0.0237
32923ION     NA49770   2.516  16.971   5.290 -0.2423  0.1032  0.0419
32924ION     NA49771   6.166  15.474  13.052  0.0472  0.2101 -0.0682
32925ION     NA49772   8.353   1.185   4.697  0.0984 -0.0567 -0.0288
32926ION     NA49773  16.882  10.166   4.217  0.0478  0.1449 -0.0516
32927ION     NA49774  14.061   1.652   4.575 -0.0144 -0.1425 -0.2581
32928ION     NA49775   7.910  13.656   2.073 -0.0930  0.1033  0.2613
32929ION     NA49776  12.537   9.381   2.303  0.2972 -0.2702  0.1301
32930ION     NA49777  14.579   9.150  13.927 -0.0768  0.0971 -0.2914
32931ION     NA49778  14.789   0.089  13.046 -0.2980 -0.2409 -0.2047
32932ION     NA49779  19.566  11.824  14.019 -0.0692 -0.3108  0.0867
32933ION     NA49780  16.368  14.914  14.331 -0.1185 -0.1221 -0.0477
32934ION     NA49781  10.334  15.895   9.624 -0.3215  0.2454  0.1422
32935ION     NA49782  10.921  15.444  14.245  0.0972 -0.3168 -0.2289
32936ION     NA49783   1.497   4.671  14.076 -0.1138  0.0770  0.3035
32937ION     NA49784  16.013  18.114   3.085 -0.2041  0.0393 -0.1074
32938ION     NA49785  16.024   4.868   2.200 -0.0007 -0.2248 -0.3464
32939ION     NA49786   1.077  18.360   4.466  0.3294  0.2825 -0.1474
32940ION     NA49787   5.021   5.945   5.322  0.0848 -0.0282 -0.0970
32941ION     NA49788   0.713   5.509   9.517 -0.2630  0.2463  0.2650
32942ION     NA49789   0.322  16.741   0.536  0.2534  0.1133 -0.1054
32943ION     NA49790   1.196  10.962   1.952  0.0228 -0.0795  0.3766
32944ION     NA49791   9.584  10.987   9.358  0.1682 -0.1447  0.1679
32945ION     NA49792  17.198   4.768  12.954  0.0137 -0.4443 -0.0177
32946ION     NA49793   9.860   1.434   3.944 -0.3715 -0.1655 -0.0872
32947ION     NA49794   7.948  19.295   1.944  0.0909 -0.0760  0.3280
32948ION     NA49795   3.246   8.779   9.791  0.0884 -0.1869  0.0439
32949ION     NA49796   0.525  12.372   3.231 -0.2276 -0.3879  0.1676
32950ION     NA49797   4.872  15.478  10.903  0.0355  0.3661 -0.0022
32951ION     NA49798  19.139   2.436   5.026  0.1708 -0.1899 -0.1592
32952ION     NA49799   1.110   1.764   9.460 -0.1926 -0.1256  0.2537
32953ION     NA49800  17.444  12.747   3.967 -0.1684 -0.0894 -0.0548
32954ION     NA49801  14.926   3.266   9.637  0.2802  0.2621  0.0577
32955ION     NA49802  18.970   7.005   9.679  0.0993  0.1777  0.0661
32956ION     NA49803   2.462  19.113   5.009  0.1152 -0.1317 -0.0643
32957ION     NA49804  18.631  14.028   9.295 -0.1426 -0.2336 -0.1888
32958ION     NA49805  10.094   0.145   9.647  0.0305 -0.3647 -0.1248
32959ION     NA49806   9.455  19.167   9.595 -0.2764  0.0239 -0.1761
32960ION     NA49807   5.785  11.467   9.449  0.0932 -0.0110  0.2268
32961ION     NA49808   7.639  17.965  12.866  0.2035 -0.0137  0.0510
32962ION     NA49809   1.783  12.942   4.171 -0.1394  0.0029  0.0417
32963ION     NA49810  12.177  17.805   4.531  0.1237  0.1958  0.0299
32964ION     NA49811  10.432   9.254   5.193 -0.2171 -0.0474 -0.1034
32965ION     NA49812   9.806  10.462  10.269  0.0758 -0.0881 -0.0511
32966ION     NA49813  16.591  16.308   5.192 -0.0094  0.0009 -0.0345
32967ION     NA49814   1.508   3.051  13.112  0.1139  0.3949  0.3854
32968ION     NA49815  18.444   4.012   9.658  0.0588 -0.0434  0.1529
32969ION     NA49816   8.192  12.951   9.390 -0.2849 -0.0165 -0.2528
32970ION     NA49817  19.311   3.078   2.371 -0.1110  0.0097  0.0078
32971ION     NA49818   4.251  17.853   9.236  0.1509 -0.0927 -0.0458
32972ION     NA49819   5.681   0.187  12.197 -0.1741  0.0531 -0.0834
32973ION     NA49820   4.622   6.230  12.780 -0.2123  0.1803  0.3205
32974ION     NA49821  16.274  13.441   9.357  0.3008  0.0168  0.0754
32975ION     NA49822  10.137   8.884   9.744 -0.2083  0.0753  0.2379
32976ION     NA49823  13.308   2.003  11.065 -0.1839  0.4435 -0.3106
32977ION     NA49824   5.270   7.556   1.494 -0.2767 -0.1475 -0.0896
32978ION     NA49825  18.110   7.081   1.234 -0.3254  0.0874  0.0734
32979ION     NA49826   6.919   6.541   9.505 -0.1485 -0.1090 -0.0504
32980ION     NA49827  16.604  11.898  14.263 -0.2418  0.0076  0.1658
32981ION     NA49828  12.809  18.760   9.691  0.2862  0.0715  0.2447
32982ION     NA49829   3.178  12.002  10.087 -0.0456  0.1648  0.0164
32983ION     NA49830   6.596   0.481   4.341 -0.2434  0.0402  0.0757
32984ION     NA49831  13.366   8.020   5.107  0.3773 -0.0732  0.1655
32985ION     NA49832   8.799  16.716   4.877 -0.1235 -0.1954  0.0369
32986ION     NA49833   2.003  11.426  12.577  0.3990 -0.2377  0.0940
32987ION     NA49834  17.601   5.162   4.726  0.2053  0.1935  0.0340
32988ION     NA49835   4.037  15.573   0.495  0.0908 -0.1052 -0.1888
32989ION     NA49836   0.793  12.384   9.818 -0.1104 -0.0984 -0.2914
32990ION     NA49837  16.398   0.726   4.567  0.2867  0.1450 -0.0406
32991ION     NA49838   1.556   5.961   9.460  0.1693  0.2670 -0.0926
32992ION     NA49839   0.830  15.961   2.867 -0.4332  0.1824 -0.4315
32993ION     NA49840   7.770  16.348   9.376  0.2212 -0.0581  0.0296
32994ION     NA49841   6.237   9.480   9.094 -0.1014 -0.1633 -0.1515
32995ION     NA49842   7.200  13.460  10.340 -0.3532 -0.1776 -0.0511
32996ION     NA49843   9.607  10.339   4.689  0.4314  0.1715 -0.3453
32997ION     NA49844  11.056  12.385   5.207 -0.0907 -0.2050 -0.0221
32998ION     NA49845   8.663  19.317   9.566 -0.0655 -0.6536  0.1119
32999ION     NA49846   8.458  16.858   9.427  0.2229 -0.4483 -0.1477
33000ION     NA49847  14.846   4.101   5.064 -0.0187 -0.2611  0.1603
33001ION     NA49848   1.130  11.238  11.226  0.0529  0.0225 -0.2877
33002ION     NA49849  10.653  16.918   9.496 -0.0133  0.4947  0.0520
33003ION     NA49850   1.731   6.409   5.340 -0.0362  0.0545 -0.0110
33004ION     NA49851   0.251  15.186   9.308  0.3147  0.2521 -0.0367
33005ION     NA49852  17.685   0.427   3.315 -0.0463 -0.5677 -0.0355
33006ION     NA49853  19.373   1.685   0.804  0.0904  0.2388  0.2457
33007ION     NA49854  15.159   2.734   3.929 -0.2037 -0.2969  0.0354
33008ION     NA49855  16.035  17.672   9.320  0.0602 -0.0490  0.1879
33009ION     NA49856   9.651   5.392   5.218 -0.1217  0.0853 -0.3209
33010ION     NA49857   6.306   7.372   2.231  0.1302 -0.0066 -0.0014
33011ION     NA49858  17.943   8.528  13.747 -0.2586  0.0950  0.0970
33012ION     NA49859  13.169   7.155   9.450  0.0786 -0.0115 -0.1302
33013ION     NA49860   8.573  12.371   4.751 -0.3185 -0.0546 -0.4310
33014ION     NA49861  11.594  14.103   3.341 -0.3794  0.3333  0.1230
33015ION     NA49862   3.952   2.281   5.348 -0.1718 -0.2218 -0.1785
33016ION     NA49863   4.083  11.769   9.861 -0.0088  0.2380 -0.2528
33017ION     NA49864  13.431   8.163   0.943 -0.0525  0.1832 -0.1129
33018ION     NA49865  13.193  19.567   9.560  0.1285 -0.1841  0.0470
33019ION     NA49866   0.357  18.118   2.498  0.0633 -0.1274 -0.2436
33020ION     NA49867  16.629   0.324   3.117 -0.0773 -0.0485 -0.1037
33021ION     NA49868   4.797   4.077  14.035 -0.3409 -0.1937  0.1348
33022ION     NA49869   6.492   8.425  11.917  0.0999 -0.1022 -0.1533
33023ION     NA49870  16.377  10.547  14.361  0.2162  0.1669 -0.2158
33024ION     NA49871  15.186   4.613   9.696 -0.0346  0.0208  0.3661
33025ION     NA49872  13.747  10.358  12.749  0.2335  0.3124  0.1937
33026ION     NA49873   4.051   1.079   9.468 -0.0138  0.3267  0.2798
33027ION     NA49874   7.764  10.689   0.606 -0.1883 -0.2467 -0.1029
33028ION     NA49875   6.774  10.190   4.834  0.0697 -0.0801 -0.2667
33029ION     NA49876  12.184   6.038   9.819  0.3095  0.1027 -0.1062
33030ION     NA49877   2.065  12.232  11.514 -0.3044  0.4737 -0.1750
  19.63291  19.63291  14.61406
